INSANE! Membrane UpperLeaflet>loPI:POPI:DPPI:PYPI:ERGO=140.0:15.0:9.0:6.0:30.0 LowerLeaflet>loPI:POPI:DPPI:PYPI:ERGO=140.0:15.0:9.0:6.0:30.0
48854
    1loPI    C1    1  11.862  15.755  11.731 -0.2614  0.0646  0.0362
    1loPI    C2    2  11.498  15.787  11.568 -0.2689  0.3055  0.0965
    1loPI    C3    3  11.656  16.096  11.767  0.0060  0.2333 -0.0055
    1loPI   PO4    4  11.946  15.492  11.606 -0.0382  0.0130 -0.0014
    1loPI   GL1    5  12.111  15.319  11.172 -0.0823 -0.4680  0.5737
    1loPI   GL2    6  12.289  15.529  11.254 -0.3817  0.2659 -0.0133
    1loPI   C1A    7  12.053  15.430  10.667 -0.1839 -0.0079 -0.1475
    1loPI   C2A    8  12.085  15.466  10.305 -0.1107 -0.0775 -0.0967
    1loPI   C3A    9  12.166  15.655   9.841 -0.0128 -0.1368 -0.1288
    1loPI   C4A   10  12.260  15.687   9.405 -0.2501 -0.2380  0.1570
    1loPI   C5A   11  12.151  15.742   8.976 -0.0050  0.0972  0.3570
    1loPI   C6A   12  12.324  16.045   8.675 -0.0619 -0.0790 -0.3301
    1loPI   C1B   13  12.465  15.694  10.860  0.4125 -0.0142 -0.1379
    1loPI   C2B   14  12.398  15.833  10.491 -0.1239  0.1609 -0.1720
    1loPI   C3B   15  12.309  16.036  10.109  0.1910 -0.0202  0.0453
    1loPI   C4B   16  12.226  16.142   9.646 -0.3606  0.1563  0.3178
    2loPI    C1   17  12.517  14.402  11.114  0.2368  0.2028  0.0729
    2loPI    C2   18  12.368  14.297  11.470  0.1850  0.1529  0.0366
    2loPI    C3   19  12.757  14.245  11.392  0.1642  0.0086  0.0271
    2loPI   PO4   20  12.336  14.448  10.914 -0.2359  0.0145 -0.4128
    2loPI   GL1   21  12.091  14.498  10.533 -0.0818  0.1453 -0.0730
    2loPI   GL2   22  12.436  14.446  10.430 -0.1054 -0.1385  0.3631
    2loPI   C1A   23  11.826  14.562  10.156  0.2301 -0.0547  0.0105
    2loPI   C2A   24  11.561  14.801   9.921 -0.1549 -0.0343  0.0410
    2loPI   C3A   25  11.664  14.859   9.389  0.0457 -0.2080 -0.0619
    2loPI   C4A   26  11.570  15.118   9.073 -0.0031 -0.2006 -0.0493
    2loPI   C5A   27  11.815  15.421   8.753 -0.4812  0.0043 -0.1997
    2loPI   C6A   28  12.150  15.599   8.506 -0.0707  0.0852  0.3033
    2loPI   C1B   29  12.507  14.083  10.099 -0.0162  0.2300 -0.0943
    2loPI   C2B   30  12.591  13.869   9.745  0.1764  0.1783  0.0865
    2loPI   C3B   31  12.375  13.933   9.354  0.2488 -0.2897 -0.2390
    2loPI   C4B   32  12.213  14.095   8.915  0.2053 -0.1680  0.1294
    3loPI    C1   33   2.375  10.636  11.263 -0.1649 -0.0672  0.0293
    3loPI    C2   34   2.499  10.355  11.519 -0.1642  0.0557  0.1654
    3loPI    C3   35   2.148  10.537  11.577 -0.0999  0.1832  0.1577
    3loPI   PO4   36   2.618  10.509  11.052  0.1499  0.1804 -0.0249
    3loPI   GL1   37   2.596  10.240  10.694  0.1541  0.1527  0.1041
    3loPI   GL2   38   2.901  10.169  10.840  0.0315  0.1119 -0.0024
    3loPI   C1A   39   2.621  10.292  10.270  0.3910  0.1410  0.1464
    3loPI   C2A   40   2.583  10.337   9.772  0.0126  0.1167 -0.3916
    3loPI   C3A   41   2.535  10.505   9.452  0.0139 -0.1140 -0.2318
    3loPI   C4A   42   2.706  10.484   8.996  0.1375 -0.0220 -0.0572
    3loPI   C5A   43   2.945  10.639   8.784 -0.1073  0.1456 -0.0427
    3loPI   C6A   44   2.878  10.655   8.308  0.1515  0.0617 -0.2236
    3loPI   C1B   45   2.920   9.911  10.521 -0.2126 -0.0843  0.0230
    3loPI   C2B   46   2.986   9.928   9.999 -0.0583  0.2220  0.0461
    3loPI   C3B   47   3.038  10.057   9.550  0.3599 -0.0723 -0.3133
    3loPI   C4B   48   2.918  10.112   9.139 -0.4247 -0.1362 -0.2031
    4loPI    C1   49  14.773   4.972  11.492  0.0354  0.0046 -0.0473
    4loPI    C2   50  14.503   4.693  11.395  0.0736 -0.0509  0.0058
    4loPI    C3   51  14.569   4.783  11.779 -0.0611  0.1526 -0.0172
    4loPI   PO4   52  14.854   5.015  11.215 -0.0363  0.0305  0.0108
    4loPI   GL1   53  14.753   4.815  10.894  0.0945  0.1910  0.0144
    4loPI   GL2   54  14.934   4.548  11.015  0.0704  0.1277 -0.2860
    4loPI   C1A   55  14.650   4.755  10.377  0.0820 -0.0265  0.1328
    4loPI   C2A   56  14.634   4.788   9.921 -0.0434  0.2393 -0.1225
    4loPI   C3A   57  14.534   4.646   9.494 -0.2956  0.0321  0.3806
    4loPI   C4A   58  14.283   4.566   9.131 -0.3536  0.1019  0.0466
    4loPI   C5A   59  14.149   4.640   8.717  0.0470 -0.1512  0.1206
    4loPI   C6A   60  13.668   4.618   8.622  0.0147  0.1587 -0.1511
    4loPI   C1B   61  15.072   4.535  10.509  0.2247 -0.0741  0.3234
    4loPI   C2B   62  15.047   4.516  10.042 -0.1384 -0.1093  0.1507
    4loPI   C3B   63  14.992   4.511   9.576  0.0074  0.0355 -0.1070
    4loPI   C4B   64  14.862   4.357   9.242  0.1812 -0.1559  0.3241
    5loPI    C1   65   2.888   5.541  11.344  0.2036  0.1122  0.0072
    5loPI    C2   66   2.938   5.487  11.737  0.3103  0.1879  0.0047
    5loPI    C3   67   2.929   5.857  11.586 -0.1002  0.1738 -0.0179
    5loPI   PO4   68   3.023   5.344  11.216 -0.3070 -0.0079  0.0015
    5loPI   GL1   69   3.136   5.546  10.800 -0.0662  0.0099 -0.0941
    5loPI   GL2   70   3.171   5.804  10.604 -0.2046  0.1574 -0.4584
    5loPI   C1A   71   3.110   5.182  10.444  0.0265  0.2500  0.0200
    5loPI   C2A   72   3.151   5.116  10.114 -0.1690 -0.2951  0.0030
    5loPI   C3A   73   3.102   5.186   9.719  0.1086  0.1380 -0.0032
    5loPI   C4A   74   3.110   5.113   9.306 -0.3535 -0.0425 -0.2057
    5loPI   C5A   75   3.275   4.997   8.853  0.0127 -0.2755 -0.2422
    5loPI   C6A   76   3.387   4.765   8.436 -0.2647  0.0051 -0.2658
    5loPI   C1B   77   3.183   5.629  10.148  0.1526  0.4912  0.3474
    5loPI   C2B   78   3.240   5.660   9.667  0.1940  0.1345 -0.1322
    5loPI   C3B   79   3.193   5.645   9.232 -0.0902 -0.0912  0.0844
    5loPI   C4B   80   3.049   5.526   8.843  0.1193  0.0273 -0.1763
    6loPI    C1   81  14.403   1.527  11.690  0.0041  0.0491 -0.0638
    6loPI    C2   82  14.646   1.756  11.910 -0.0843 -0.0085  0.0961
    6loPI    C3   83  14.311   1.610  12.071  0.0417 -0.3675  0.0412
    6loPI   PO4   84  14.362   1.674  11.460  0.0527  0.1016 -0.2086
    6loPI   GL1   85  14.170   1.633  11.140 -0.0239  0.0090  0.0349
    6loPI   GL2   86  13.898   1.466  11.327  0.1631 -0.1906 -0.1326
    6loPI   C1A   87  14.093   1.704  10.717 -0.2093  0.0692  0.3299
    6loPI   C2A   88  14.154   1.683  10.310 -0.1688 -0.0303 -0.0737
    6loPI   C3A   89  14.141   1.607   9.847 -0.0907 -0.4631  0.1223
    6loPI   C4A   90  14.165   1.574   9.383 -0.2860  0.0349  0.1572
    6loPI   C5A   91  14.206   1.609   8.955 -0.1898  0.1372 -0.2021
    6loPI   C6A   92  14.282   1.536   8.477 -0.2685 -0.5010  0.0209
    6loPI   C1B   93  14.028   1.211  10.987  0.2951  0.0156 -0.0969
    6loPI   C2B   94  14.039   1.224  10.499 -0.0616  0.2811  0.1348
    6loPI   C3B   95  13.963   1.161   9.994  0.2175  0.2081 -0.2493
    6loPI   C4B   96  14.067   1.118   9.628 -0.0949 -0.1741 -0.0248
    7loPI    C1   97   9.447  16.597  11.891 -0.1512 -0.0170  0.1362
    7loPI    C2   98   9.843  16.648  11.903 -0.1362 -0.0532 -0.1325
    7loPI    C3   99   9.649  16.508  12.224  0.0571  0.0343  0.0250
    7loPI   PO4  100   9.449  16.506  11.548  0.1087  0.2247  0.1316
    7loPI   GL1  101   9.545  16.383  11.084  0.1963  0.0435  0.1043
    7loPI   GL2  102   9.495  16.716  10.948  0.0555 -0.1157 -0.1713
    7loPI   C1A  103   9.657  16.301  10.703 -0.1000  0.1851 -0.2092
    7loPI   C2A  104   9.611  16.403  10.281 -0.2182  0.1271 -0.0957
    7loPI   C3A  105   9.475  16.365   9.895 -0.1247 -0.2659  0.1215
    7loPI   C4A  106   9.511  16.534   9.422  0.0242  0.2667  0.1371
    7loPI   C5A  107   9.436  16.602   8.965 -0.2891 -0.1807  0.0868
    7loPI   C6A  108   9.257  16.909   8.665 -0.1742  0.0003  0.2244
    7loPI   C1B  109   9.270  16.702  10.611 -0.3614  0.0913 -0.0698
    7loPI   C2B  110   9.188  16.790  10.143  0.2952 -0.0681 -0.1590
    7loPI   C3B  111   9.049  16.691   9.782  0.4249 -0.3684 -0.3064
    7loPI   C4B  112   9.038  16.806   9.352 -0.0572 -0.1914 -0.0346
    8loPI    C1  113   5.769  14.588  11.584 -0.1612  0.1813  0.0294
    8loPI    C2  114   5.526  14.723  11.871 -0.1799  0.1522  0.0274
    8loPI    C3  115   5.815  14.461  11.961 -0.2254  0.0954  0.0086
    8loPI   PO4  116   5.656  14.519  11.411 -0.1690  0.0157 -0.1764
    8loPI   GL1  117   5.700  14.510  10.944  0.2405 -0.2922  0.0361
    8loPI   GL2  118   5.608  14.853  10.954  0.1632  0.0526  0.0118
    8loPI   C1A  119   5.568  14.380  10.551 -0.0750  0.1933  0.0621
    8loPI   C2A  120   5.533  14.318  10.138  0.2213 -0.2131 -0.3861
    8loPI   C3A  121   5.536  14.349   9.715  0.0606 -0.0611 -0.1956
    8loPI   C4A  122   5.463  14.459   9.314  0.0150 -0.0516 -0.0246
    8loPI   C5A  123   5.779  14.687   9.035 -0.0925 -0.0730 -0.0972
    8loPI   C6A  124   6.043  14.910   8.775 -0.1588 -0.4399  0.4355
    8loPI   C1B  125   5.719  14.893  10.541  0.1244  0.1406 -0.1167
    8loPI   C2B  126   5.634  14.831  10.104 -0.0894 -0.1796  0.1833
    8loPI   C3B  127   5.645  14.874   9.612 -0.0524  0.0963  0.2318
    8loPI   C4B  128   5.445  15.024   9.253 -0.3675  0.2187  0.1303
    9loPI    C1  129   9.316   4.834  11.762  0.0168 -0.0995  0.1503
    9loPI    C2  130   9.240   4.497  11.963  0.1734 -0.0424  0.3082
    9loPI    C3  131   9.337   4.830  12.161  0.0400  0.0915  0.1518
    9loPI   PO4  132   9.528   4.824  11.594 -0.0312 -0.0938  0.1296
    9loPI   GL1  133   9.530   4.828  11.127 -0.1076  0.2607 -0.1967
    9loPI   GL2  134   9.271   4.626  11.096  0.0956  0.2014 -0.1069
    9loPI   C1A  135   9.558   4.698  10.690  0.0833  0.1124  0.0252
    9loPI   C2A  136   9.487   4.758  10.190 -0.3814 -0.0691  0.0916
    9loPI   C3A  137   9.546   4.677   9.702 -0.2866 -0.0880  0.0552
    9loPI   C4A  138   9.525   4.696   9.274  0.0096 -0.3265  0.0543
    9loPI   C5A  139   9.803   4.969   8.968 -0.1576  0.2427  0.0112
    9loPI   C6A  140   9.983   4.914   8.564 -0.0909 -0.2210 -0.0333
    9loPI   C1B  141   8.995   4.536  10.762 -0.2307 -0.0533  0.2191
    9loPI   C2B  142   8.972   4.560  10.318 -0.0515  0.0728  0.1512
    9loPI   C3B  143   9.003   4.473   9.803 -0.0816  0.1328  0.0950
    9loPI   C4B  144   9.025   4.553   9.396  0.1407 -0.1951 -0.0179
   10loPI    C1  145   5.119  10.320  11.397  0.2115 -0.1222  0.1755
   10loPI    C2  146   4.929  10.414  11.737  0.0162 -0.0230  0.0408
   10loPI    C3  147   5.203  10.123  11.735  0.1728  0.1184  0.3286
   10loPI   PO4  148   4.902  10.320  11.209 -0.5377  0.0100  0.1931
   10loPI   GL1  149   4.700  10.076  10.970 -0.0619  0.0589 -0.0308
   10loPI   GL2  150   4.316  10.204  10.982 -0.1560 -0.0155  0.0192
   10loPI   C1A  151   4.744   9.841  10.641  0.2173 -0.1204  0.0886
   10loPI   C2A  152   4.717   9.710  10.164 -0.0262  0.0084 -0.0277
   10loPI   C3A  153   4.689   9.803   9.737 -0.0734  0.1862  0.2821
   10loPI   C4A  154   4.855   9.875   9.255 -0.3256 -0.2808 -0.1743
   10loPI   C5A  155   4.905   9.785   8.876  0.1813  0.0040  0.0038
   10loPI   C6A  156   5.061   9.557   8.586 -0.0237  0.0368 -0.1322
   10loPI   C1B  157   4.344  10.105  10.606 -0.0614  0.0189 -0.0112
   10loPI   C2B  158   4.268  10.059  10.248  0.2910  0.1545 -0.1405
   10loPI   C3B  159   4.299  10.059   9.876 -0.2129 -0.0945 -0.3600
   10loPI   C4B  160   4.319  10.231   9.463  0.2623 -0.1257  0.0392
   11loPI    C1  161   7.000  11.147  11.197  0.0039  0.0992  0.0450
   11loPI    C2  162   7.277  11.170  11.484  0.0522 -0.0715  0.0137
   11loPI    C3  163   6.890  11.216  11.575  0.0591 -0.2201  0.1227
   11loPI   PO4  164   7.210  11.302  10.970 -0.0140 -0.0826  0.0769
   11loPI   GL1  165   7.612  11.279  10.836 -0.0882  0.0944  0.2779
   11loPI   GL2  166   7.881  11.495  10.724  0.0850 -0.2428  0.1303
   11loPI   C1A  167   7.406  11.162  10.370  0.1936  0.2031 -0.0558
   11loPI   C2A  168   7.340  11.179   9.938 -0.4284  0.3178 -0.3814
   11loPI   C3A  169   7.332  11.178   9.476  0.0029  0.1316 -0.0202
   11loPI   C4A  170   7.281  11.257   9.091 -0.3315  0.0954  0.0181
   11loPI   C5A  171   7.275  11.533   8.734 -0.2747 -0.0269  0.0745
   11loPI   C6A  172   7.370  11.979   8.748 -0.2326  0.1490 -0.1339
   11loPI   C1B  173   7.831  11.420  10.437  0.2233 -0.0021  0.2682
   11loPI   C2B  174   7.725  11.450  10.078 -0.2154 -0.1172 -0.3633
   11loPI   C3B  175   7.892  11.374   9.612  0.1242 -0.0050  0.2425
   11loPI   C4B  176   7.807  11.280   9.228 -0.0062  0.0492  0.0714
   12loPI    C1  177  14.267  11.943  11.529  0.0822 -0.2829 -0.0754
   12loPI    C2  178  14.173  11.554  11.521 -0.1439 -0.2307 -0.0293
   12loPI    C3  179  13.989  11.799  11.778  0.2425 -0.1547  0.1824
   12loPI   PO4  180  14.243  12.000  11.231 -0.3638 -0.1561  0.2051
   12loPI   GL1  181  14.119  12.040  10.776 -0.3418  0.0435 -0.2845
   12loPI   GL2  182  14.385  11.927  10.774 -0.1218  0.2209 -0.0321
   12loPI   C1A  183  14.251  12.343  10.488 -0.3656 -0.1209 -0.0786
   12loPI   C2A  184  14.305  12.409  10.027 -0.1232 -0.0026 -0.2020
   12loPI   C3A  185  14.220  12.531   9.620  0.0122  0.1624  0.0782
   12loPI   C4A  186  14.408  12.589   9.209 -0.0307  0.1751  0.1421
   12loPI   C5A  187  14.529  12.361   8.856  0.0639  0.0984 -0.0124
   12loPI   C6A  188  14.666  12.084   8.566  0.0070 -0.0703  0.2343
   12loPI   C1B  189  14.362  11.820  10.365 -0.0371  0.0234 -0.1325
   12loPI   C2B  190  14.570  11.667   9.937  0.0116 -0.0142 -0.1230
   12loPI   C3B  191  14.644  11.693   9.509 -0.0532 -0.0884 -0.1620
   12loPI   C4B  192  14.984  11.681   9.302 -0.3552 -0.2060  0.2844
   13loPI    C1  193   5.682   1.111  11.324 -0.0895  0.1177 -0.0421
   13loPI    C2  194   5.724   1.058  11.718  0.1732  0.0517 -0.0773
   13loPI    C3  195   5.809   1.413  11.554  0.0566  0.0814 -0.0745
   13loPI   PO4  196   5.877   0.867  11.253  0.1212  0.1054  0.3567
   13loPI   GL1  197   5.900   0.615  10.918 -0.1435 -0.0943 -0.2124
   13loPI   GL2  198   5.588   0.819  10.706  0.0946  0.1067  0.0053
   13loPI   C1A  199   5.980   0.498  10.519 -0.1548 -0.1496  0.2427
   13loPI   C2A  200   6.080   0.389  10.186 -0.1434  0.0821  0.0156
   13loPI   C3A  201   6.170   0.481   9.819 -0.1252 -0.0249 -0.2894
   13loPI   C4A  202   6.099   0.566   9.403 -0.2405 -0.1542  0.1353
   13loPI   C5A  203   6.312   0.605   9.009 -0.1756  0.0711 -0.1179
   13loPI   C6A  204   6.726   0.713   8.955  0.3896  0.1827 -0.0199
   13loPI   C1B  205   5.630   0.784  10.264 -0.0731 -0.1589 -0.0472
   13loPI   C2B  206   5.724   0.832   9.772  0.3132  0.2087  0.0849
   13loPI   C3B  207   5.656   0.857   9.412  0.1752 -0.0207 -0.0769
   13loPI   C4B  208   5.678   0.802   8.954  0.0547 -0.2436 -0.0568
   14loPI    C1  209  16.811   8.932  11.283 -0.2703  0.3655  0.0719
   14loPI    C2  210  17.082   8.922  11.578 -0.1312 -0.2451 -0.0641
   14loPI    C3  211  16.697   8.990  11.662 -0.0629 -0.2146  0.2331
   14loPI   PO4  212  16.867   9.208  11.149 -0.2378 -0.1899 -0.0687
   14loPI   GL1  213  16.734   9.317  10.809 -0.2650 -0.1229  0.3168
   14loPI   GL2  214  16.897   9.359  10.568  0.0820  0.2292  0.2074
   14loPI   C1A  215  16.506   9.056  10.483 -0.2638 -0.2958 -0.1399
   14loPI   C2A  216  16.480   8.954  10.180  0.0056  0.1013  0.1715
   14loPI   C3A  217  16.516   8.887   9.755  0.1654 -0.2175  0.0155
   14loPI   C4A  218  16.686   8.889   9.400  0.2343  0.1896 -0.0906
   14loPI   C5A  219  16.559   8.935   9.022 -0.0090  0.1281 -0.0627
   14loPI   C6A  220  16.621   8.854   8.567  0.0725  0.0060  0.0274
   14loPI   C1B  221  16.843   9.367  10.118 -0.1265  0.2257 -0.2135
   14loPI   C2B  222  16.764   9.331   9.729  0.0436  0.1644  0.1818
   14loPI   C3B  223  16.769   9.375   9.250 -0.0989  0.1087  0.1035
   14loPI   C4B  224  16.642   9.385   8.743 -0.0069 -0.0878 -0.2226
   15loPI    C1  225  17.320   3.963  11.695  0.0822 -0.0293 -0.1060
   15loPI    C2  226  17.089   4.220  11.896  0.0314 -0.0470 -0.1415
   15loPI    C3  227  17.454   4.130  12.032 -0.1413 -0.3400  0.1432
   15loPI   PO4  228  17.249   4.049  11.468  0.0285 -0.1259  0.1253
   15loPI   GL1  229  16.903   3.987  11.187  0.0060 -0.0618  0.1340
   15loPI   GL2  230  16.614   4.181  11.152  0.0297  0.1220  0.1367
   15loPI   C1A  231  16.856   4.087  10.705  0.0523 -0.0981 -0.0491
   15loPI   C2A  232  16.847   4.104  10.296  0.1709 -0.1680  0.1719
   15loPI   C3A  233  16.970   4.127   9.911  0.1494  0.0828  0.0188
   15loPI   C4A  234  16.858   3.995   9.459 -0.3407  0.0218  0.0051
   15loPI   C5A  235  16.911   4.050   9.053 -0.0920  0.1140 -0.0189
   15loPI   C6A  236  17.098   4.013   8.602 -0.0617  0.2417  0.3681
   15loPI   C1B  237  16.428   3.944  10.863  0.0248  0.0279 -0.0785
   15loPI   C2B  238  16.364   4.005  10.425  0.1857  0.1521 -0.0666
   15loPI   C3B  239  16.312   4.038  10.084 -0.2879 -0.1406  0.4118
   15loPI   C4B  240  16.331   3.980   9.613 -0.0063 -0.1995 -0.1244
   16loPI    C1  241   8.108   6.398  11.653  0.1368  0.0556  0.0109
   16loPI    C2  242   8.393   6.209  11.860  0.0248  0.0512  0.1628
   16loPI    C3  243   8.202   6.521  12.022  0.0479  0.1493  0.0027
   16loPI   PO4  244   8.159   6.302  11.438  0.1080 -0.1757  0.4751
   16loPI   GL1  245   8.070   6.302  10.993  0.0262  0.0818 -0.0094
   16loPI   GL2  246   8.497   6.276  11.017  0.0481  0.2132 -0.0301
   16loPI   C1A  247   7.921   6.034  10.657 -0.0197  0.0198  0.0198
   16loPI   C2A  248   7.884   6.016  10.206 -0.3886 -0.0455  0.1565
   16loPI   C3A  249   7.846   6.023   9.812  0.3000 -0.2597  0.0358
   16loPI   C4A  250   7.928   6.098   9.418 -0.1904 -0.0733 -0.0753
   16loPI   C5A  251   7.923   6.150   8.962  0.0151 -0.0419 -0.0327
   16loPI   C6A  252   7.791   5.943   8.510  0.1865 -0.0211 -0.3056
   16loPI   C1B  253   8.359   6.261  10.587  0.0336 -0.1742  0.1466
   16loPI   C2B  254   8.356   6.265  10.124 -0.0916  0.1640  0.0981
   16loPI   C3B  255   8.376   6.282   9.684 -0.1499 -0.0326  0.0652
   16loPI   C4B  256   8.352   6.279   9.204 -0.1031 -0.0377 -0.2935
   17loPI    C1  257   5.812   0.405  11.415  0.1064  0.2269 -0.0036
   17loPI    C2  258   5.729   0.162  11.721  0.0701  0.0477 -0.1540
   17loPI    C3  259   5.802   0.549  11.788  0.1143 -0.0003  0.0860
   17loPI   PO4  260   5.598   0.374  11.208  0.1526  0.1038  0.1484
   17loPI   GL1  261   5.291   0.518  10.889  0.3101 -0.3673 -0.1415
   17loPI   GL2  262   5.476   0.332  10.727  0.0481 -0.0914 -0.0564
   17loPI   C1A  263   5.186   0.599  10.450 -0.2382  0.1024 -0.1516
   17loPI   C2A  264   5.163   0.623   9.979  0.1398 -0.3580  0.0203
   17loPI   C3A  265   5.214   0.722   9.584  0.1810  0.1601  0.1623
   17loPI   C4A  266   5.145   0.666   9.133  0.0361  0.0301 -0.2436
   17loPI   C5A  267   5.238   0.593   8.616  0.2563 -0.0899 -0.0412
   17loPI   C6A  268   5.557   0.799   8.432  0.1532 -0.0169  0.1267
   17loPI   C1B  269   5.543   0.309  10.211  0.0947  0.0589 -0.1991
   17loPI   C2B  270   5.655   0.330   9.762  0.0478  0.0970  0.0161
   17loPI   C3B  271   5.664   0.392   9.240 -0.0101  0.0663  0.4655
   17loPI   C4B  272   5.579   0.269   8.756  0.2052 -0.0017 -0.0885
   18loPI    C1  273   8.721  12.405  10.854  0.0187  0.0758 -0.1031
   18loPI    C2  274   9.035  12.163  10.796 -0.0111  0.0307 -0.0769
   18loPI    C3  275   8.836  12.153  11.143 -0.1209 -0.0326 -0.1409
   18loPI   PO4  276   8.753  12.707  10.772 -0.0930  0.1386 -0.0449
   18loPI   GL1  277   8.460  12.868  10.493 -0.0527 -0.1087 -0.0982
   18loPI   GL2  278   8.130  12.957  10.530 -0.0956 -0.0882  0.2655
   18loPI   C1A  279   8.502  12.713  10.112  0.1801  0.1723 -0.2203
   18loPI   C2A  280   8.408  12.787   9.734  0.0004  0.0739 -0.0870
   18loPI   C3A  281   8.394  12.547   9.435  0.1245 -0.1697 -0.1489
   18loPI   C4A  282   8.271  12.548   9.002 -0.1746  0.2844 -0.0166
   18loPI   C5A  283   8.121  12.622   8.599 -0.0253  0.3128  0.0727
   18loPI   C6A  284   7.936  12.982   8.525  0.0541  0.3197  0.1159
   18loPI   C1B  285   8.062  12.971  10.143 -0.0938 -0.2297  0.1988
   18loPI   C2B  286   7.931  12.903   9.773 -0.2845 -0.3882  0.1293
   18loPI   C3B  287   7.972  12.917   9.408  0.0220 -0.4515  0.2266
   18loPI   C4B  288   8.095  13.017   9.018 -0.1126 -0.1613 -0.3767
   19loPI    C1  289  12.800   9.923  11.363 -0.0845 -0.1694 -0.0125
   19loPI    C2  290  12.486   9.835  11.594  0.1760 -0.2021  0.3371
   19loPI    C3  291  12.822   9.976  11.759  0.2725  0.0430 -0.0565
   19loPI   PO4  292  12.822   9.792  11.071  0.0641 -0.1355  0.1234
   19loPI   GL1  293  12.760   9.968  10.715  0.4496  0.0098 -0.0615
   19loPI   GL2  294  12.515   9.772  10.673 -0.1514  0.0710  0.0088
   19loPI   C1A  295  12.679   9.983  10.256  0.1273  0.1756  0.2136
   19loPI   C2A  296  12.647   9.880   9.819 -0.0753  0.0635 -0.0045
   19loPI   C3A  297  12.706   9.739   9.379  0.0243  0.3450  0.0533
   19loPI   C4A  298  12.708   9.888   8.900 -0.0659 -0.0258  0.0166
   19loPI   C5A  299  12.624   9.999   8.553  0.0094  0.0577 -0.0267
   19loPI   C6A  300  12.112  10.116   8.521  0.3056 -0.1201 -0.1952
   19loPI   C1B  301  12.565   9.533  10.363  0.2288 -0.1747  0.0110
   19loPI   C2B  302  12.520   9.425  10.053  0.0019 -0.0091 -0.3134
   19loPI   C3B  303  12.645   9.316   9.747  0.1431  0.0438  0.0131
   19loPI   C4B  304  12.631   9.194   9.263 -0.0248 -0.1157 -0.0083
   20loPI    C1  305  13.538   1.788  11.710  0.0105 -0.1540 -0.1399
   20loPI    C2  306  13.927   1.883  11.701 -0.0217  0.0171  0.1528
   20loPI    C3  307  13.661   2.113  11.511  0.0077 -0.0425  0.0384
   20loPI   PO4  308  13.454   1.513  11.614  0.2631  0.2003  0.1363
   20loPI   GL1  309  13.359   1.454  11.181  0.2846  0.1244 -0.0199
   20loPI   GL2  310  13.146   1.205  11.092 -0.2217 -0.0732  0.0208
   20loPI   C1A  311  13.620   1.511  10.895 -0.0474  0.2644  0.2372
   20loPI   C2A  312  13.626   1.514  10.443 -0.1891  0.0272 -0.1548
   20loPI   C3A  313  13.637   1.470  10.000  0.1694 -0.2032 -0.1313
   20loPI   C4A  314  13.657   1.465   9.623  0.1193 -0.1297 -0.1221
   20loPI   C5A  315  13.726   1.429   9.231  0.2415  0.0479 -0.0330
   20loPI   C6A  316  13.878   1.081   8.921  0.1258  0.1407  0.1409
   20loPI   C1B  317  13.136   1.317  10.717  0.0925 -0.0083  0.1602
   20loPI   C2B  318  13.146   1.358  10.241  0.1770 -0.1666  0.1520
   20loPI   C3B  319  13.177   1.296   9.913 -0.0298  0.1054  0.0354
   20loPI   C4B  320  13.172   1.293   9.377 -0.1452  0.1571 -0.0903
   21loPI    C1  321   8.921   2.569  11.551 -0.1033 -0.4460  0.0419
   21loPI    C2  322   9.164   2.529  11.866 -0.0751  0.0349  0.0885
   21loPI    C3  323   8.769   2.555  11.921 -0.0866 -0.0882  0.0662
   21loPI   PO4  324   9.127   2.486  11.330 -0.0300 -0.0622 -0.0499
   21loPI   GL1  325   9.242   2.746  11.024 -0.0072  0.0614  0.4068
   21loPI   GL2  326   8.951   2.940  11.042 -0.0423 -0.0103 -0.1867
   21loPI   C1A  327   9.248   2.699  10.626  0.0850  0.1857 -0.2658
   21loPI   C2A  328   9.183   2.602  10.088 -0.1403 -0.0515 -0.2522
   21loPI   C3A  329   9.159   2.730   9.712 -0.2872  0.1213  0.0947
   21loPI   C4A  330   9.108   2.838   9.307  0.1410  0.0466 -0.0404
   21loPI   C5A  331   8.873   2.912   8.960 -0.2233 -0.1352 -0.2594
   21loPI   C6A  332   8.715   2.983   8.496  0.3015 -0.0408  0.0294
   21loPI   C1B  333   8.771   2.902  10.624 -0.2863 -0.0115 -0.1722
   21loPI   C2B  334   8.784   2.878  10.264 -0.2173  0.0318 -0.0412
   21loPI   C3B  335   8.804   3.082   9.848 -0.0816  0.2658 -0.2439
   21loPI   C4B  336   8.736   3.103   9.399  0.0201 -0.2104 -0.0223
   22loPI    C1  337   0.421  14.948  11.465  0.0603 -0.1718 -0.1461
   22loPI    C2  338   0.316  15.143  11.797  0.2696 -0.1018 -0.1197
   22loPI    C3  339   0.161  14.783  11.720 -0.0923  0.0561 -0.1511
   22loPI   PO4  340   0.425  15.098  11.268 -0.0601  0.0544  0.0485
   22loPI   GL1  341   0.565  15.352  10.887 -0.0175  0.1469 -0.3508
   22loPI   GL2  342   0.483  15.768  10.866 -0.1696  0.0745 -0.0878
   22loPI   C1A  343   0.469  15.332  10.546 -0.1243  0.0979 -0.0821
   22loPI   C2A  344   0.504  15.250  10.124  0.3199  0.1715 -0.1719
   22loPI   C3A  345   0.548  15.523   9.834 -0.1695 -0.1336  0.0217
   22loPI   C4A  346   0.722  15.358   9.402  0.0311  0.0192  0.0051
   22loPI   C5A  347   0.727  15.249   8.928  0.1967 -0.0957 -0.2338
   22loPI   C6A  348   0.739  14.785   8.665  0.0072  0.5171  0.2004
   22loPI   C1B  349   0.599  15.826  10.452 -0.0230 -0.0671 -0.0119
   22loPI   C2B  350   0.666  15.971  10.032 -0.1134  0.1290  0.0710
   22loPI   C3B  351   0.799  15.941   9.584  0.1128 -0.1943  0.4471
   22loPI   C4B  352   0.742  15.781   9.168  0.1820 -0.0590 -0.0714
   23loPI    C1  353   9.168   3.942  12.032  0.0514 -0.2410 -0.0621
   23loPI    C2  354   9.513   4.026  12.216  0.0245 -0.0718 -0.0872
   23loPI    C3  355   9.239   3.800  12.399  0.0219  0.0476  0.0585
   23loPI   PO4  356   9.235   4.019  11.776 -0.2390 -0.0060 -0.1290
   23loPI   GL1  357   9.176   4.040  11.209 -0.0145 -0.4236  0.1140
   23loPI   GL2  358   8.820   4.049  11.093  0.0515 -0.0313  0.2726
   23loPI   C1A  359   9.498   4.159  10.859 -0.2697  0.0389 -0.0968
   23loPI   C2A  360   9.423   4.289  10.379 -0.0629 -0.0484  0.1266
   23loPI   C3A  361   9.419   4.193   9.876  0.0563  0.3792  0.2841
   23loPI   C4A  362   9.341   4.239   9.463 -0.0199 -0.2453  0.0306
   23loPI   C5A  363   9.036   4.219   9.039  0.0026  0.1010 -0.0755
   23loPI   C6A  364   8.985   4.361   8.570 -0.1315 -0.2824 -0.1214
   23loPI   C1B  365   8.994   4.005  10.704 -0.3106  0.2934  0.3769
   23loPI   C2B  366   8.964   4.040  10.236  0.0633 -0.0281 -0.1200
   23loPI   C3B  367   8.940   4.020   9.909  0.0512 -0.2444 -0.3511
   23loPI   C4B  368   8.855   3.975   9.487  0.0795  0.0796  0.2750
   24loPI    C1  369   6.274   5.852  11.309  0.0342  0.0513  0.0805
   24loPI    C2  370   5.966   6.050  11.473  0.0759  0.2054 -0.0256
   24loPI    C3  371   6.339   6.114  11.604  0.0568 -0.0362  0.1537
   24loPI   PO4  372   6.201   5.874  11.085 -0.0582 -0.1156  0.0557
   24loPI   GL1  373   6.123   5.637  10.821 -0.2134 -0.4846 -0.2480
   24loPI   GL2  374   5.833   5.819  10.585  0.0174 -0.0333  0.4006
   24loPI   C1A  375   6.240   5.488  10.471 -0.3545  0.2544  0.0396
   24loPI   C2A  376   6.288   5.436  10.069  0.0455 -0.1094  0.1156
   24loPI   C3A  377   6.466   5.522   9.579 -0.1749 -0.1446  0.0079
   24loPI   C4A  378   6.469   5.537   9.177 -0.2236 -0.5764  0.3737
   24loPI   C5A  379   6.604   5.644   8.835 -0.0679 -0.0163  0.1939
   24loPI   C6A  380   6.895   5.874   8.666 -0.0328 -0.1469  0.0767
   24loPI   C1B  381   5.886   5.790  10.098  0.2257  0.2471 -0.0664
   24loPI   C2B  382   5.949   5.835   9.647 -0.0854  0.2659 -0.0296
   24loPI   C3B  383   6.065   5.817   9.269 -0.0571  0.0569  0.1657
   24loPI   C4B  384   6.156   5.862   8.911 -0.1814 -0.3188 -0.3368
   25loPI    C1  385  11.188   8.641  11.806  0.1490 -0.1667  0.0824
   25loPI    C2  386  11.002   8.551  12.148 -0.0766 -0.0864 -0.0167
   25loPI    C3  387  11.333   8.353  12.042 -0.0554 -0.1723  0.2039
   25loPI   PO4  388  11.133   8.589  11.621 -0.1698 -0.2122 -0.0776
   25loPI   GL1  389  11.111   8.771  11.269  0.1923  0.2110  0.0048
   25loPI   GL2  390  11.041   8.537  11.070  0.1780 -0.4046  0.0290
   25loPI   C1A  391  11.183   8.950  10.736  0.3540  0.0512 -0.0072
   25loPI   C2A  392  11.016   8.900  10.312  0.1320 -0.3916  0.0205
   25loPI   C3A  393  11.153   8.843   9.953  0.1887  0.3003  0.1705
   25loPI   C4A  394  11.156   8.734   9.462 -0.0131  0.1382 -0.0108
   25loPI   C5A  395  11.072   8.766   8.988  0.0495  0.1258  0.0390
   25loPI   C6A  396  10.616   8.660   8.781 -0.0932 -0.2109  0.2738
   25loPI   C1B  397  10.968   8.401  10.621 -0.0329 -0.3080 -0.3182
   25loPI   C2B  398  10.931   8.343  10.256  0.0746 -0.2213 -0.0187
   25loPI   C3B  399  10.997   8.377   9.851 -0.0101  0.1352  0.0497
   25loPI   C4B  400  10.936   8.210   9.479 -0.3097  0.2065 -0.1308
   26loPI    C1  401   5.326  15.687  11.709  0.1041  0.2733 -0.2003
   26loPI    C2  402   5.028  15.927  11.825 -0.0400  0.1879 -0.3898
   26loPI    C3  403   5.071  15.567  11.993  0.0909  0.2882 -0.2057
   26loPI   PO4  404   5.233  15.634  11.424  0.0045 -0.0215  0.1501
   26loPI   GL1  405   5.453  15.617  11.136 -0.0223  0.1708  0.0126
   26loPI   GL2  406   5.477  15.877  10.990  0.1469 -0.1996 -0.1649
   26loPI   C1A  407   5.338  15.253  10.762  0.3138  0.2673  0.3151
   26loPI   C2A  408   5.305  15.150  10.290 -0.1710  0.0224  0.3121
   26loPI   C3A  409   5.227  15.109   9.893 -0.1066 -0.0922 -0.0738
   26loPI   C4A  410   5.157  15.362   9.615 -0.0426 -0.1196  0.2632
   26loPI   C5A  411   5.103  15.366   9.098  0.0175 -0.1753  0.0607
   26loPI   C6A  412   5.128  14.961   8.810  0.2239  0.0047  0.0401
   26loPI   C1B  413   5.327  15.784  10.598  0.3023  0.0009  0.1850
   26loPI   C2B  414   5.307  15.682  10.104  0.1313 -0.4772 -0.3538
   26loPI   C3B  415   5.206  15.844   9.806 -0.0096  0.1071 -0.0412
   26loPI   C4B  416   5.215  15.892   9.432 -0.0790 -0.0093 -0.0236
   27loPI    C1  417   6.295   8.613  11.492  0.0160  0.0259  0.0430
   27loPI    C2  418   6.206   8.806  11.831 -0.1620  0.0448 -0.0138
   27loPI    C3  419   6.488   8.522  11.831  0.1034  0.3042  0.0700
   27loPI   PO4  420   6.355   8.722  11.291 -0.2868 -0.1910 -0.1243
   27loPI   GL1  421   6.316   8.914  10.880  0.1013 -0.1770  0.0516
   27loPI   GL2  422   6.216   8.591  10.792 -0.2470  0.0358 -0.1808
   27loPI   C1A  423   6.535   8.898  10.419 -0.0521  0.4651 -0.2903
   27loPI   C2A  424   6.633   9.004   9.897 -0.1711  0.0408  0.0553
   27loPI   C3A  425   6.500   8.867   9.468 -0.2990 -0.1888 -0.0864
   27loPI   C4A  426   6.360   9.040   9.016 -0.1572  0.1522  0.0401
   27loPI   C5A  427   6.475   9.209   8.575  0.3224 -0.1745 -0.0308
   27loPI   C6A  428   6.523   9.212   8.177 -0.0629 -0.2431  0.0647
   27loPI   C1B  429   6.387   8.344  10.495 -0.1356 -0.0145 -0.2321
   27loPI   C2B  430   6.516   8.474  10.138 -0.0430 -0.1480 -0.0256
   27loPI   C3B  431   6.448   8.397   9.681 -0.2418  0.0424 -0.1749
   27loPI   C4B  432   6.402   8.422   9.202  0.2977 -0.0349 -0.0695
   28loPI    C1  433   3.573   3.832  11.635 -0.0076  0.0133  0.0149
   28loPI    C2  434   3.577   4.192  11.461 -0.1634 -0.1189 -0.2694
   28loPI    C3  435   3.567   4.163  11.859 -0.1841  0.1906 -0.2449
   28loPI   PO4  436   3.697   3.712  11.499  0.0587  0.1404  0.0748
   28loPI   GL1  437   3.762   3.620  11.060  0.0083  0.1259 -0.2458
   28loPI   GL2  438   3.742   3.295  10.894 -0.0879  0.0989  0.0796
   28loPI   C1A  439   4.226   3.669  10.786  0.0571 -0.1807 -0.1217
   28loPI   C2A  440   4.285   3.664  10.306  0.0381  0.1134 -0.2568
   28loPI   C3A  441   4.152   3.583   9.908 -0.4113 -0.3365 -0.1618
   28loPI   C4A  442   4.180   3.595   9.460 -0.1506 -0.3449 -0.0520
   28loPI   C5A  443   4.202   3.556   9.108  0.2353 -0.2277  0.1859
   28loPI   C6A  444   4.232   3.672   8.658  0.0119  0.0844  0.3116
   28loPI   C1B  445   3.838   3.474  10.487  0.2728 -0.2843 -0.0043
   28loPI   C2B  446   3.723   3.460  10.024 -0.1403 -0.1409  0.1167
   28loPI   C3B  447   3.676   3.457   9.614 -0.2614  0.1551  0.4406
   28loPI   C4B  448   3.697   3.474   9.183 -0.2251  0.3515 -0.1693
   29loPI    C1  449   4.522  12.910  11.736  0.0502 -0.1437  0.2496
   29loPI    C2  450   4.462  12.662  11.429 -0.1453  0.1308  0.0601
   29loPI    C3  451   4.212  12.658  11.741 -0.1221  0.0603  0.0780
   29loPI   PO4  452   4.578  13.176  11.605  0.3146 -0.0202 -0.2232
   29loPI   GL1  453   4.734  13.174  11.175  0.0166  0.0043 -0.3338
   29loPI   GL2  454   4.561  13.009  11.090  0.0722  0.2133 -0.4483
   29loPI   C1A  455   4.540  13.466  10.759  0.0251 -0.0499 -0.0058
   29loPI   C2A  456   4.483  13.571  10.271  0.3809 -0.0877 -0.0035
   29loPI   C3A  457   4.428  13.561   9.823 -0.1094  0.2294 -0.0152
   29loPI   C4A  458   4.391  13.632   9.352  0.1627  0.1282  0.0750
   29loPI   C5A  459   4.165  13.876   9.096  0.1936  0.3690  0.0190
   29loPI   C6A  460   3.987  14.256   8.937  0.3101 -0.0683  0.0337
   29loPI   C1B  461   4.363  12.931  10.679  0.0945  0.1481  0.1830
   29loPI   C2B  462   4.324  12.948  10.317 -0.1828 -0.0262 -0.0339
   29loPI   C3B  463   4.274  13.064   9.887  0.1040  0.1231 -0.0251
   29loPI   C4B  464   4.349  13.086   9.475  0.2085  0.0931 -0.0377
   30loPI    C1  465   4.766   2.067  11.587 -0.1527  0.1369  0.0681
   30loPI    C2  466   4.705   1.815  11.892  0.1327 -0.1736 -0.1238
   30loPI    C3  467   4.565   2.190  11.910  0.0583 -0.2182  0.3414
   30loPI   PO4  468   4.646   1.904  11.328 -0.0429 -0.1003  0.0837
   30loPI   GL1  469   4.524   1.828  10.897  0.0020  0.1727  0.2149
   30loPI   GL2  470   4.489   1.517  10.886  0.2738 -0.1944  0.1624
   30loPI   C1A  471   4.412   1.854  10.430 -0.1230 -0.0743  0.4117
   30loPI   C2A  472   4.447   1.783   9.925 -0.0550 -0.0420  0.1784
   30loPI   C3A  473   4.512   1.754   9.465  0.0584  0.0958  0.0026
   30loPI   C4A  474   4.446   1.738   8.958 -0.2197  0.1282 -0.1815
   30loPI   C5A  475   4.468   1.783   8.492  0.1696  0.2731  0.2212
   30loPI   C6A  476   4.903   1.828   8.194  0.3318  0.0743  0.2494
   30loPI   C1B  477   4.366   1.184  10.604 -0.0565 -0.0772  0.0958
   30loPI   C2B  478   4.332   1.251  10.096 -0.0731  0.3829  0.0417
   30loPI   C3B  479   4.346   1.249   9.647 -0.3642  0.0385 -0.0984
   30loPI   C4B  480   4.402   1.254   9.184 -0.2677  0.1051  0.1178
   31loPI    C1  481  11.248   7.313  11.501 -0.1923  0.1358 -0.0017
   31loPI    C2  482  11.565   7.416  11.723 -0.1303  0.1171 -0.0812
   31loPI    C3  483  11.198   7.530  11.834 -0.1165 -0.0237  0.1152
   31loPI   PO4  484  11.248   7.247  11.223  0.1642 -0.1156  0.1047
   31loPI   GL1  485  10.947   7.426  10.958 -0.0391 -0.1228 -0.2328
   31loPI   GL2  486  10.672   7.307  10.783 -0.0871  0.1712  0.0902
   31loPI   C1A  487  11.260   7.492  10.588 -0.0808 -0.0345 -0.4445
   31loPI   C2A  488  11.307   7.525  10.143  0.1293 -0.0168 -0.1677
   31loPI   C3A  489  11.297   7.328   9.665 -0.0511 -0.0600  0.0684
   31loPI   C4A  490  11.323   7.409   9.236  0.0947  0.0973 -0.1825
   31loPI   C5A  491  11.236   7.339   8.723 -0.2741  0.2304 -0.0709
   31loPI   C6A  492  10.921   7.412   8.378  0.0464 -0.2097  0.0591
   31loPI   C1B  493  10.927   7.220  10.385 -0.3533  0.1751 -0.0288
   31loPI   C2B  494  10.909   7.121  10.018  0.0667 -0.3727 -0.1896
   31loPI   C3B  495  10.802   7.269   9.633  0.0473  0.0053  0.0057
   31loPI   C4B  496  10.813   7.195   9.256  0.0650  0.0309  0.1691
   32loPI    C1  497  16.417  14.847  11.380 -0.0234  0.2837 -0.0790
   32loPI    C2  498  16.524  15.188  11.560  0.0009  0.1390  0.1862
   32loPI    C3  499  16.403  14.876  11.779 -0.0697 -0.0072 -0.0573
   32loPI   PO4  500  16.339  14.903  11.112  0.3801 -0.2121 -0.1858
   32loPI   GL1  501  16.458  15.180  10.819 -0.1652  0.0401  0.1378
   32loPI   GL2  502  16.667  15.357  10.663 -0.1492  0.1037  0.0257
   32loPI   C1A  503  16.356  15.087  10.360  0.0411  0.0762 -0.2625
   32loPI   C2A  504  16.185  15.172   9.990  0.1736 -0.0069  0.1874
   32loPI   C3A  505  16.222  15.283   9.575  0.1222  0.3087 -0.1606
   32loPI   C4A  506  16.240  15.256   9.059  0.1155 -0.2053 -0.2017
   32loPI   C5A  507  16.523  15.292   8.733  0.2126 -0.0738 -0.2812
   32loPI   C6A  508  16.725  15.409   8.439 -0.3474  0.1322 -0.0938
   32loPI   C1B  509  16.708  15.409  10.215  0.3145  0.2487 -0.0992
   32loPI   C2B  510  16.644  15.308   9.882 -0.0607  0.2184  0.0967
   32loPI   C3B  511  16.737  15.424   9.389  0.2299  0.3042  0.1528
   32loPI   C4B  512  16.953  15.320   9.050 -0.1528  0.1711  0.0837
   33loPI    C1  513   9.349  13.201  11.245 -0.2146 -0.2805 -0.1876
   33loPI    C2  514   9.648  12.995  11.413 -0.1025  0.0021 -0.0325
   33loPI    C3  515   9.268  12.904  11.501 -0.0474  0.0644  0.2791
   33loPI   PO4  516   9.541  13.295  11.064  0.2041 -0.0843  0.1339
   33loPI   GL1  517   9.525  13.133  10.606  0.1796  0.3667  0.1133
   33loPI   GL2  518   9.346  13.392  10.539  0.1228  0.1838  0.0032
   33loPI   C1A  519   9.422  12.989  10.278 -0.0275 -0.0434 -0.0430
   33loPI   C2A  520   9.562  12.929   9.846 -0.2606  0.1553  0.1148
   33loPI   C3A  521   9.712  12.993   9.491 -0.0708 -0.0933  0.0224
   33loPI   C4A  522   9.824  13.241   9.101  0.0614 -0.1222 -0.1003
   33loPI   C5A  523   9.676  13.634   8.770  0.1214  0.1858 -0.0836
   33loPI   C6A  524   9.509  13.992   8.832 -0.1229 -0.3537 -0.2895
   33loPI   C1B  525   9.136  13.306  10.097 -0.2138 -0.3436  0.1687
   33loPI   C2B  526   8.873  13.462   9.782  0.0291  0.1581  0.2975
   33loPI   C3B  527   8.908  13.398   9.265  0.3291 -0.4542 -0.0317
   33loPI   C4B  528   8.789  13.435   8.818  0.3067  0.0285  0.1086
   34loPI    C1  529  10.343  16.887  11.521  0.1167 -0.1874  0.0300
   34loPI    C2  530  10.672  16.912  11.747  0.1575  0.0373 -0.0520
   34loPI    C3  531  10.317  16.848  11.919  0.2281 -0.0968  0.0466
   34loPI   PO4  532  10.403  17.011  11.297  0.4464  0.0561 -0.1798
   34loPI   GL1  533  10.394  17.212  10.901  0.0672 -0.1236 -0.2041
   34loPI   GL2  534  10.575  17.077  10.806 -0.0305 -0.0701 -0.0327
   34loPI   C1A  535  10.241  17.195  10.499  0.0026 -0.0824  0.0641
   34loPI   C2A  536  10.168  17.141  10.055 -0.3865 -0.3182 -0.1624
   34loPI   C3A  537  10.149  17.235   9.647 -0.0695 -0.3120  0.1108
   34loPI   C4A  538  10.036  17.113   9.156  0.1858 -0.0317  0.2401
   34loPI   C5A  539  10.218  17.004   8.696 -0.1552 -0.0311  0.2215
   34loPI   C6A  540  10.387  16.594   8.577 -0.1811 -0.1949  0.0804
   34loPI   C1B  541  10.730  17.318  10.482 -0.0372  0.1076 -0.2770
   34loPI   C2B  542  10.677  17.359  10.127  0.1663  0.4390 -0.1246
   34loPI   C3B  543  10.676  17.426   9.722  0.0815 -0.1494 -0.1579
   34loPI   C4B  544  10.471  17.320   9.284 -0.3055 -0.2965 -0.1999
   35loPI    C1  545  11.219  14.186  10.900  0.1786  0.0250  0.2411
   35loPI    C2  546  10.956  14.298  11.180 -0.1140  0.0140 -0.0226
   35loPI    C3  547  10.834  14.079  10.868  0.2664 -0.2306 -0.0066
   35loPI   PO4  548  11.487  14.069  10.968  0.2057 -0.0671 -0.1344
   35loPI   GL1  549  11.699  13.999  10.680  0.0108 -0.1164  0.1107
   35loPI   GL2  550  11.640  14.227  10.520  0.0787  0.1518 -0.0169
   35loPI   C1A  551  11.562  13.785  10.283 -0.2226  0.0481  0.2504
   35loPI   C2A  552  11.324  13.517  10.142  0.0816 -0.1286  0.0179
   35loPI   C3A  553  11.388  13.363   9.696  0.2953 -0.0249 -0.0888
   35loPI   C4A  554  11.584  13.516   9.351 -0.2272 -0.2161 -0.0922
   35loPI   C5A  555  11.396  13.906   9.159  0.1501 -0.1307 -0.0107
   35loPI   C6A  556  11.061  14.104   8.951 -0.1490 -0.1442 -0.0364
   35loPI   C1B  557  11.388  14.279  10.140 -0.1619 -0.2349 -0.1981
   35loPI   C2B  558  11.394  14.355   9.778  0.0314 -0.0277  0.2726
   35loPI   C3B  559  11.662  14.211   9.515 -0.0179 -0.1565  0.0876
   35loPI   C4B  560  11.893  13.898   9.387 -0.1255  0.1347 -0.0141
   36loPI    C1  561   0.547   6.461  11.551 -0.0777 -0.0658 -0.0173
   36loPI    C2  562   0.200   6.328  11.699 -0.0847 -0.1549 -0.1129
   36loPI    C3  563   0.543   6.154  11.807 -0.0505  0.0613  0.1374
   36loPI   PO4  564   0.517   6.425  11.314 -0.1628 -0.0641  0.5832
   36loPI   GL1  565   0.476   6.383  10.888 -0.2433  0.0939 -0.0301
   36loPI   GL2  566   0.652   6.109  10.945 -0.0479  0.0590 -0.1979
   36loPI   C1A  567   0.237   6.470  10.457 -0.2868  0.1807 -0.0684
   36loPI   C2A  568   0.230   6.414   9.985  0.0331  0.0889  0.3496
   36loPI   C3A  569   0.079   6.390   9.583  0.1406  0.2437  0.2395
   36loPI   C4A  570   0.055   6.469   9.186 -0.0694  0.0883 -0.2152
   36loPI   C5A  571  -0.026   6.706   8.908 -0.0076 -0.2063 -0.3311
   36loPI   C6A  572  -0.218   6.913   8.677 -0.2632  0.0966 -0.3793
   36loPI   C1B  573   0.582   6.027  10.481 -0.0158  0.2293  0.3382
   36loPI   C2B  574   0.499   5.959  10.051 -0.0797 -0.2455  0.3210
   36loPI   C3B  575   0.488   6.091   9.606 -0.0137 -0.0543  0.0669
   36loPI   C4B  576   0.382   6.127   9.208  0.0645  0.0542  0.2589
   37loPI    C1  577   1.110   9.508  11.413  0.1854 -0.0388 -0.0380
   37loPI    C2  578   0.837   9.475  11.703 -0.0584 -0.1938 -0.2811
   37loPI    C3  579   1.173   9.681  11.769  0.0972 -0.5948  0.2594
   37loPI   PO4  580   0.932   9.593  11.112 -0.0768  0.1699  0.0871
   37loPI   GL1  581   1.116   9.471  10.753 -0.1493 -0.1332  0.0355
   37loPI   GL2  582   1.506   9.568  10.631  0.2786 -0.0747  0.1973
   37loPI   C1A  583   1.058   9.420  10.401  0.0100  0.0088 -0.1126
   37loPI   C2A  584   0.942   9.329   9.934 -0.1832 -0.0569 -0.3351
   37loPI   C3A  585   0.949   9.174   9.533 -0.2010  0.1357 -0.2704
   37loPI   C4A  586   0.985   9.163   9.095  0.0739 -0.1805  0.1439
   37loPI   C5A  587   1.006   9.100   8.708 -0.0293  0.2499  0.7837
   37loPI   C6A  588   0.844   9.106   8.257  0.0248 -0.3526 -0.4513
   37loPI   C1B  589   1.466   9.523  10.096  0.3014  0.0952 -0.0746
   37loPI   C2B  590   1.471   9.432   9.597 -0.2558  0.0687  0.1446
   37loPI   C3B  591   1.592   9.328   9.184 -0.0676 -0.0912 -0.0632
   37loPI   C4B  592   1.601   9.133   8.748 -0.0718 -0.0753  0.0348
   38loPI    C1  593  14.891   2.248  11.811  0.0091  0.0450  0.1733
   38loPI    C2  594  15.284   2.322  11.812 -0.0282  0.2654 -0.1160
   38loPI    C3  595  15.075   2.349  12.152  0.2447 -0.0834  0.0862
   38loPI   PO4  596  14.814   2.341  11.603 -0.0029 -0.3887  0.0064
   38loPI   GL1  597  14.713   2.308  11.219  0.3830 -0.2309 -0.2775
   38loPI   GL2  598  14.815   2.459  11.003  0.2253  0.2859 -0.1366
   38loPI   C1A  599  14.636   1.913  10.892 -0.4093  0.0151 -0.3231
   38loPI   C2A  600  14.644   1.894  10.476  0.1073  0.0626  0.0548
   38loPI   C3A  601  14.612   1.886   9.993 -0.1499  0.0549 -0.1955
   38loPI   C4A  602  14.599   1.780   9.558  0.1467  0.0096  0.2432
   38loPI   C5A  603  14.619   1.841   9.142 -0.1995  0.1304  0.0029
   38loPI   C6A  604  14.793   1.652   8.706  0.2812  0.2555  0.0600
   38loPI   C1B  605  14.739   2.412  10.588 -0.0416  0.0281  0.0700
   38loPI   C2B  606  14.779   2.338  10.240 -0.0943  0.2935  0.1470
   38loPI   C3B  607  14.733   2.313   9.796  0.1162  0.2132 -0.1702
   38loPI   C4B  608  14.695   2.280   9.388 -0.1519  0.2583 -0.0402
   39loPI    C1  609  15.186  10.861  11.336  0.2135  0.0416  0.0086
   39loPI    C2  610  15.094  10.860  11.725  0.2865 -0.1779  0.0261
   39loPI    C3  611  15.063  10.523  11.511 -0.2302  0.0496 -0.2741
   39loPI   PO4  612  15.331  11.044  11.267  0.0282  0.0500  0.2252
   39loPI   GL1  613  15.337  11.028  10.772 -0.0027  0.0050 -0.1479
   39loPI   GL2  614  15.314  11.311  10.826  0.0382  0.1787  0.0140
   39loPI   C1A  615  15.660  11.162  10.398  0.5449 -0.2372  0.2338
   39loPI   C2A  616  15.693  11.175   9.915  0.0326 -0.1300 -0.2184
   39loPI   C3A  617  15.779  11.293   9.533 -0.0036 -0.1705  0.0475
   39loPI   C4A  618  15.851  11.331   9.114  0.1101  0.1679  0.0738
   39loPI   C5A  619  15.815  11.282   8.716  0.1583 -0.1133 -0.0562
   39loPI   C6A  620  16.081  10.941   8.413  0.0907 -0.3130  0.0389
   39loPI   C1B  621  15.239  11.395  10.382  0.1796 -0.0376  0.3148
   39loPI   C2B  622  15.084  11.558   9.930  0.1169 -0.1457  0.0707
   39loPI   C3B  623  15.103  11.950   9.867 -0.3415  0.2430 -0.0543
   39loPI   C4B  624  15.193  12.412   9.968 -0.2832 -0.0899  0.0107
   40loPI    C1  625   5.563  10.557  11.247 -0.2726  0.1342  0.2037
   40loPI    C2  626   5.490  10.185  11.118  0.2772  0.1540 -0.1993
   40loPI    C3  627   5.643  10.244  11.483 -0.3134  0.0292  0.0799
   40loPI   PO4  628   5.351  10.687  11.149  0.1119  0.0365 -0.0531
   40loPI   GL1  629   5.162  10.511  10.841 -0.0416  0.0165  0.1623
   40loPI   GL2  630   4.934  10.824  10.887 -0.1418  0.1451  0.0892
   40loPI   C1A  631   4.856  10.359  10.469 -0.1145  0.0441  0.1838
   40loPI   C2A  632   4.815  10.221  10.065 -0.0690  0.1006  0.3383
   40loPI   C3A  633   4.787  10.332   9.666  0.0167  0.1348  0.3785
   40loPI   C4A  634   4.851  10.409   9.189  0.0427 -0.2287 -0.4677
   40loPI   C5A  635   4.666  10.626   8.845 -0.1248  0.0565  0.0683
   40loPI   C6A  636   4.495  10.930   8.504 -0.1204 -0.0991  0.1991
   40loPI   C1B  637   4.831  10.867  10.431  0.2696  0.2216 -0.0995
   40loPI   C2B  638   4.899  10.783   9.995  0.1642  0.2061 -0.1562
   40loPI   C3B  639   4.853  10.826   9.492 -0.2447  0.1113  0.0369
   40loPI   C4B  640   4.935  10.926   9.058  0.0926  0.2225  0.1991
   41loPI    C1  641  13.485  10.492  11.209  0.2548 -0.0608 -0.2072
   41loPI    C2  642  13.565  10.808  11.441  0.0491  0.0388 -0.2690
   41loPI    C3  643  13.849  10.535  11.370  0.0578 -0.1024  0.2654
   41loPI   PO4  644  13.342  10.660  11.027  0.2040  0.1126 -0.0165
   41loPI   GL1  645  13.398  10.730  10.591 -0.1106 -0.2442  0.0250
   41loPI   GL2  646  13.188  10.985  10.369  0.3408  0.2154  0.2527
   41loPI   C1A  647  13.402  10.514  10.255 -0.1761 -0.0334  0.0151
   41loPI   C2A  648  13.689  10.235   9.883  0.0433 -0.0594 -0.0839
   41loPI   C3A  649  13.730  10.221   9.513  0.4884 -0.1991 -0.1929
   41loPI   C4A  650  13.703   9.975   9.139  0.0962 -0.1432 -0.1434
   41loPI   C5A  651  13.958   9.665   8.962 -0.2092  0.0470  0.0068
   41loPI   C6A  652  14.276   9.460   8.660 -0.0938  0.1460  0.0999
   41loPI   C1B  653  13.230  10.861   9.931  0.0526  0.0403  0.0125
   41loPI   C2B  654  13.307  10.511   9.683 -0.1450 -0.1525 -0.3082
   41loPI   C3B  655  13.375  10.378   9.252  0.2606  0.0143 -0.1762
   41loPI   C4B  656  13.499  10.352   8.917 -0.0942 -0.0054 -0.3342
   42loPI    C1  657   9.196   6.019  11.553  0.0040 -0.0655  0.1119
   42loPI    C2  658   8.866   5.930  11.761  0.0119  0.1589  0.2233
   42loPI    C3  659   9.161   6.139  11.932  0.2122 -0.0375  0.1235
   42loPI   PO4  660   9.290   5.834  11.406  0.2403  0.0397  0.1214
   42loPI   GL1  661   9.424   5.879  11.034 -0.2253  0.0299  0.3379
   42loPI   GL2  662   9.162   6.094  10.996 -0.0224  0.0487  0.1740
   42loPI   C1A  663   9.624   5.858  10.646  0.1104 -0.6578  0.0163
   42loPI   C2A  664   9.708   5.763  10.192  0.1988  0.1816  0.2329
   42loPI   C3A  665   9.670   5.786   9.799 -0.2355  0.0875 -0.1273
   42loPI   C4A  666   9.701   5.835   9.399 -0.0612  0.0004  0.1666
   42loPI   C5A  667   9.596   5.902   9.061 -0.1808  0.0221 -0.5231
   42loPI   C6A  668   9.402   5.800   8.617  0.1965 -0.0708  0.3381
   42loPI   C1B  669   9.204   6.119  10.584 -0.4711  0.1165  0.1549
   42loPI   C2B  670   9.233   6.049  10.172 -0.1000 -0.0365 -0.0503
   42loPI   C3B  671   9.293   6.097   9.745  0.1470  0.2321 -0.0308
   42loPI   C4B  672   9.268   6.157   9.300  0.0961 -0.1879  0.1714
   43loPI    C1  673  12.354  16.790  11.892  0.1134 -0.2257 -0.0597
   43loPI    C2  674  12.081  17.071  11.809 -0.0991 -0.3846  0.0906
   43loPI    C3  675  12.248  17.055  12.172  0.1308 -0.2738 -0.0076
   43loPI   PO4  676  12.332  16.632  11.612 -0.1277  0.1107 -0.0153
   43loPI   GL1  677  12.171  16.681  11.157 -0.1636  0.1471 -0.0519
   43loPI   GL2  678  11.834  16.601  11.001 -0.0598  0.0213  0.0694
   43loPI   C1A  679  12.394  16.961  10.869  0.1219  0.0708 -0.0741
   43loPI   C2A  680  12.403  17.092  10.354  0.3528 -0.2939 -0.4131
   43loPI   C3A  681  12.376  17.105   9.946 -0.1472 -0.3183 -0.0769
   43loPI   C4A  682  12.383  17.035   9.553 -0.0114 -0.0776 -0.0380
   43loPI   C5A  683  12.398  17.161   9.159 -0.2313  0.1486  0.1962
   43loPI   C6A  684  12.159  17.189   8.796  0.0786  0.0776  0.1153
   43loPI   C1B  685  11.932  16.823  10.691 -0.0837  0.2079  0.2648
   43loPI   C2B  686  11.965  16.955  10.176  0.0099 -0.1251 -0.2715
   43loPI   C3B  687  11.951  16.996   9.743 -0.0459  0.1902  0.1276
   43loPI   C4B  688  11.950  16.993   9.308 -0.0488 -0.1261 -0.3089
   44loPI    C1  689   1.943  16.435  11.559  0.1956 -0.0551  0.1018
   44loPI    C2  690   1.689  16.145  11.452  0.0622  0.1148 -0.0480
   44loPI    C3  691   1.735  16.238  11.838  0.0539 -0.0576 -0.0048
   44loPI   PO4  692   1.912  16.613  11.399  0.0136  0.0202  0.1943
   44loPI   GL1  693   2.142  16.696  11.001  0.0805 -0.3488  0.0580
   44loPI   GL2  694   2.088  16.331  10.983  0.0054  0.0857  0.0786
   44loPI   C1A  695   2.204  17.028  10.669  0.0645  0.0987  0.3956
   44loPI   C2A  696   2.148  17.012  10.260 -0.0004 -0.0720  0.1437
   44loPI   C3A  697   2.288  17.119   9.796  0.1506 -0.0687  0.1578
   44loPI   C4A  698   2.306  17.133   9.257 -0.0593  0.1151  0.1706
   44loPI   C5A  699   2.135  16.949   8.925 -0.0342 -0.0238  0.1689
   44loPI   C6A  700   2.174  16.895   8.541 -0.0208  0.1921  0.1882
   44loPI   C1B  701   2.166  16.500  10.507 -0.3613 -0.2018  0.0006
   44loPI   C2B  702   2.107  16.543  10.060 -0.0671  0.0138  0.0347
   44loPI   C3B  703   2.150  16.561   9.566  0.1749  0.0244  0.0480
   44loPI   C4B  704   2.260  16.596   9.183 -0.3822  0.1387  0.1823
   45loPI    C1  705  13.016   8.051  11.705 -0.0605  0.2218 -0.1289
   45loPI    C2  706  12.887   8.404  11.840 -0.1151  0.2551 -0.2669
   45loPI    C3  707  13.274   8.308  11.870 -0.1632  0.1670  0.1218
   45loPI   PO4  708  12.751   8.002  11.515  0.2039 -0.0722  0.1465
   45loPI   GL1  709  12.723   7.920  11.084 -0.0128  0.2578  0.2578
   45loPI   GL2  710  12.702   8.159  10.876  0.2591  0.1033 -0.0360
   45loPI   C1A  711  12.945   7.748  10.766  0.0161 -0.3141  0.1753
   45loPI   C2A  712  13.202   7.685  10.493  0.0369  0.2055 -0.0623
   45loPI   C3A  713  13.184   7.540  10.099  0.3668  0.2445  0.3941
   45loPI   C4A  714  13.106   7.523   9.701  0.1232  0.2490  0.0859
   45loPI   C5A  715  13.160   7.500   9.215 -0.0610  0.0931  0.2514
   45loPI   C6A  716  13.252   7.562   8.796  0.2183 -0.2208  0.2682
   45loPI   C1B  717  12.414   7.877  10.705 -0.2301  0.3842  0.2039
   45loPI   C2B  718  12.281   7.792  10.353  0.0392 -0.3332 -0.1772
   45loPI   C3B  719  12.208   7.683   9.972 -0.1445 -0.2287 -0.3543
   45loPI   C4B  720  12.232   7.707   9.565 -0.2552  0.2659  0.1981
   46loPI    C1  721  12.938   1.122  11.985  0.0896  0.0177 -0.1335
   46loPI    C2  722  12.727   1.460  11.952 -0.1331 -0.1064 -0.0020
   46loPI    C3  723  12.757   1.276  12.306 -0.2410 -0.3695 -0.1263
   46loPI   PO4  724  12.924   1.051  11.729  0.2986 -0.0356 -0.0020
   46loPI   GL1  725  13.056   0.710  11.418 -0.0332 -0.1263 -0.0003
   46loPI   GL2  726  13.369   0.572  11.327  0.0990  0.2032  0.4428
   46loPI   C1A  727  13.008   0.676  10.976  0.0269 -0.0525 -0.2258
   46loPI   C2A  728  13.104   0.845  10.481  0.0453 -0.1892 -0.1812
   46loPI   C3A  729  13.087   0.778   9.979 -0.3907  0.2266 -0.0238
   46loPI   C4A  730  13.149   0.738   9.513  0.1979 -0.1304 -0.1331
   46loPI   C5A  731  13.239   0.633   9.131 -0.0178 -0.1728 -0.2418
   46loPI   C6A  732  13.476   0.267   9.064  0.0560  0.1351  0.7601
   46loPI   C1B  733  13.448   0.499  10.831 -0.2127  0.0363 -0.0416
   46loPI   C2B  734  13.479   0.511  10.427  0.0270  0.0166  0.1108
   46loPI   C3B  735  13.511   0.457   9.957 -0.2877 -0.2067  0.1235
   46loPI   C4B  736  13.531   0.462   9.545 -0.2490 -0.2470 -0.0522
   47loPI    C1  737  11.393   2.206  12.141  0.0741 -0.0188  0.2257
   47loPI    C2  738  11.306   1.824  12.219  0.0875 -0.0729 -0.0155
   47loPI    C3  739  11.245   2.104  12.498 -0.0066 -0.2373  0.1314
   47loPI   PO4  740  11.245   2.290  11.916  0.0323  0.1026  0.0728
   47loPI   GL1  741  11.243   2.221  11.481 -0.0013  0.2380 -0.1957
   47loPI   GL2  742  11.120   1.926  11.342  0.2455 -0.0942  0.1357
   47loPI   C1A  743  11.029   2.382  11.156  0.1281 -0.0802 -0.1348
   47loPI   C2A  744  10.931   2.263  10.634  0.0938 -0.0700 -0.1810
   47loPI   C3A  745  10.948   2.327  10.228  0.1045 -0.0950 -0.2642
   47loPI   C4A  746  10.930   2.352   9.776 -0.1015 -0.0641 -0.1586
   47loPI   C5A  747  10.726   2.598   9.436  0.3965 -0.0127 -0.3325
   47loPI   C6A  748  10.615   2.529   8.999  0.3304  0.2512  0.0475
   47loPI   C1B  749  11.006   1.778  10.992 -0.2227 -0.0589  0.0847
   47loPI   C2B  750  10.840   1.802  10.608  0.4601 -0.0765 -0.1349
   47loPI   C3B  751  10.807   1.881  10.177  0.0295  0.2407 -0.1752
   47loPI   C4B  752  10.971   1.830   9.719 -0.0061 -0.0509  0.0691
   48loPI    C1  753  11.286  11.950  11.624 -0.1125  0.1119 -0.1194
   48loPI    C2  754  11.202  11.629  11.847  0.2886 -0.0982 -0.2597
   48loPI    C3  755  10.997  11.969  11.899 -0.0495 -0.3335 -0.0155
   48loPI   PO4  756  11.200  11.915  11.353  0.1633  0.0816 -0.2593
   48loPI   GL1  757  11.228  11.765  10.997 -0.0432  0.0517  0.2234
   48loPI   GL2  758  11.201  11.569  10.874  0.0196 -0.0339  0.3905
   48loPI   C1A  759  11.335  11.938  10.444  0.2619  0.0962 -0.3120
   48loPI   C2A  760  11.036  12.104  10.188 -0.1920  0.1004  0.0665
   48loPI   C3A  761  11.049  12.192   9.736  0.2372 -0.0107  0.0031
   48loPI   C4A  762  11.059  12.144   9.255  0.1143 -0.0144 -0.0319
   48loPI   C5A  763  11.259  12.222   8.852  0.1138  0.3274 -0.2112
   48loPI   C6A  764  11.376  12.277   8.543 -0.2080  0.0846 -0.0456
   48loPI   C1B  765  11.126  11.472  10.491 -0.1179  0.0382 -0.0584
   48loPI   C2B  766  11.195  11.525  10.044 -0.4645 -0.0082 -0.2819
   48loPI   C3B  767  11.187  11.462   9.562  0.0139  0.2215 -0.1764
   48loPI   C4B  768  11.227  11.505   9.219  0.1397 -0.1225  0.0102
   49loPI    C1  769   7.177   1.462  11.612 -0.3092  0.0480  0.0609
   49loPI    C2  770   7.165   1.665  11.956  0.0207  0.0372  0.0823
   49loPI    C3  771   7.051   1.282  11.946  0.0115  0.0370  0.1795
   49loPI   PO4  772   6.962   1.685  11.396  0.1675  0.1239 -0.2634
   49loPI   GL1  773   7.159   1.906  11.036  0.3732  0.4637 -0.1990
   49loPI   GL2  774   6.922   2.120  11.141 -0.2853 -0.1377 -0.0061
   49loPI   C1A  775   7.220   1.795  10.630  0.3058  0.3410  0.0039
   49loPI   C2A  776   7.156   1.915  10.196  0.2600 -0.2644 -0.0624
   49loPI   C3A  777   7.186   1.885   9.768 -0.2434  0.5112 -0.1420
   49loPI   C4A  778   7.184   1.909   9.296 -0.0979 -0.0314 -0.0509
   49loPI   C5A  779   6.840   2.154   9.018  0.0684  0.0563  0.0119
   49loPI   C6A  780   6.733   2.377   8.596  0.1230  0.0129  0.1463
   49loPI   C1B  781   6.719   2.097  10.812  0.2593  0.0317 -0.0547
   49loPI   C2B  782   6.763   2.197  10.413 -0.2039  0.2544 -0.0267
   49loPI   C3B  783   6.743   2.285   9.971 -0.0301 -0.1126 -0.0460
   49loPI   C4B  784   6.844   2.200   9.574  0.0366  0.0308 -0.0280
   50loPI    C1  785  17.511   4.992  11.409  0.0382  0.0022 -0.0236
   50loPI    C2  786  17.148   4.942  11.568  0.0597 -0.3005 -0.0639
   50loPI    C3  787  17.469   4.967  11.806  0.0195 -0.0829 -0.0307
   50loPI   PO4  788  17.548   4.825  11.270 -0.2110  0.0372  0.0834
   50loPI   GL1  789  17.549   4.789  10.897 -0.0672 -0.2506  0.3244
   50loPI   GL2  790  17.869   4.692  10.910  0.2525 -0.0256  0.0350
   50loPI   C1A  791  17.462   4.860  10.455  0.1807  0.1374  0.3418
   50loPI   C2A  792  17.378   4.689  10.082 -0.2237  0.5032  0.1567
   50loPI   C3A  793  17.478   4.766   9.616 -0.0134 -0.0970  0.1225
   50loPI   C4A  794  17.473   4.852   9.173 -0.0427  0.0365 -0.0419
   50loPI   C5A  795  17.524   4.666   8.901  0.0907 -0.1955 -0.3114
   50loPI   C6A  796  17.425   4.288   8.913  0.3840 -0.2502  0.0699
   50loPI   C1B  797  17.830   4.513  10.540 -0.1890  0.1158  0.0184
   50loPI   C2B  798  17.805   4.472  10.180 -0.1078 -0.0022  0.2056
   50loPI   C3B  799  17.831   4.455   9.802  0.2319  0.1902 -0.3581
   50loPI   C4B  800  17.791   4.422   9.376 -0.0429  0.2962 -0.2407
   51loPI    C1  801   8.496   9.262  11.393  0.1054 -0.1246  0.0654
   51loPI    C2  802   8.190   9.045  11.533 -0.0270 -0.0259 -0.0676
   51loPI    C3  803   8.374   9.309  11.771  0.0256 -0.1621  0.0444
   51loPI   PO4  804   8.463   9.346  11.204  0.0250  0.1502 -0.2349
   51loPI   GL1  805   8.363   9.609  11.031 -0.0653 -0.0306  0.0403
   51loPI   GL2  806   8.370   9.938  10.862 -0.2626  0.1485 -0.4857
   51loPI   C1A  807   8.123   9.460  10.662 -0.0760 -0.0303  0.0169
   51loPI   C2A  808   8.014   9.606  10.277 -0.0018 -0.1769  0.1124
   51loPI   C3A  809   8.035   9.561   9.879 -0.0330 -0.2518  0.0781
   51loPI   C4A  810   7.907   9.578   9.477 -0.2451  0.1119  0.0841
   51loPI   C5A  811   7.945   9.550   9.037 -0.0520 -0.1283 -0.0161
   51loPI   C6A  812   7.875   9.122   8.874  0.4572  0.0914  0.2961
   51loPI   C1B  813   8.547   9.806  10.476 -0.5846  0.1698  0.1275
   51loPI   C2B  814   8.579   9.865  10.081  0.1820 -0.4024  0.1581
   51loPI   C3B  815   8.517   9.758   9.719  0.1869  0.0554  0.0212
   51loPI   C4B  816   8.438   9.707   9.281  0.0867 -0.2409 -0.1132
   52loPI    C1  817   5.213   0.958  11.330 -0.1175  0.0916  0.0788
   52loPI    C2  818   5.054   0.836  11.676  0.0581  0.0669  0.1518
   52loPI    C3  819   5.421   0.716  11.571 -0.0680 -0.0796 -0.1328
   52loPI   PO4  820   5.044   0.902  11.138 -0.1372 -0.0798 -0.0104
   52loPI   GL1  821   5.091   0.953  10.711 -0.1703  0.0012 -0.0439
   52loPI   GL2  822   4.778   1.093  10.784 -0.1349  0.1200 -0.0938
   52loPI   C1A  823   5.264   1.074  10.271  0.0311  0.0628  0.1011
   52loPI   C2A  824   5.291   1.149   9.769 -0.0307 -0.0066 -0.3054
   52loPI   C3A  825   5.235   1.106   9.268  0.0340  0.0539  0.1461
   52loPI   C4A  826   5.342   1.198   8.806  0.3153  0.1204 -0.0980
   52loPI   C5A  827   5.481   1.436   8.549  0.0693 -0.1911  0.0390
   52loPI   C6A  828   5.613   1.694   8.325  0.2196 -0.0517  0.1742
   52loPI   C1B  829   4.783   0.916  10.276  0.1758  0.1149  0.1168
   52loPI   C2B  830   4.790   0.967   9.764  0.0747 -0.0591  0.3707
   52loPI   C3B  831   4.782   0.970   9.351  0.1600  0.0219  0.0870
   52loPI   C4B  832   4.779   0.946   8.869 -0.2787  0.3035  0.1142
   53loPI    C1  833   7.919   8.611  11.196  0.0212 -0.1881 -0.1006
   53loPI    C2  834   7.889   8.590  11.594 -0.0778  0.0370 -0.0948
   53loPI    C3  835   8.249   8.594  11.420 -0.0358 -0.1916 -0.0166
   53loPI   PO4  836   7.690   8.378  11.097 -0.2608 -0.0373  0.4095
   53loPI   GL1  837   7.564   8.260  10.736 -0.0187  0.2038  0.1638
   53loPI   GL2  838   7.704   7.935  10.660 -0.0541  0.1677  0.0543
   53loPI   C1A  839   7.792   8.473  10.367 -0.1114 -0.0663  0.1079
   53loPI   C2A  840   7.823   8.456   9.957 -0.0906  0.3049  0.1319
   53loPI   C3A  841   7.799   8.509   9.509 -0.0756 -0.0348  0.0158
   53loPI   C4A  842   7.710   8.521   9.107 -0.0356  0.1224  0.0041
   53loPI   C5A  843   7.603   8.440   8.702 -0.0991  0.0029  0.4959
   53loPI   C6A  844   7.735   8.543   8.412  0.0512 -0.0536 -0.2223
   53loPI   C1B  845   7.734   7.996  10.176  0.0242 -0.2963  0.0134
   53loPI   C2B  846   7.820   8.008   9.687  0.1222 -0.0750 -0.2294
   53loPI   C3B  847   7.751   8.003   9.288  0.1494 -0.0164 -0.1754
   53loPI   C4B  848   7.568   7.935   8.897 -0.2034  0.0384 -0.3792
   54loPI    C1  849  11.719   0.270  11.835 -0.1222  0.2262  0.1021
   54loPI    C2  850  11.833  -0.088  11.973 -0.0815  0.2490  0.1279
   54loPI    C3  851  11.649   0.171  12.216 -0.0695  0.2633  0.1218
   54loPI   PO4  852  11.617   0.239  11.652 -0.0779 -0.0348 -0.0620
   54loPI   GL1  853  11.654   0.303  11.284 -0.0990 -0.0267 -0.3553
   54loPI   GL2  854  11.556   0.000  11.160  0.2280 -0.0327  0.3820
   54loPI   C1A  855  11.688   0.536  10.879 -0.1394 -0.2321 -0.2816
   54loPI   C2A  856  11.605   0.785  10.545  0.0122  0.4695  0.1515
   54loPI   C3A  857  11.739   0.768  10.133 -0.1396 -0.0515 -0.0683
   54loPI   C4A  858  11.724   0.777   9.677  0.2111 -0.0057 -0.2619
   54loPI   C5A  859  11.858   0.854   9.232  0.1241 -0.0464 -0.0582
   54loPI   C6A  860  11.838   1.144   8.834  0.1212 -0.0088  0.0549
   54loPI   C1B  861  11.668   0.043  10.764 -0.0450  0.2929  0.0232
   54loPI   C2B  862  11.606   0.317  10.433 -0.0736  0.2124  0.2284
   54loPI   C3B  863  11.586   0.230   9.982  0.0936  0.0758 -0.1028
   54loPI   C4B  864  11.769   0.319   9.520  0.3443  0.0092 -0.1113
   55loPI    C1  865  16.209  12.833  10.728  0.2273  0.2810 -0.1897
   55loPI    C2  866  16.441  12.761  11.046 -0.0246  0.1497 -0.0321
   55loPI    C3  867  16.515  12.577  10.699  0.1562  0.1731 -0.0071
   55loPI   PO4  868  16.226  13.096  10.751 -0.1291 -0.3322 -0.2001
   55loPI   GL1  869  16.166  13.385  10.523  0.0538 -0.2398  0.0274
   55loPI   GL2  870  16.471  13.174  10.315  0.1385 -0.3897 -0.1108
   55loPI   C1A  871  15.872  13.484  10.228  0.1363 -0.1851 -0.3076
   55loPI   C2A  872  15.932  13.679   9.934 -0.2524 -0.1150 -0.3595
   55loPI   C3A  873  15.872  13.627   9.495  0.1620 -0.0941 -0.2049
   55loPI   C4A  874  15.848  13.666   9.054 -0.2767  0.1423 -0.0837
   55loPI   C5A  875  15.909  13.432   8.679 -0.2112 -0.3654  0.1219
   55loPI   C6A  876  16.086  13.699   8.312 -0.4062  0.0953 -0.1041
   55loPI   C1B  877  16.307  13.235   9.914  0.0541  0.0175 -0.0305
   55loPI   C2B  878  16.241  13.278   9.477  0.0476 -0.1499 -0.2265
   55loPI   C3B  879  16.280  13.236   9.066  0.2897  0.0225  0.0547
   55loPI   C4B  880  16.429  13.363   8.609  0.1269 -0.0644 -0.2780
   56loPI    C1  881   3.756   4.640  11.930 -0.2164 -0.1637 -0.0864
   56loPI    C2  882   4.067   4.394  11.980 -0.3253 -0.2989 -0.0681
   56loPI    C3  883   4.037   4.726  12.201 -0.0744 -0.1638 -0.2315
   56loPI   PO4  884   3.691   4.689  11.649 -0.0436 -0.3902 -0.1602
   56loPI   GL1  885   3.629   4.660  11.187  0.2761  0.3858 -0.0940
   56loPI   GL2  886   3.910   4.939  11.173 -0.0303 -0.2103  0.2197
   56loPI   C1A  887   3.857   4.545  10.811 -0.1171  0.2619  0.1651
   56loPI   C2A  888   3.849   4.488  10.377 -0.1541  0.0418  0.1202
   56loPI   C3A  889   3.907   4.419   9.910 -0.1186 -0.0002  0.1593
   56loPI   C4A  890   3.923   4.462   9.532 -0.1353  0.0988  0.0477
   56loPI   C5A  891   3.948   4.461   9.171  0.0159 -0.0710 -0.1619
   56loPI   C6A  892   4.131   4.802   8.891 -0.1361 -0.0474 -0.2290
   56loPI   C1B  893   3.923   4.993  10.738 -0.0635  0.0442  0.0444
   56loPI   C2B  894   3.985   5.012  10.251 -0.0878  0.3202  0.0630
   56loPI   C3B  895   3.953   4.930   9.804 -0.0294  0.1931  0.1077
   56loPI   C4B  896   4.004   4.933   9.423 -0.1505  0.0020 -0.0577
   57loPI    C1  897   3.227   2.312  11.670 -0.0245 -0.0840  0.2249
   57loPI    C2  898   3.544   2.223  11.897  0.0417  0.1457  0.2251
   57loPI    C3  899   3.306   2.529  11.997  0.0239  0.1967  0.0311
   57loPI   PO4  900   3.352   2.142  11.436  0.2271  0.1444 -0.2849
   57loPI   GL1  901   3.657   1.991  11.126  0.2661 -0.1380  0.4246
   57loPI   GL2  902   3.617   2.334  10.990 -0.3161  0.3316 -0.0466
   57loPI   C1A  903   3.590   1.858  10.710  0.1313 -0.2900  0.0304
   57loPI   C2A  904   3.513   1.983  10.396 -0.0773  0.0224  0.1447
   57loPI   C3A  905   3.527   1.966   9.974  0.1788  0.2352  0.0959
   57loPI   C4A  906   3.650   1.936   9.527 -0.0777  0.0022  0.0076
   57loPI   C5A  907   3.463   2.006   9.200 -0.0503  0.3889  0.0556
   57loPI   C6A  908   3.620   2.218   8.765  0.2136  0.1939 -0.0969
   57loPI   C1B  909   3.574   2.417  10.623  0.2208 -0.1480  0.3172
   57loPI   C2B  910   3.640   2.469  10.206 -0.0504  0.4073 -0.0447
   57loPI   C3B  911   3.685   2.560   9.778  0.0158  0.2167  0.1850
   57loPI   C4B  912   3.637   2.410   9.474 -0.4054  0.0271 -0.1156
   58loPI    C1  913  11.548   1.015  11.926 -0.0334  0.1000  0.1304
   58loPI    C2  914  11.439   0.962  12.307  0.1686  0.0132  0.1776
   58loPI    C3  915  11.659   0.684  12.122  0.0376  0.0364 -0.0156
   58loPI   PO4  916  11.308   1.045  11.721  0.0343  0.2171 -0.1529
   58loPI   GL1  917  11.397   1.125  11.301 -0.1348  0.2461  0.1226
   58loPI   GL2  918  11.108   1.291  11.208  0.1231 -0.0503 -0.1649
   58loPI   C1A  919  11.292   0.931  10.905  0.0812 -0.4125  0.3123
   58loPI   C2A  920  11.086   1.011  10.493  0.0346 -0.1245 -0.1640
   58loPI   C3A  921  11.291   1.032  10.139 -0.0925  0.3084 -0.0783
   58loPI   C4A  922  11.310   1.144   9.715 -0.3336  0.1200  0.1047
   58loPI   C5A  923  11.273   1.133   9.316  0.1891 -0.1993  0.1594
   58loPI   C6A  924  11.328   1.266   8.838  0.2187 -0.4086 -0.0855
   58loPI   C1B  925  11.262   1.424  10.779  0.1426  0.2059 -0.1817
   58loPI   C2B  926  11.255   1.544  10.413  0.3580  0.0803 -0.1943
   58loPI   C3B  927  11.304   1.599  10.001  0.2451  0.0904  0.1761
   58loPI   C4B  928  11.489   1.652   9.594  0.1164  0.0487 -0.2943
   59loPI    C1  929  17.435   0.526  11.560 -0.1827 -0.1736 -0.0162
   59loPI    C2  930  17.329   0.369  11.912  0.2385  0.0039  0.1970
   59loPI    C3  931  17.197   0.732  11.806  0.0083 -0.1026  0.1113
   59loPI   PO4  932  17.535   0.387  11.417 -0.0434  0.2100 -0.1613
   59loPI   GL1  933  17.513   0.073  10.985 -0.2134  0.0166 -0.1864
   59loPI   GL2  934  17.260   0.066  11.018 -0.2123  0.2194  0.1376
   59loPI   C1A  935  17.578   0.154  10.530  0.0850  0.1159 -0.3585
   59loPI   C2A  936  17.481   0.111  10.163  0.1321  0.3119 -0.1991
   59loPI   C3A  937  17.559   0.053   9.834 -0.1548  0.1816 -0.0030
   59loPI   C4A  938  17.563   0.002   9.369 -0.3601  0.2268  0.3078
   59loPI   C5A  939  17.423   0.095   8.991 -0.0457 -0.0008 -0.1182
   59loPI   C6A  940  17.441   0.087   8.524  0.5037  0.0631  0.1347
   59loPI   C1B  941  17.125   0.293  10.742 -0.3977  0.1001 -0.2336
   59loPI   C2B  942  17.110   0.465  10.293  0.0230  0.1924  0.0151
   59loPI   C3B  943  17.137   0.398   9.777  0.0744  0.1218  0.2663
   59loPI   C4B  944  17.111   0.353   9.358  0.0501  0.0746 -0.1196
   60loPI    C1  945   1.769   2.260  11.782 -0.0196 -0.0810 -0.0092
   60loPI    C2  946   1.528   2.145  12.080 -0.0330 -0.0248  0.0017
   60loPI    C3  947   1.920   2.189  12.145 -0.0235 -0.0914 -0.0096
   60loPI   PO4  948   1.603   2.383  11.593  0.0491 -0.2165  0.0931
   60loPI   GL1  949   1.687   2.369  11.131  0.0638 -0.3128  0.2766
   60loPI   GL2  950   1.449   2.578  11.102  0.1410  0.1360 -0.1839
   60loPI   C1A  951   1.745   2.234  10.712 -0.1173  0.3025  0.1760
   60loPI   C2A  952   1.716   2.177  10.233  0.4659 -0.0819 -0.0736
   60loPI   C3A  953   1.790   2.200   9.846  0.2864 -0.0484  0.0837
   60loPI   C4A  954   1.780   2.137   9.379 -0.3162 -0.0310 -0.1412
   60loPI   C5A  955   1.676   2.284   8.990  0.0199  0.1479 -0.0062
   60loPI   C6A  956   1.313   2.472   8.830  0.2514 -0.1839  0.1520
   60loPI   C1B  957   1.397   2.573  10.681  0.1206  0.1762 -0.3392
   60loPI   C2B  958   1.296   2.572  10.200  0.0741 -0.2604 -0.3581
   60loPI   C3B  959   1.429   2.484   9.816  0.0340 -0.0013 -0.2539
   60loPI   C4B  960   1.393   2.537   9.390  0.1573 -0.2723 -0.0762
   61loPI    C1  961  17.458  16.393  11.800 -0.1942  0.1971  0.0183
   61loPI    C2  962  17.697  16.604  12.042 -0.1755  0.2025 -0.0048
   61loPI    C3  963  17.319  16.529  12.150 -0.1910  0.2732 -0.0096
   61loPI   PO4  964  17.458  16.563  11.542 -0.0192  0.2578 -0.2479
   61loPI   GL1  965  17.428  16.544  11.063  0.2075 -0.0816  0.2785
   61loPI   GL2  966  17.043  16.474  11.098 -0.0210 -0.3193  0.0063
   61loPI   C1A  967  17.418  16.561  10.609  0.0779 -0.0451  0.1608
   61loPI   C2A  968  17.294  16.608  10.124 -0.1996 -0.1045  0.0937
   61loPI   C3A  969  17.434  16.583   9.739  0.0136  0.3925 -0.0556
   61loPI   C4A  970  17.344  16.603   9.280  0.2572  0.1838  0.1418
   61loPI   C5A  971  17.341  16.795   8.839 -0.0942  0.1525 -0.3660
   61loPI   C6A  972  17.564  17.192   8.737  0.2641 -0.2985 -0.2430
   61loPI   C1B  973  16.940  16.354  10.660 -0.0053 -0.2726 -0.2823
   61loPI   C2B  974  16.843  16.441  10.158  0.1065 -0.0826 -0.1526
   61loPI   C3B  975  16.844  16.444   9.761 -0.0940 -0.1494 -0.2513
   61loPI   C4B  976  16.856  16.397   9.359 -0.1033  0.0591 -0.1007
   62loPI    C1  977  11.571   3.124  11.897  0.0788  0.0527 -0.2555
   62loPI    C2  978  11.517   3.505  12.008  0.0580  0.0025 -0.0904
   62loPI    C3  979  11.871   3.327  12.067  0.0487 -0.0225 -0.1100
   62loPI   PO4  980  11.458   3.108  11.643 -0.1058  0.4648  0.0385
   62loPI   GL1  981  11.424   3.181  11.299 -0.1627 -0.0851 -0.0032
   62loPI   GL2  982  11.165   3.116  11.134 -0.2733 -0.1409  0.0417
   62loPI   C1A  983  11.580   3.184  10.854  0.0938  0.0485  0.0419
   62loPI   C2A  984  11.502   3.206  10.430  0.2367  0.0280  0.3682
   62loPI   C3A  985  11.535   3.128  10.055  0.0078 -0.0840  0.0583
   62loPI   C4A  986  11.434   3.133   9.647 -0.0346  0.0485 -0.1816
   62loPI   C5A  987  11.544   2.982   9.234 -0.0044 -0.1182  0.0057
   62loPI   C6A  988  11.690   2.544   9.239 -0.1237 -0.0415  0.2268
   62loPI   C1B  989  11.034   3.077  10.713 -0.0698  0.0252 -0.1743
   62loPI   C2B  990  11.015   3.023  10.256  0.2165 -0.0366 -0.1202
   62loPI   C3B  991  11.018   2.904   9.835 -0.0438  0.1035 -0.1399
   62loPI   C4B  992  11.171   2.697   9.347 -0.0536  0.1601 -0.2035
   63loPI    C1  993  11.837  10.924  11.423  0.0747  0.0119  0.0914
   63loPI    C2  994  11.848  10.530  11.353 -0.1842  0.0266 -0.0455
   63loPI    C3  995  12.024  10.680  11.679 -0.2603 -0.2273  0.1152
   63loPI   PO4  996  11.893  11.015  11.173 -0.2342 -0.1529  0.1116
   63loPI   GL1  997  12.004  10.803  10.747 -0.0253 -0.1634  0.2147
   63loPI   GL2  998  11.696  10.644  10.876  0.1049  0.0039  0.0058
   63loPI   C1A  999  11.932  10.689  10.252 -0.1588 -0.4740  0.1931
   63loPI   C2A 1000  11.847  10.688   9.764 -0.5089 -0.0041  0.1933
   63loPI   C3A 1001  11.947  10.929   9.398  0.1847  0.1323 -0.2570
   63loPI   C4A 1002  12.169  10.947   9.104  0.2080  0.0684  0.0325
   63loPI   C5A 1003  12.632  10.922   9.047  0.1257 -0.0201 -0.0240
   63loPI   C6A 1004  12.966  10.747   8.991  0.1028  0.0182  0.2777
   63loPI   C1B 1005  11.450  10.631  10.513 -0.0353 -0.5212  0.3092
   63loPI   C2B 1006  11.344  10.542  10.090  0.0700 -0.0157  0.0432
   63loPI   C3B 1007  11.485  10.399   9.645  0.1591 -0.1369 -0.2290
   63loPI   C4B 1008  11.388  10.203   9.280  0.0776 -0.0856  0.1233
   64loPI    C1 1009  11.579   6.867  11.596 -0.0884 -0.0526 -0.0162
   64loPI    C2 1010  11.737   6.505  11.531  0.1735  0.0832 -0.1508
   64loPI    C3 1011  11.850   6.718  11.850  0.0542  0.0660 -0.0968
   64loPI   PO4 1012  11.618   6.977  11.415 -0.1830  0.1526 -0.0328
   64loPI   GL1 1013  11.808   6.854  11.107 -0.2790  0.1331 -0.1884
   64loPI   GL2 1014  12.068   6.904  10.998  0.0126 -0.1898  0.0186
   64loPI   C1A 1015  11.605   6.646  10.746  0.1290 -0.1112  0.1663
   64loPI   C2A 1016  11.641   6.461  10.280 -0.1252 -0.2056  0.0244
   64loPI   C3A 1017  11.616   6.469   9.826 -0.0349  0.1064  0.0328
   64loPI   C4A 1018  11.584   6.586   9.393 -0.0526 -0.0377 -0.0224
   64loPI   C5A 1019  11.843   6.549   8.956 -0.2572  0.0293  0.3248
   64loPI   C6A 1020  11.904   6.643   8.517  0.0477 -0.1889  0.2659
   64loPI   C1B 1021  12.148   6.756  10.565 -0.0365 -0.0723 -0.0137
   64loPI   C2B 1022  12.225   6.692  10.205  0.1203 -0.2194  0.0664
   64loPI   C3B 1023  12.142   6.700   9.779 -0.0186 -0.2596  0.2332
   64loPI   C4B 1024  12.078   6.646   9.347  0.2365 -0.1681 -0.1409
   65loPI    C1 1025   7.578   1.788  11.628 -0.1380 -0.0936 -0.0453
   65loPI    C2 1026   7.937   1.646  11.732  0.0557  0.2733 -0.1948
   65loPI    C3 1027   7.606   1.482  11.884  0.2885  0.0156  0.0470
   65loPI   PO4 1028   7.592   1.800  11.384  0.1966  0.0356 -0.0347
   65loPI   GL1 1029   7.734   1.815  10.973  0.0327  0.2097  0.2928
   65loPI   GL2 1030   7.546   1.523  11.008 -0.0247  0.0284  0.1320
   65loPI   C1A 1031   7.616   2.026  10.582  0.1141 -0.1251  0.3445
   65loPI   C2A 1032   7.655   2.104  10.136  0.0654 -0.1008  0.2587
   65loPI   C3A 1033   7.695   2.117   9.778  0.0559  0.2212 -0.1877
   65loPI   C4A 1034   7.714   2.133   9.264  0.2051  0.2708  0.2058
   65loPI   C5A 1035   7.901   2.290   8.889 -0.3060 -0.0911  0.2465
   65loPI   C6A 1036   8.087   2.235   8.434  0.0430  0.0715 -0.2077
   65loPI   C1B 1037   7.646   1.489  10.641 -0.0367  0.1259  0.2280
   65loPI   C2B 1038   7.599   1.533  10.200 -0.2327 -0.0793 -0.3448
   65loPI   C3B 1039   7.579   1.616   9.801  0.0527  0.0154  0.1001
   65loPI   C4B 1040   7.606   1.654   9.401  0.3737 -0.1900  0.0832
   66loPI    C1 1041   4.694   5.175  11.830  0.0612  0.0369  0.1974
   66loPI    C2 1042   4.679   4.786  11.920  0.0538 -0.0362 -0.1114
   66loPI    C3 1043   4.430   5.042  12.099 -0.0091 -0.1877  0.0196
   66loPI   PO4 1044   4.606   5.136  11.568 -0.1624 -0.1338  0.1925
   66loPI   GL1 1045   4.322   5.316  11.258  0.0952 -0.0148 -0.0250
   66loPI   GL2 1046   4.389   5.070  11.029  0.0150  0.0284  0.2270
   66loPI   C1A 1047   3.985   5.475  10.829  0.1983 -0.0583 -0.0134
   66loPI   C2A 1048   4.044   5.594  10.439  0.3700 -0.2416 -0.3059
   66loPI   C3A 1049   4.053   5.511  10.053  0.4228 -0.0188  0.0291
   66loPI   C4A 1050   3.998   5.366   9.658  0.2335 -0.0459  0.0507
   66loPI   C5A 1051   4.095   5.424   9.192 -0.0757  0.0160 -0.0478
   66loPI   C6A 1052   4.313   5.333   8.854  0.3815  0.1111  0.2698
   66loPI   C1B 1053   4.449   5.209  10.645 -0.4100 -0.0006 -0.0900
   66loPI   C2B 1054   4.422   5.234  10.222  0.2628  0.2907  0.0354
   66loPI   C3B 1055   4.474   5.114   9.702  0.2487 -0.3008 -0.1080
   66loPI   C4B 1056   4.537   5.102   9.308  0.1961 -0.1114 -0.0487
   67loPI    C1 1057   9.680   6.788  11.488 -0.0649  0.0405  0.3820
   67loPI    C2 1058  10.001   7.022  11.440 -0.0432 -0.1269 -0.4410
   67loPI    C3 1059  10.040   6.660  11.606  0.1587 -0.0726 -0.3662
   67loPI   PO4 1060   9.567   6.827  11.278  0.0424  0.1519 -0.0327
   67loPI   GL1 1061   9.725   7.032  11.019  0.0668  0.0586  0.0477
   67loPI   GL2 1062   9.898   6.838  10.747  0.1679  0.1295 -0.0435
   67loPI   C1A 1063   9.607   7.184  10.585  0.0675  0.3913  0.3443
   67loPI   C2A 1064   9.579   7.074  10.168  0.0408 -0.0788 -0.0705
   67loPI   C3A 1065   9.496   7.039   9.762  0.1252 -0.0065  0.1355
   67loPI   C4A 1066   9.376   7.122   9.378 -0.0596  0.1714  0.0611
   67loPI   C5A 1067   9.494   7.100   8.966 -0.4827  0.0836 -0.0101
   67loPI   C6A 1068   9.345   7.406   8.675 -0.1000  0.3338 -0.1762
   67loPI   C1B 1069   9.970   6.863  10.381  0.1363 -0.0793  0.2447
   67loPI   C2B 1070   9.907   6.787   9.975  0.2853 -0.1429  0.1541
   67loPI   C3B 1071   9.857   6.751   9.551  0.0309 -0.0016  0.3757
   67loPI   C4B 1072   9.761   6.788   9.196  0.1033  0.2699 -0.4074
   68loPI    C1 1073   5.388  12.467  11.572 -0.0979 -0.0125 -0.1444
   68loPI    C2 1074   5.756  12.356  11.684 -0.0603  0.1790 -0.0745
   68loPI    C3 1075   5.698  12.713  11.512 -0.1573 -0.0059 -0.4347
   68loPI   PO4 1076   5.292  12.154  11.494 -0.0940 -0.1052 -0.0073
   68loPI   GL1 1077   5.401  12.223  11.080 -0.1398  0.0704 -0.3107
   68loPI   GL2 1078   5.629  12.435  11.132 -0.0376 -0.0352 -0.1744
   68loPI   C1A 1079   5.176  12.417  10.753 -0.1714 -0.1221 -0.2984
   68loPI   C2A 1080   5.106  12.381  10.278 -0.1004  0.1418  0.1066
   68loPI   C3A 1081   5.159  12.262   9.839  0.0344 -0.0743  0.2082
   68loPI   C4A 1082   5.142  12.405   9.389 -0.0062  0.2827 -0.0639
   68loPI   C5A 1083   5.061  12.288   8.972  0.1592 -0.2106  0.1765
   68loPI   C6A 1084   4.661  12.301   8.695 -0.2634 -0.2730  0.0982
   68loPI   C1B 1085   5.666  12.482  10.718 -0.0290  0.1547  0.0765
   68loPI   C2B 1086   5.685  12.457  10.242 -0.0361  0.0974 -0.2433
   68loPI   C3B 1087   5.616  12.562   9.846 -0.2283  0.0595 -0.1253
   68loPI   C4B 1088   5.597  12.615   9.458  0.0409 -0.0832  0.1254
   69loPI    C1 1089  16.743   7.937  11.649 -0.4237  0.1447 -0.1164
   69loPI    C2 1090  16.422   8.167  11.712 -0.1325  0.5381 -0.0300
   69loPI    C3 1091  16.755   8.226  11.924 -0.0160  0.0979 -0.0793
   69loPI   PO4 1092  16.681   7.809  11.452 -0.0966  0.1453  0.2178
   69loPI   GL1 1093  16.419   7.792  11.133  0.3290  0.0562 -0.1330
   69loPI   GL2 1094  16.372   7.447  11.156  0.1036 -0.2126 -0.3126
   69loPI   C1A 1095  16.413   7.880  10.667 -0.2274  0.1596  0.0474
   69loPI   C2A 1096  16.480   7.893  10.173  0.2211 -0.1384  0.1047
   69loPI   C3A 1097  16.578   7.784   9.763 -0.0962 -0.2281  0.0824
   69loPI   C4A 1098  16.478   7.796   9.249  0.1332  0.0684  0.0149
   69loPI   C5A 1099  16.516   7.933   8.858 -0.0988 -0.2223 -0.0823
   69loPI   C6A 1100  16.803   7.900   8.512  0.0758  0.1688 -0.0226
   69loPI   C1B 1101  16.483   7.389  10.733  0.1701 -0.0919  0.1973
   69loPI   C2B 1102  16.487   7.324  10.324 -0.1672  0.3871 -0.0906
   69loPI   C3B 1103  16.387   7.329   9.889 -0.2521 -0.2888  0.1203
   69loPI   C4B 1104  16.440   7.262   9.492  0.2535  0.2378 -0.4674
   70loPI    C1 1105   2.003   5.124  11.636 -0.1122  0.1753  0.1831
   70loPI    C2 1106   1.857   4.752  11.639  0.3251 -0.0014  0.2140
   70loPI    C3 1107   1.778   5.001  11.942 -0.4246  0.1222 -0.0623
   70loPI   PO4 1108   2.107   5.086  11.420  0.0941 -0.4236 -0.1417
   70loPI   GL1 1109   2.185   5.087  10.982  0.0414  0.1789 -0.2422
   70loPI   GL2 1110   2.047   5.335  10.867 -0.2534 -0.2949 -0.0750
   70loPI   C1A 1111   2.189   4.786  10.601 -0.2898 -0.3617 -0.0002
   70loPI   C2A 1112   2.234   4.799  10.137 -0.2267  0.1391 -0.4032
   70loPI   C3A 1113   2.181   4.684   9.795 -0.1293  0.2139  0.1154
   70loPI   C4A 1114   2.123   4.747   9.382  0.0393  0.1951  0.2580
   70loPI   C5A 1115   2.383   4.847   8.943 -0.2297 -0.0825 -0.0427
   70loPI   C6A 1116   2.433   4.572   8.599 -0.1546 -0.1709  0.0269
   70loPI   C1B 1117   2.181   5.350  10.482  0.0814 -0.1208 -0.1101
   70loPI   C2B 1118   2.285   5.296  10.126 -0.3058  0.1075  0.1553
   70loPI   C3B 1119   2.291   5.232   9.659 -0.0687  0.3345 -0.0427
   70loPI   C4B 1120   2.199   5.250   9.209  0.0388 -0.3309 -0.1714
   71loPI    C1 1121   0.377   0.806  11.484 -0.0927 -0.1027  0.2322
   71loPI    C2 1122   0.193   1.058  11.734  0.1450  0.1204  0.1857
   71loPI    C3 1123   0.566   0.936  11.812  0.0925 -0.0847  0.1198
   71loPI   PO4 1124   0.243   0.814  11.306 -0.0564 -0.0796  0.0649
   71loPI   GL1 1125   0.060   0.593  10.981  0.1299  0.0414 -0.1581
   71loPI   GL2 1126   0.313   0.597  10.786 -0.2001 -0.3057 -0.3815
   71loPI   C1A 1127  -0.210   0.790  10.822 -0.2285 -0.0899  0.3260
   71loPI   C2A 1128  -0.350   0.970  10.431 -0.1989  0.2097  0.0188
   71loPI   C3A 1129  -0.324   0.870   9.942 -0.2182 -0.0699 -0.0834
   71loPI   C4A 1130  -0.214   0.873   9.509  0.2458 -0.1038  0.0207
   71loPI   C5A 1131  -0.387   0.833   9.141 -0.0070  0.0074  0.0080
   71loPI   C6A 1132  -0.630   1.194   8.941 -0.1739  0.0717 -0.0820
   71loPI   C1B 1133   0.082   0.613  10.439  0.2117  0.1165 -0.2057
   71loPI   C2B 1134   0.076   0.562  10.047 -0.0228  0.1791  0.1310
   71loPI   C3B 1135   0.024   0.447   9.579 -0.2371  0.1355  0.0857
   71loPI   C4B 1136   0.018   0.558   9.151  0.0634  0.1002 -0.1668
   72loPI    C1 1137   7.809  14.294  10.960 -0.2903  0.0987 -0.1971
   72loPI    C2 1138   7.555  14.391  11.253 -0.2262 -0.1448 -0.0576
   72loPI    C3 1139   7.936  14.306  11.339 -0.1117  0.1484 -0.2574
   72loPI   PO4 1140   7.645  14.342  10.748 -0.0643 -0.0911 -0.2581
   72loPI   GL1 1141   7.405  14.506  10.501  0.3923 -0.1570 -0.3440
   72loPI   GL2 1142   7.571  14.769  10.443  0.0609  0.1626 -0.2480
   72loPI   C1A 1143   7.092  14.857  10.340 -0.4186 -0.0703  0.2023
   72loPI   C2A 1144   7.008  14.903   9.891  0.3036  0.0383  0.0877
   72loPI   C3A 1145   6.987  15.003   9.381 -0.1678 -0.2249  0.1089
   72loPI   C4A 1146   7.061  14.922   8.918  0.1890 -0.0677 -0.0051
   72loPI   C5A 1147   6.791  14.707   8.730 -0.1018  0.2945 -0.3359
   72loPI   C6A 1148   6.405  14.710   8.551 -0.0598  0.1796  0.0709
   72loPI   C1B 1149   7.480  14.728  10.039  0.0605 -0.1195  0.4223
   72loPI   C2B 1150   7.433  14.730   9.584 -0.2236 -0.0011  0.1590
   72loPI   C3B 1151   7.288  14.615   9.214  0.3146  0.3004  0.3562
   72loPI   C4B 1152   7.549  14.542   8.833 -0.0188 -0.1915  0.0914
   73loPI    C1 1153  14.443   2.667  11.620  0.0405 -0.2563  0.0899
   73loPI    C2 1154  14.188   2.826  11.884  0.0429 -0.2583  0.0934
   73loPI    C3 1155  14.482   2.585  12.010  0.3384  0.1183  0.1447
   73loPI   PO4 1156  14.352   2.636  11.430  0.0947  0.2942 -0.2493
   73loPI   GL1 1157  14.353   2.624  11.052  0.1536 -0.1252  0.2959
   73loPI   GL2 1158  14.518   2.828  10.905 -0.1315 -0.1913  0.2985
   73loPI   C1A 1159  14.339   2.324  10.867  0.1671  0.1215  0.0605
   73loPI   C2A 1160  14.221   2.170  10.507  0.0436 -0.2866 -0.1172
   73loPI   C3A 1161  14.193   2.135  10.049  0.1947  0.1505 -0.1502
   73loPI   C4A 1162  14.287   2.179   9.647  0.1289  0.2630  0.1094
   73loPI   C5A 1163  14.200   2.166   9.117  0.1390 -0.1514 -0.0578
   73loPI   C6A 1164  14.115   2.011   8.717 -0.3740  0.0859  0.1030
   73loPI   C1B 1165  14.369   2.648  10.430 -0.2477 -0.1886  0.0536
   73loPI   C2B 1166  14.376   2.629   9.940 -0.2210  0.0754 -0.0298
   73loPI   C3B 1167  14.259   2.636   9.520 -0.3282  0.2106  0.0152
   73loPI   C4B 1168  14.170   2.718   9.168  0.1373  0.1190  0.1583
   74loPI    C1 1169   2.557   0.350  11.774 -0.0268 -0.1184  0.0297
   74loPI    C2 1170   2.569   0.507  12.142  0.0692  0.0834 -0.0580
   74loPI    C3 1171   2.892   0.327  11.991  0.1048  0.2086 -0.1323
   74loPI   PO4 1172   2.524   0.587  11.536  0.0051 -0.0007 -0.0856
   74loPI   GL1 1173   2.457   0.583  11.092  0.1188 -0.0761  0.0188
   74loPI   GL2 1174   2.770   0.440  11.093 -0.2839 -0.0832 -0.1142
   74loPI   C1A 1175   2.368   0.527  10.623 -0.0219 -0.0066  0.2373
   74loPI   C2A 1176   2.437   0.546  10.136 -0.0744 -0.0242 -0.1271
   74loPI   C3A 1177   2.409   0.552   9.630 -0.1482 -0.5999 -0.0065
   74loPI   C4A 1178   2.605   0.584   9.146  0.2538 -0.1959 -0.1478
   74loPI   C5A 1179   2.755   0.279   8.882 -0.2047  0.1438  0.3376
   74loPI   C6A 1180   2.806   0.263   8.410 -0.1552 -0.0098  0.2124
   74loPI   C1B 1181   2.920   0.741  10.861 -0.2730  0.0493 -0.1019
   74loPI   C2B 1182   2.900   0.820  10.466  0.1989 -0.1201  0.1716
   74loPI   C3B 1183   2.903   0.753   9.993 -0.2045  0.3151  0.2876
   74loPI   C4B 1184   2.940   0.761   9.612 -0.2509 -0.3593 -0.1629
   75loPI    C1 1185  11.800  14.934  11.376 -0.0768 -0.0608 -0.1738
   75loPI    C2 1186  12.131  14.726  11.290  0.1791  0.1080  0.3581
   75loPI    C3 1187  11.846  14.562  11.516 -0.0475  0.0109  0.0098
   75loPI   PO4 1188  11.688  14.995  11.159  0.4549 -0.1256  0.1889
   75loPI   GL1 1189  11.626  15.201  10.760  0.1037  0.1163 -0.1120
   75loPI   GL2 1190  11.260  15.139  10.704 -0.0020  0.0825  0.0703
   75loPI   C1A 1191  11.543  15.586  10.517 -0.2204  0.0184  0.2016
   75loPI   C2A 1192  11.630  15.512  10.056 -0.2308  0.0059 -0.3055
   75loPI   C3A 1193  11.693  15.468   9.562 -0.0968  0.1304  0.0572
   75loPI   C4A 1194  12.047  15.226   9.261  0.0960  0.1641 -0.2090
   75loPI   C5A 1195  12.278  15.264   8.945  0.2569 -0.0287  0.2254
   75loPI   C6A 1196  12.368  15.099   8.572  0.0440 -0.0928  0.5436
   75loPI   C1B 1197  11.318  15.181  10.254  0.0370  0.0615 -0.2537
   75loPI   C2B 1198  11.251  15.182   9.862 -0.0869  0.1262  0.1830
   75loPI   C3B 1199  11.206  15.288   9.434  0.0966 -0.1596  0.3144
   75loPI   C4B 1200  11.092  15.521   9.092 -0.2021 -0.3265  0.2078
   76loPI    C1 1201   3.335  11.130  11.483 -0.1156  0.1730 -0.0342
   76loPI    C2 1202   3.331  10.797  11.704 -0.1768  0.1159 -0.1208
   76loPI    C3 1203   3.619  11.069  11.757 -0.0815  0.0123 -0.1043
   76loPI   PO4 1204   3.267  11.024  11.227  0.1441 -0.1296 -0.4439
   76loPI   GL1 1205   3.508  11.103  10.915 -0.0064  0.1244 -0.0226
   76loPI   GL2 1206   3.612  11.342  10.736  0.3071  0.1741 -0.0049
   76loPI   C1A 1207   3.551  10.777  10.514 -0.1202  0.1897 -0.4292
   76loPI   C2A 1208   3.559  10.731  10.051 -0.2932 -0.7376 -0.0034
   76loPI   C3A 1209   3.460  10.834   9.622  0.0463  0.1484 -0.0433
   76loPI   C4A 1210   3.516  10.861   9.246 -0.2253  0.0771 -0.3593
   76loPI   C5A 1211   3.349  10.948   8.885 -0.2005 -0.0579 -0.1196
   76loPI   C6A 1212   3.208  11.222   8.549 -0.0542 -0.3518 -0.1255
   76loPI   C1B 1213   3.631  11.225  10.343  0.0003  0.0629  0.3668
   76loPI   C2B 1214   3.682  11.338   9.901  0.1425 -0.0582 -0.2588
   76loPI   C3B 1215   3.567  11.362   9.420 -0.0452  0.2045  0.2006
   76loPI   C4B 1216   3.506  11.385   9.001  0.0684  0.1090  0.0320
   77loPI    C1 1217   3.306  11.967  11.487 -0.1109  0.1554 -0.2517
   77loPI    C2 1218   3.490  12.246  11.707  0.0437 -0.0697 -0.0910
   77loPI    C3 1219   3.110  12.148  11.786  0.0603 -0.0634 -0.0017
   77loPI   PO4 1220   3.373  12.028  11.261 -0.0616  0.2599  0.0501
   77loPI   GL1 1221   3.724  12.126  11.044 -0.1872  0.2611 -0.0074
   77loPI   GL2 1222   3.911  11.740  10.992 -0.2371 -0.3005 -0.0941
   77loPI   C1A 1223   3.760  12.351  10.708 -0.2925  0.1250 -0.2429
   77loPI   C2A 1224   3.707  12.390  10.320  0.0529  0.1837 -0.3456
   77loPI   C3A 1225   3.751  12.346   9.945 -0.3879 -0.0633  0.0663
   77loPI   C4A 1226   3.762  12.409   9.544  0.1791 -0.2581  0.0326
   77loPI   C5A 1227   3.850  12.335   9.127 -0.0980  0.1889  0.1390
   77loPI   C6A 1228   4.032  12.462   8.815  0.0388  0.1863 -0.0031
   77loPI   C1B 1229   3.691  11.811  10.598  0.1075 -0.0684  0.2996
   77loPI   C2B 1230   3.662  11.848  10.151 -0.1520 -0.1189 -0.3722
   77loPI   C3B 1231   3.735  11.846   9.761 -0.0598 -0.3799 -0.2173
   77loPI   C4B 1232   3.709  11.951   9.462  0.0059  0.1377  0.3073
   78loPI    C1 1233   5.117   0.099  11.688 -0.0561  0.1034 -0.0418
   78loPI    C2 1234   5.334   0.350  11.912 -0.0762  0.1246 -0.0461
   78loPI    C3 1235   4.943   0.416  11.861 -0.1352 -0.0492  0.1629
   78loPI   PO4 1236   5.233   0.044  11.526 -0.0443 -0.2223 -0.1304
   78loPI   GL1 1237   5.264   0.023  11.093  0.1777  0.0108  0.1434
   78loPI   GL2 1238   5.401  -0.134  10.938  0.0207 -0.3107  0.0896
   78loPI   C1A 1239   5.014   0.083  10.670  0.2127 -0.0824 -0.0389
   78loPI   C2A 1240   5.014   0.084  10.260  0.0378 -0.2211 -0.3925
   78loPI   C3A 1241   5.061   0.168   9.831  0.0302 -0.2941 -0.1887
   78loPI   C4A 1242   5.108   0.211   9.398  0.0727 -0.2783 -0.1782
   78loPI   C5A 1243   5.108   0.207   9.009  0.0045  0.0405  0.0763
   78loPI   C6A 1244   5.216  -0.095   8.595  0.2723  0.2836 -0.1590
   78loPI   C1B 1245   5.454  -0.123  10.483 -0.1606 -0.0953  0.0812
   78loPI   C2B 1246   5.441  -0.120  10.022  0.1366 -0.4315 -0.2044
   78loPI   C3B 1247   5.503  -0.252   9.582 -0.2102  0.1679  0.0656
   78loPI   C4B 1248   5.491  -0.094   9.140 -0.2685  0.3360 -0.0031
   79loPI    C1 1249   2.085   8.724  11.271  0.0043 -0.2872 -0.3340
   79loPI    C2 1250   2.461   8.673  11.397  0.0419 -0.0090 -0.3258
   79loPI    C3 1251   2.187   8.390  11.466  0.1197  0.0256  0.1602
   79loPI   PO4 1252   2.097   8.898  11.004 -0.0609 -0.0137 -0.0337
   79loPI   GL1 1253   1.870   9.188  10.824 -0.1392  0.1849  0.0602
   79loPI   GL2 1254   1.813   8.833  10.612 -0.1578  0.0817 -0.0635
   79loPI   C1A 1255   1.789   9.266  10.380 -0.3817  0.0956  0.0735
   79loPI   C2A 1256   1.798   9.201   9.967 -0.1599  0.0931 -0.0234
   79loPI   C3A 1257   1.882   9.046   9.546 -0.2781 -0.0376 -0.2172
   79loPI   C4A 1258   1.997   9.095   9.049  0.1220 -0.3231 -0.1621
   79loPI   C5A 1259   2.121   8.783   8.679  0.0501 -0.0501  0.2146
   79loPI   C6A 1260   2.168   8.650   8.300  0.0284  0.2746 -0.3139
   79loPI   C1B 1261   1.846   8.697  10.249  0.0454  0.2846  0.4498
   79loPI   C2B 1262   1.734   8.574   9.768 -0.1688  0.1436  0.3647
   79loPI   C3B 1263   1.808   8.652   9.230  0.1325  0.1111 -0.1572
   79loPI   C4B 1264   1.684   8.598   8.841  0.0406 -0.1169  0.2092
   80loPI    C1 1265  13.569   8.640  11.630 -0.0449 -0.1464 -0.0129
   80loPI    C2 1266  13.451   8.884  11.924 -0.1266 -0.2108  0.0084
   80loPI    C3 1267  13.825   8.740  11.921  0.0321  0.1890 -0.1907
   80loPI   PO4 1268  13.516   8.759  11.412  0.0914  0.2319 -0.0023
   80loPI   GL1 1269  13.532   8.575  11.024 -0.1438 -0.0328 -0.0805
   80loPI   GL2 1270  13.727   8.477  10.938  0.0690  0.2231 -0.1184
   80loPI   C1A 1271  13.357   8.534  10.536  0.4631  0.0698 -0.3039
   80loPI   C2A 1272  13.348   8.315  10.112 -0.3585 -0.3463  0.0933
   80loPI   C3A 1273  13.267   7.989   9.924 -0.2236 -0.1431  0.3317
   80loPI   C4A 1274  13.249   7.971   9.549  0.4530 -0.1336 -0.2806
   80loPI   C5A 1275  13.195   8.078   9.182 -0.3128 -0.0247  0.0980
   80loPI   C6A 1276  12.913   7.850   8.945 -0.1405 -0.2534 -0.4441
   80loPI   C1B 1277  13.794   8.321  10.613 -0.1850  0.0321 -0.0976
   80loPI   C2B 1278  13.805   8.299  10.178  0.1870  0.0195 -0.0174
   80loPI   C3B 1279  13.781   8.210   9.742 -0.0602 -0.1256 -0.0589
   80loPI   C4B 1280  13.719   8.150   9.408  0.4747 -0.1098 -0.0431
   81loPI    C1 1281   0.952   8.725  11.149  0.0893 -0.1756  0.1557
   81loPI    C2 1282   1.178   9.031  11.274 -0.2340  0.0712  0.1491
   81loPI    C3 1283   0.812   8.977  11.426 -0.2460 -0.2143  0.0254
   81loPI   PO4 1284   1.122   8.665  10.933  0.1970 -0.1225  0.0403
   81loPI   GL1 1285   1.349   8.621  10.711 -0.3236  0.1560  0.0129
   81loPI   GL2 1286   1.330   9.032  10.684  0.0437 -0.1314  0.1827
   81loPI   C1A 1287   1.394   8.562  10.198 -0.0192  0.0098 -0.0530
   81loPI   C2A 1288   1.300   8.442   9.822 -0.3086 -0.0729  0.0743
   81loPI   C3A 1289   1.274   8.342   9.502  0.3193 -0.0560  0.2640
   81loPI   C4A 1290   1.274   8.337   9.098 -0.0817  0.0569  0.2566
   81loPI   C5A 1291   1.294   8.359   8.621  0.1340  0.0211 -0.2431
   81loPI   C6A 1292   1.426   8.413   8.183  0.1449  0.2080 -0.3402
   81loPI   C1B 1293   1.361   9.048  10.309  0.1917  0.2733 -0.2249
   81loPI   C2B 1294   1.338   8.976   9.852  0.3037  0.1868  0.0851
   81loPI   C3B 1295   1.378   8.793   9.454  0.0269 -0.3485  0.2834
   81loPI   C4B 1296   1.336   8.875   9.070 -0.0038 -0.1944 -0.0651
   82loPI    C1 1297  16.810   5.225  11.791  0.1736 -0.0876 -0.0965
   82loPI    C2 1298  17.151   5.434  11.791  0.1982 -0.1277 -0.1371
   82loPI    C3 1299  17.071   5.183  12.092  0.0312  0.1630  0.0653
   82loPI   PO4 1300  16.725   5.221  11.515  0.1047 -0.0425  0.2789
   82loPI   GL1 1301  16.955   5.071  11.117  0.0921 -0.1092  0.1326
   82loPI   GL2 1302  16.777   4.876  11.144  0.3346  0.0090  0.0431
   82loPI   C1A 1303  16.993   5.199  10.682 -0.1882 -0.3555  0.0411
   82loPI   C2A 1304  16.948   5.208  10.161  0.3286 -0.1827 -0.1395
   82loPI   C3A 1305  16.923   5.068   9.768  0.1302 -0.2514  0.0047
   82loPI   C4A 1306  16.997   4.870   9.302  0.0043  0.5593  0.0708
   82loPI   C5A 1307  17.066   4.656   8.881  0.2467  0.0557  0.5443
   82loPI   C6A 1308  16.735   4.382   8.616 -0.3104  0.1112 -0.1082
   82loPI   C1B 1309  16.551   4.957  10.787  0.0786  0.0361 -0.1333
   82loPI   C2B 1310  16.554   5.034  10.374  0.2617  0.0637 -0.2942
   82loPI   C3B 1311  16.487   5.004   9.983  0.3001 -0.0766  0.3789
   82loPI   C4B 1312  16.499   4.940   9.492 -0.1705 -0.1118  0.2069
   83loPI    C1 1313   8.722   0.795  11.617 -0.0824  0.0557 -0.0149
   83loPI    C2 1314   8.497   1.124  11.591  0.1603  0.2136 -0.1582
   83loPI    C3 1315   8.657   1.018  11.942 -0.4525 -0.1185  0.0352
   83loPI   PO4 1316   8.847   0.795  11.458 -0.0799 -0.1502  0.1107
   83loPI   GL1 1317   9.096   0.900  11.194  0.2395 -0.2786 -0.0839
   83loPI   GL2 1318   9.059   1.124  11.071 -0.0874 -0.0632  0.2914
   83loPI   C1A 1319   9.346   0.829  10.824 -0.1246  0.1822 -0.0152
   83loPI   C2A 1320   9.394   0.772  10.377 -0.4702  0.0194  0.0900
   83loPI   C3A 1321   9.438   0.750   9.937 -0.0259  0.0731 -0.0509
   83loPI   C4A 1322   9.381   0.831   9.558 -0.1400  0.2989  0.3378
   83loPI   C5A 1323   9.356   0.929   9.068  0.1814 -0.1526  0.1810
   83loPI   C6A 1324   9.460   0.870   8.645 -0.4071  0.1333  0.3723
   83loPI   C1B 1325   8.995   1.134  10.635  0.1061 -0.0506 -0.0831
   83loPI   C2B 1326   8.987   1.017  10.217 -0.2047  0.0402  0.2661
   83loPI   C3B 1327   8.983   1.170   9.737  0.2083 -0.0734  0.1009
   83loPI   C4B 1328   8.983   1.162   9.292 -0.1489  0.1078 -0.1098
   84loPI    C1 1329   7.332   4.459  11.468  0.0420  0.2703  0.0901
   84loPI    C2 1330   7.368   4.671  11.806  0.2017 -0.1380  0.3377
   84loPI    C3 1331   7.582   4.338  11.756  0.2583 -0.0280 -0.2171
   84loPI   PO4 1332   7.360   4.687  11.247  0.1135 -0.1169  0.1012
   84loPI   GL1 1333   7.529   4.635  10.876  0.0685 -0.0870 -0.0914
   84loPI   GL2 1334   7.639   4.944  10.870  0.1156 -0.0608  0.0284
   84loPI   C1A 1335   7.597   4.558  10.518 -0.0880 -0.2021 -0.0097
   84loPI   C2A 1336   7.621   4.440  10.091  0.2894  0.0137  0.0599
   84loPI   C3A 1337   7.620   4.527   9.589  0.0729 -0.2282 -0.0168
   84loPI   C4A 1338   7.696   4.535   9.158  0.1187 -0.2102 -0.2772
   84loPI   C5A 1339   7.608   4.271   8.786 -0.3053  0.0121 -0.4715
   84loPI   C6A 1340   7.624   3.868   8.569 -0.3825 -0.0425  0.2639
   84loPI   C1B 1341   7.593   5.055  10.449 -0.0854 -0.0510  0.4403
   84loPI   C2B 1342   7.700   5.026   9.991 -0.1662  0.1518 -0.0786
   84loPI   C3B 1343   7.724   5.047   9.533 -0.1602  0.0578 -0.0656
   84loPI   C4B 1344   8.011   5.090   9.091 -0.0531 -0.2736 -0.4017
   85loPI    C1 1345   7.250   0.767  11.875  0.1237 -0.1585 -0.0198
   85loPI    C2 1346   7.543   0.976  12.051 -0.0794  0.1369 -0.0246
   85loPI    C3 1347   7.240   0.833  12.269  0.1641 -0.3416  0.0124
   85loPI   PO4 1348   7.244   0.970  11.577  0.0340 -0.2198  0.2238
   85loPI   GL1 1349   7.180   1.104  11.193  0.2338  0.2759  0.1274
   85loPI   GL2 1350   7.096   0.914  10.960  0.0547  0.1900  0.0826
   85loPI   C1A 1351   7.203   1.293  10.714 -0.0720  0.0016  0.0374
   85loPI   C2A 1352   7.134   1.401  10.298 -0.0229 -0.0572  0.1487
   85loPI   C3A 1353   7.152   1.373   9.875 -0.2538  0.1243 -0.0993
   85loPI   C4A 1354   7.219   1.390   9.337  0.2745 -0.0964  0.2206
   85loPI   C5A 1355   7.085   1.615   8.932  0.2419  0.1184  0.0414
   85loPI   C6A 1356   7.089   1.512   8.511 -0.0436 -0.0179  0.1034
   85loPI   C1B 1357   7.090   0.857  10.503  0.1518 -0.2878  0.3232
   85loPI   C2B 1358   7.145   0.939  10.077 -0.3596  0.0719  0.0624
   85loPI   C3B 1359   7.107   0.966   9.652  0.2206  0.1692 -0.3096
   85loPI   C4B 1360   7.175   0.873   9.177  0.1949 -0.2740 -0.0173
   86loPI    C1 1361   4.966   1.415  11.320  0.1025  0.4310 -0.2861
   86loPI    C2 1362   5.071   1.717  11.560  0.1136  0.2524 -0.0615
   86loPI    C3 1363   5.271   1.371  11.576 -0.2000  0.0722  0.0251
   86loPI   PO4 1364   4.921   1.531  11.057  0.3772 -0.2637  0.3432
   86loPI   GL1 1365   5.010   1.568  10.728  0.0760 -0.0862 -0.0369
   86loPI   GL2 1366   5.327   1.722  10.737  0.2936  0.1094 -0.0121
   86loPI   C1A 1367   4.789   1.428  10.442 -0.0105  0.2726  0.0311
   86loPI   C2A 1368   4.810   1.410   9.987  0.0927 -0.0093  0.1466
   86loPI   C3A 1369   4.966   1.514   9.533  0.1038 -0.0709  0.1715
   86loPI   C4A 1370   4.871   1.407   9.071  0.0718  0.3045 -0.2306
   86loPI   C5A 1371   5.013   1.559   8.677  0.1027 -0.0074 -0.2676
   86loPI   C6A 1372   5.185   1.945   8.533 -0.1963 -0.1549 -0.0419
   86loPI   C1B 1373   5.367   1.635  10.271 -0.1961  0.2666  0.0322
   86loPI   C2B 1374   5.385   1.692   9.756 -0.0671 -0.0887 -0.2792
   86loPI   C3B 1375   5.487   1.734   9.386  0.2328  0.1045 -0.1743
   86loPI   C4B 1376   5.416   1.676   8.961 -0.0610  0.2365 -0.1838
   87loPI    C1 1377  11.519   5.956  11.697 -0.0541  0.0547 -0.1377
   87loPI    C2 1378  11.773   6.170  11.921 -0.1004  0.1155 -0.1431
   87loPI    C3 1379  11.397   6.111  12.045 -0.0313 -0.1305 -0.0464
   87loPI   PO4 1380  11.648   6.018  11.483  0.1965 -0.2010 -0.1934
   87loPI   GL1 1381  11.781   6.047  11.087 -0.1819  0.0155 -0.0110
   87loPI   GL2 1382  11.921   5.757  11.096  0.1721  0.0246 -0.1307
   87loPI   C1A 1383  11.622   6.089  10.658 -0.1117 -0.1881  0.0257
   87loPI   C2A 1384  11.622   5.970  10.220 -0.0226  0.0094 -0.2695
   87loPI   C3A 1385  11.546   6.002   9.817  0.0426  0.1052 -0.0656
   87loPI   C4A 1386  11.444   6.102   9.350 -0.0617 -0.1702 -0.0316
   87loPI   C5A 1387  11.362   5.890   8.982  0.1732  0.1743  0.3734
   87loPI   C6A 1388  11.001   5.627   8.969  0.1110  0.1760 -0.0344
   87loPI   C1B 1389  11.986   5.670  10.655  0.0083  0.0254 -0.0905
   87loPI   C2B 1390  11.949   5.634  10.103 -0.0856 -0.3503 -0.0820
   87loPI   C3B 1391  11.918   5.592   9.642  0.3828 -0.0609 -0.1527
   87loPI   C4B 1392  11.795   5.731   9.256 -0.0652 -0.1023  0.1564
   88loPI    C1 1393   8.369  12.032  11.357 -0.0152 -0.1270 -0.1455
   88loPI    C2 1394   8.639  12.167  11.619 -0.1000 -0.1442 -0.0481
   88loPI    C3 1395   8.343  11.929  11.743 -0.1436 -0.1486 -0.1593
   88loPI   PO4 1396   8.336  12.238  11.183 -0.2440  0.1447 -0.0985
   88loPI   GL1 1397   8.273  12.192  10.708  0.2452  0.0854 -0.0542
   88loPI   GL2 1398   8.180  12.441  10.565  0.0268  0.2071  0.0352
   88loPI   C1A 1399   8.320  11.740  10.503 -0.0361  0.0748  0.2126
   88loPI   C2A 1400   8.256  11.615  10.047 -0.3962 -0.3369 -0.0329
   88loPI   C3A 1401   8.370  11.552   9.645  0.4111 -0.0311 -0.1779
   88loPI   C4A 1402   8.240  11.594   9.265 -0.1079  0.0780 -0.2118
   88loPI   C5A 1403   8.306  11.549   8.846  0.1553 -0.2428  0.1093
   88loPI   C6A 1404   8.443  11.567   8.502 -0.3506  0.0846 -0.3407
   88loPI   C1B 1405   8.005  12.435  10.117 -0.0836 -0.2459  0.2302
   88loPI   C2B 1406   7.979  12.428   9.700  0.1341  0.0467 -0.2496
   88loPI   C3B 1407   7.883  12.407   9.273 -0.0642 -0.1484  0.0144
   88loPI   C4B 1408   7.834  12.267   8.839  0.1638  0.2451  0.0829
   89loPI    C1 1409   1.217  10.795  11.168 -0.3139  0.0210 -0.0563
   89loPI    C2 1410   1.220  11.122  11.398  0.1176  0.0793 -0.1366
   89loPI    C3 1411   1.402  10.788  11.522 -0.1497 -0.0719 -0.1428
   89loPI   PO4 1412   1.185  10.899  10.870  0.0886  0.2048 -0.1765
   89loPI   GL1 1413   0.852  10.997  10.529 -0.0513 -0.2573 -0.0902
   89loPI   GL2 1414   1.013  10.879  10.342 -0.0570 -0.3349 -0.1195
   89loPI   C1A 1415   0.801  11.329  10.211 -0.1747  0.0602 -0.2351
   89loPI   C2A 1416   0.742  11.397   9.850 -0.0581  0.2065  0.0069
   89loPI   C3A 1417   0.887  11.680   9.540 -0.1648 -0.0276 -0.0202
   89loPI   C4A 1418   0.801  11.722   9.058 -0.0835 -0.0770  0.0358
   89loPI   C5A 1419   0.576  11.529   8.698 -0.5812 -0.1187  0.2908
   89loPI   C6A 1420   0.388  11.595   8.351  0.1836 -0.3419  0.0818
   89loPI   C1B 1421   1.101  10.968   9.918  0.1533  0.0171 -0.2599
   89loPI   C2B 1422   0.944  10.897   9.447  0.1996 -0.1171  0.0316
   89loPI   C3B 1423   1.101  10.776   9.041 -0.0851  0.0569 -0.4254
   89loPI   C4B 1424   0.961  10.775   8.570  0.2294  0.2820  0.0393
   90loPI    C1 1425  12.790   0.459  11.880 -0.1779 -0.0909 -0.0809
   90loPI    C2 1426  12.697   0.699  12.186  0.0602 -0.1767  0.0611
   90loPI    C3 1427  12.599   0.311  12.199 -0.0477 -0.1527 -0.0306
   90loPI   PO4 1428  12.671   0.536  11.703 -0.1718 -0.1930  0.0732
   90loPI   GL1 1429  12.468   0.708  11.353 -0.2409 -0.1589 -0.1623
   90loPI   GL2 1430  12.672   0.956  11.308 -0.2634 -0.0123 -0.2696
   90loPI   C1A 1431  12.517   0.529  10.923 -0.1165 -0.1137 -0.2723
   90loPI   C2A 1432  12.654   0.564  10.557  0.2678  0.1510 -0.4792
   90loPI   C3A 1433  12.552   0.647  10.108  0.3011 -0.1411 -0.0534
   90loPI   C4A 1434  12.665   0.615   9.607  0.2159  0.1059 -0.5357
   90loPI   C5A 1435  12.708   0.609   9.264 -0.1561 -0.0787 -0.2531
   90loPI   C6A 1436  12.482   0.828   8.941  0.1087 -0.0623 -0.2364
   90loPI   C1B 1437  12.708   1.086  10.925 -0.1302  0.2702 -0.2188
   90loPI   C2B 1438  12.721   1.221  10.456 -0.2269 -0.1174  0.2559
   90loPI   C3B 1439  12.699   1.150  10.015 -0.0837  0.1062  0.2599
   90loPI   C4B 1440  12.796   1.108   9.626 -0.0726 -0.1674 -0.3142
   91loPI    C1 1441   7.082   0.027  11.622 -0.3366  0.2738 -0.4375
   91loPI    C2 1442   6.813   0.015  11.918  0.2072 -0.0500  0.0666
   91loPI    C3 1443   7.141   0.241  11.955  0.3364 -0.1819 -0.2407
   91loPI   PO4 1444   7.123  -0.105  11.395 -0.2269  0.1205 -0.0930
   91loPI   GL1 1445   6.873  -0.195  11.163 -0.0288 -0.1701 -0.2658
   91loPI   GL2 1446   7.006  -0.307  10.904  0.3667  0.3210  0.0155
   91loPI   C1A 1447   6.767   0.139  10.855 -0.0392  0.0990  0.0959
   91loPI   C2A 1448   6.908   0.296  10.443  0.1773 -0.1853 -0.1642
   91loPI   C3A 1449   7.034   0.349  10.034  0.4173  0.1590 -0.0769
   91loPI   C4A 1450   7.015   0.406   9.655  0.0549 -0.0611 -0.2853
   91loPI   C5A 1451   6.964   0.345   9.307  0.2643 -0.2312 -0.0722
   91loPI   C6A 1452   7.108   0.341   8.956 -0.0761 -0.0378  0.1029
   91loPI   C1B 1453   7.062  -0.178  10.460  0.3476  0.0408 -0.0294
   91loPI   C2B 1454   6.958  -0.163   9.983  0.0730  0.1482 -0.2504
   91loPI   C3B 1455   6.832  -0.176   9.569 -0.0515  0.0254  0.0869
   91loPI   C4B 1456   6.897  -0.130   9.138  0.1020  0.0547 -0.1874
   92loPI    C1 1457   4.642   0.930  11.425  0.0396 -0.3845  0.0380
   92loPI    C2 1458   4.590   0.791  11.797  0.2550 -0.0419  0.2008
   92loPI    C3 1459   4.340   1.066  11.649  0.1525 -0.1989  0.0802
   92loPI   PO4 1460   4.615   0.754  11.272  0.0346  0.1415  0.0966
   92loPI   GL1 1461   4.726   0.528  10.896  0.0476 -0.0768  0.1412
   92loPI   GL2 1462   4.387   0.633  10.848  0.3616  0.1387 -0.1258
   92loPI   C1A 1463   4.730   0.408  10.499  0.0769 -0.0397  0.1195
   92loPI   C2A 1464   4.678   0.429  10.012 -0.0362  0.1489 -0.1928
   92loPI   C3A 1465   4.727   0.502   9.636  0.0356  0.0396 -0.0305
   92loPI   C4A 1466   4.695   0.499   9.205  0.1921  0.0876  0.1518
   92loPI   C5A 1467   4.718   0.422   8.762  0.1298 -0.1758  0.1020
   92loPI   C6A 1468   4.628   0.763   8.416  0.0490 -0.0443 -0.0448
   92loPI   C1B 1469   4.318   0.743  10.377 -0.0959  0.3215  0.1534
   92loPI   C2B 1470   4.357   0.809   9.888 -0.1581  0.0705 -0.1443
   92loPI   C3B 1471   4.278   0.826   9.374  0.1732  0.0280  0.0185
   92loPI   C4B 1472   4.266   0.668   8.983 -0.0167  0.1958  0.2776
   93loPI    C1 1473  15.309   1.657  11.441 -0.0046 -0.0729  0.0351
   93loPI    C2 1474  15.017   1.487  11.655 -0.0006  0.0631  0.1495
   93loPI    C3 1475  15.173   1.837  11.771  0.0109  0.1316 -0.0684
   93loPI   PO4 1476  15.207   1.613  11.209 -0.4342 -0.0630  0.2579
   93loPI   GL1 1477  14.756   1.443  11.046  0.1785 -0.3346 -0.0067
   93loPI   GL2 1478  14.928   1.511  10.767  0.2143  0.1437  0.0303
   93loPI   C1A 1479  14.450   1.372  10.716  0.0493 -0.1374  0.1394
   93loPI   C2A 1480  14.423   1.282  10.269  0.1528 -0.0567  0.0510
   93loPI   C3A 1481  14.518   1.354   9.794 -0.0406  0.1580  0.0399
   93loPI   C4A 1482  14.550   1.213   9.457  0.0859  0.1929  0.1495
   93loPI   C5A 1483  14.263   0.955   9.194 -0.0512 -0.1472  0.1128
   93loPI   C6A 1484  14.283   0.961   8.678  0.0523  0.2946  0.0288
   93loPI   C1B 1485  15.025   1.536  10.443  0.2139 -0.1751  0.2012
   93loPI   C2B 1486  15.010   1.419  10.019 -0.1515  0.1581 -0.2835
   93loPI   C3B 1487  15.005   1.471   9.629  0.1794 -0.1585 -0.0462
   93loPI   C4B 1488  14.934   1.411   9.179 -0.0136  0.0004 -0.0004
   94loPI    C1 1489   8.120   5.352  11.516 -0.3063  0.1417  0.1332
   94loPI    C2 1490   7.780   5.501  11.666 -0.2891  0.0681  0.2467
   94loPI    C3 1491   7.937   5.166  11.819 -0.1903  0.0756  0.1635
   94loPI   PO4 1492   8.095   5.457  11.216 -0.3383  0.2409  0.0360
   94loPI   GL1 1493   8.000   5.587  10.918 -0.0905  0.0198 -0.0271
   94loPI   GL2 1494   8.264   5.817  10.915  0.2100  0.0514 -0.1896
   94loPI   C1A 1495   7.791   5.543  10.538  0.2163  0.0764 -0.1431
   94loPI   C2A 1496   7.773   5.494  10.112  0.1832  0.1747 -0.2892
   94loPI   C3A 1497   7.764   5.526   9.702  0.1593  0.0780  0.0260
   94loPI   C4A 1498   7.871   5.584   9.312 -0.0662 -0.2362 -0.0156
   94loPI   C5A 1499   7.973   5.548   8.843  0.0532  0.0262  0.3926
   94loPI   C6A 1500   7.996   5.187   8.568  0.3535 -0.1052  0.2128
   94loPI   C1B 1501   8.289   5.676  10.482 -0.1725  0.1565 -0.1584
   94loPI   C2B 1502   8.358   5.707  10.050 -0.0351 -0.0108 -0.1263
   94loPI   C3B 1503   8.222   5.777   9.654 -0.3148 -0.0979 -0.2122
   94loPI   C4B 1504   8.247   5.806   9.203  0.0248 -0.0132  0.0087
   95loPI    C1 1505   1.554  13.802  11.304  0.3146 -0.0848 -0.0245
   95loPI    C2 1506   1.832  14.048  11.454  0.2456 -0.2037  0.3050
   95loPI    C3 1507   1.564  13.876  11.697  0.0268 -0.2714  0.0207
   95loPI   PO4 1508   1.561  13.819  10.968 -0.4251  0.0844  0.0274
   95loPI   GL1 1509   1.722  13.820  10.639  0.0780  0.3123 -0.0621
   95loPI   GL2 1510   2.055  13.522  10.559 -0.0753 -0.0971 -0.1393
   95loPI   C1A 1511   1.738  13.895  10.231 -0.1074 -0.0556 -0.1434
   95loPI   C2A 1512   1.821  13.935   9.759  0.0776  0.0160 -0.0420
   95loPI   C3A 1513   1.811  13.857   9.313 -0.0009 -0.3079  0.0732
   95loPI   C4A 1514   1.818  13.745   8.884 -0.1431  0.3215  0.0414
   95loPI   C5A 1515   1.987  14.120   8.727 -0.0194  0.0554 -0.0976
   95loPI   C6A 1516   2.096  14.411   8.415 -0.0577 -0.0189  0.0000
   95loPI   C1B 1517   2.141  13.572  10.079 -0.1141 -0.1923 -0.0138
   95loPI   C2B 1518   2.168  13.589   9.561 -0.0913  0.1741 -0.0246
   95loPI   C3B 1519   2.226  13.636   9.123 -0.4014  0.1327 -0.2520
   95loPI   C4B 1520   2.477  13.763   8.854  0.0116  0.1670  0.2024
   96loPI    C1 1521   1.670   7.403  10.913  0.0130  0.0609  0.1689
   96loPI    C2 1522   1.808   7.067  11.080  0.3092  0.1359  0.0796
   96loPI    C3 1523   1.642   7.350  11.309  0.1549 -0.0243  0.1681
   96loPI   PO4 1524   1.907   7.437  10.748 -0.3173 -0.1512  0.0660
   96loPI   GL1 1525   2.085   7.636  10.473  0.2026 -0.0855  0.1321
   96loPI   GL2 1526   2.092   7.913  10.333 -0.1038  0.1553 -0.1488
   96loPI   C1A 1527   2.096   7.261  10.159  0.0150  0.2975 -0.0527
   96loPI   C2A 1528   2.063   7.208   9.612  0.2898  0.2130  0.0583
   96loPI   C3A 1529   2.146   7.182   9.117  0.3256  0.0673 -0.0165
   96loPI   C4A 1530   2.060   7.204   8.750 -0.1971 -0.2105  0.1589
   96loPI   C5A 1531   1.706   7.105   8.510  0.0163  0.0540 -0.3363
   96loPI   C6A 1532   1.338   7.109   8.283 -0.0664 -0.3305  0.0642
   96loPI   C1B 1533   2.114   7.701   9.936 -0.0479  0.1014 -0.1622
   96loPI   C2B 1534   2.204   7.708   9.677  0.2150  0.0536  0.1230
   96loPI   C3B 1535   2.174   7.752   9.294  0.2963 -0.1460  0.0716
   96loPI   C4B 1536   2.063   7.766   8.937 -0.0868 -0.3032  0.2848
   97loPI    C1 1537  16.163  11.571  11.352 -0.1434 -0.0371 -0.2456
   97loPI    C2 1538  16.209  11.311  11.652 -0.1151  0.1263 -0.1072
   97loPI    C3 1539  15.956  11.618  11.691 -0.0257  0.2135 -0.2066
   97loPI   PO4 1540  16.098  11.408  11.139  0.0424 -0.1142  0.1272
   97loPI   GL1 1541  16.347  11.150  10.840  0.1029  0.0282 -0.1622
   97loPI   GL2 1542  16.476  11.338  10.575  0.1788  0.0302  0.0702
   97loPI   C1A 1543  16.119  10.995  10.459 -0.4003 -0.3123  0.4117
   97loPI   C2A 1544  16.075  10.877  10.069 -0.0313  0.0491 -0.1063
   97loPI   C3A 1545  16.150  10.960   9.609  0.0331 -0.1870  0.0147
   97loPI   C4A 1546  15.939  10.849   9.286  0.0370  0.3789  0.2514
   97loPI   C5A 1547  15.684  10.887   8.985  0.2034  0.1577  0.0779
   97loPI   C6A 1548  15.204  10.914   9.010  0.1177  0.1148 -0.0088
   97loPI   C1B 1549  16.526  11.142  10.100 -0.2911  0.1733 -0.0133
   97loPI   C2B 1550  16.564  11.202   9.651  0.0772  0.0435 -0.0052
   97loPI   C3B 1551  16.474  11.203   9.216 -0.2560 -0.2351 -0.3066
   97loPI   C4B 1552  16.311  11.014   8.834 -0.3455  0.1723  0.2090
   98loPI    C1 1553  14.415   9.498  11.195  0.0593  0.1282 -0.0285
   98loPI    C2 1554  14.533   9.801  11.427  0.0781 -0.0710  0.2259
   98loPI    C3 1555  14.443   9.447  11.590 -0.1137 -0.1525 -0.0498
   98loPI   PO4 1556  14.365   9.656  10.975  0.3801  0.0245  0.2825
   98loPI   GL1 1557  14.435   9.741  10.644  0.1956  0.0669 -0.0776
   98loPI   GL2 1558  14.614   9.840  10.422 -0.0097  0.0752 -0.0790
   98loPI   C1A 1559  14.196   9.505  10.313 -0.0182 -0.0855 -0.0861
   98loPI   C2A 1560  14.172   9.482   9.902 -0.0648 -0.0434 -0.5970
   98loPI   C3A 1561  13.987   9.270   9.648 -0.1344  0.0072 -0.1479
   98loPI   C4A 1562  13.912   9.139   9.241  0.1049 -0.0905  0.1037
   98loPI   C5A 1563  13.910   8.990   8.783  0.3800 -0.1229 -0.1190
   98loPI   C6A 1564  13.987   9.180   8.308 -0.0875  0.4207 -0.1815
   98loPI   C1B 1565  14.563   9.756   9.969 -0.0341  0.0105 -0.0343
   98loPI   C2B 1566  14.764   9.669   9.519  0.0938 -0.2053  0.0388
   98loPI   C3B 1567  14.943   9.457   9.131  0.2156  0.1881 -0.0266
   98loPI   C4B 1568  15.102   9.430   8.778  0.0988 -0.0955  0.0423
   99loPI    C1 1569  11.968  10.053  11.694 -0.0501  0.1300 -0.2141
   99loPI    C2 1570  12.000   9.656  11.738  0.1594  0.1644 -0.0409
   99loPI    C3 1571  11.639   9.825  11.700  0.0730 -0.0490 -0.1849
   99loPI   PO4 1572  12.122  10.095  11.388 -0.0398 -0.0389  0.1792
   99loPI   GL1 1573  11.974  10.183  10.969 -0.1763  0.2899 -0.4572
   99loPI   GL2 1574  12.058   9.909  10.857  0.0830 -0.3940  0.1394
   99loPI   C1A 1575  11.839  10.271  10.489  0.2518  0.1761 -0.0415
   99loPI   C2A 1576  11.802  10.259  10.002 -0.0848  0.1335  0.1823
   99loPI   C3A 1577  11.938  10.080   9.624  0.1095 -0.1068 -0.0204
   99loPI   C4A 1578  11.846   9.927   9.232  0.0010  0.1897 -0.2775
   99loPI   C5A 1579  11.708  10.137   8.834 -0.2805  0.3330  0.1446
   99loPI   C6A 1580  11.758  10.444   8.453 -0.0106 -0.2588  0.4060
   99loPI   C1B 1581  12.049   9.824  10.450 -0.0213 -0.1396 -0.2277
   99loPI   C2B 1582  12.147   9.816  10.023 -0.1792 -0.0431  0.0911
   99loPI   C3B 1583  12.230   9.634   9.554 -0.1236  0.1442  0.3973
   99loPI   C4B 1584  12.364   9.562   9.059  0.3548 -0.4587 -0.1687
  100loPI    C1 1585   7.755  10.491  11.255 -0.2089  0.1564  0.1370
  100loPI    C2 1586   7.891  10.233  11.529  0.0442 -0.1679 -0.2810
  100loPI    C3 1587   7.976  10.622  11.562 -0.1400 -0.1630  0.2279
  100loPI   PO4 1588   7.624  10.283  11.135  0.2108 -0.1835  0.1203
  100loPI   GL1 1589   7.882  10.281  10.766  0.0737  0.3550  0.1012
  100loPI   GL2 1590   7.633  10.490  10.686  0.1348 -0.1707 -0.2727
  100loPI   C1A 1591   8.085  10.052  10.498 -0.1153 -0.0381  0.2765
  100loPI   C2A 1592   8.059  10.042  10.096  0.0078  0.3034  0.0630
  100loPI   C3A 1593   7.976  10.072   9.658  0.2020 -0.0544 -0.3574
  100loPI   C4A 1594   7.963  10.044   9.281 -0.1412  0.0627 -0.0399
  100loPI   C5A 1595   8.025  10.041   8.906 -0.5626  0.1900 -0.0824
  100loPI   C6A 1596   8.045   9.807   8.581  0.1701  0.0163 -0.1517
  100loPI   C1B 1597   7.676  10.330  10.320  0.0132  0.1487  0.0398
  100loPI   C2B 1598   7.653  10.321   9.924 -0.4411 -0.1807 -0.0867
  100loPI   C3B 1599   7.575  10.359   9.566  0.4412  0.0267  0.4019
  100loPI   C4B 1600   7.535  10.340   9.097  0.0429  0.1212  0.1372
  101loPI    C1 1601  10.527   3.867  11.741 -0.0299  0.0023  0.0127
  101loPI    C2 1602  10.699   3.943  12.094 -0.0185  0.3370 -0.0613
  101loPI    C3 1603  10.327   4.069  12.022 -0.1209  0.0348 -0.0752
  101loPI   PO4 1604  10.758   3.891  11.545  0.0442  0.0122 -0.0119
  101loPI   GL1 1605  10.802   3.884  11.153  0.1551  0.1129 -0.0704
  101loPI   GL2 1606  11.052   3.641  11.137 -0.1937 -0.1672 -0.1043
  101loPI   C1A 1607  10.673   3.862  10.732  0.2239 -0.2450  0.2895
  101loPI   C2A 1608  10.749   3.784  10.332  0.0202 -0.0996 -0.0738
  101loPI   C3A 1609  10.751   3.766   9.904  0.1810  0.0394 -0.3039
  101loPI   C4A 1610  10.688   3.713   9.540  0.0961 -0.1057  0.0110
  101loPI   C5A 1611  10.590   3.565   9.144  0.0298  0.0950 -0.2251
  101loPI   C6A 1612  10.656   3.902   8.855 -0.1920  0.4012  0.1049
  101loPI   C1B 1613  11.227   3.507  10.781  0.3641  0.2253 -0.0700
  101loPI   C2B 1614  11.094   3.510  10.470 -0.1756  0.1534  0.0309
  101loPI   C3B 1615  11.142   3.477  10.051 -0.0487 -0.2219  0.0310
  101loPI   C4B 1616  11.038   3.418   9.700 -0.0436 -0.1004  0.1317
  102loPI    C1 1617  12.735   3.621  11.425 -0.1640  0.0651  0.0334
  102loPI    C2 1618  12.732   3.963  11.631 -0.0551  0.0664  0.0337
  102loPI    C3 1619  12.620   3.622  11.809 -0.1348  0.0964  0.0420
  102loPI   PO4 1620  12.593   3.625  11.150  0.0785 -0.1312  0.0771
  102loPI   GL1 1621  12.802   3.619  10.786 -0.0402 -0.1449  0.0836
  102loPI   GL2 1622  13.070   3.528  10.729 -0.3246  0.1425 -0.4436
  102loPI   C1A 1623  12.744   3.561  10.345  0.1353  0.2536 -0.3860
  102loPI   C2A 1624  12.520   3.441   9.889  0.1004 -0.0366 -0.0423
  102loPI   C3A 1625  12.473   3.457   9.460 -0.0581  0.0174  0.0007
  102loPI   C4A 1626  12.337   3.523   9.075  0.0612 -0.0282  0.1894
  102loPI   C5A 1627  12.477   3.702   8.721  0.1700  0.0453  0.4221
  102loPI   C6A 1628  12.848   3.598   8.437 -0.2770  0.2153  0.1097
  102loPI   C1B 1629  13.029   3.156  10.576 -0.0396 -0.3445  0.2006
  102loPI   C2B 1630  12.925   3.133  10.098 -0.2660 -0.3001  0.3662
  102loPI   C3B 1631  12.979   3.167   9.729  0.2565  0.0962 -0.0186
  102loPI   C4B 1632  12.838   3.071   9.360  0.0816  0.5550 -0.0566
  103loPI    C1 1633  10.947   8.176  11.467  0.0148 -0.1834  0.0594
  103loPI    C2 1634  10.749   8.270  11.802  0.0815 -0.1920  0.1015
  103loPI    C3 1635  11.044   8.000  11.813  0.1688 -0.0993  0.0599
  103loPI   PO4 1636  10.730   8.168  11.167  0.1431  0.2367  0.1347
  103loPI   GL1 1637  10.436   7.845  11.003  0.0641 -0.0179  0.0406
  103loPI   GL2 1638  10.318   7.681  10.772 -0.0527 -0.1765  0.0397
  103loPI   C1A 1639  10.824   7.759  10.644 -0.1386  0.1033 -0.1655
  103loPI   C2A 1640  10.932   7.770  10.241  0.1873 -0.0329 -0.1960
  103loPI   C3A 1641  10.904   7.747   9.804  0.0011 -0.3530  0.0045
  103loPI   C4A 1642  10.905   7.734   9.367  0.0468  0.1424 -0.2231
  103loPI   C5A 1643  10.785   7.549   8.928 -0.1743  0.4150 -0.1583
  103loPI   C6A 1644  10.641   7.122   8.752  0.1485 -0.1342 -0.2426
  103loPI   C1B 1645  10.461   7.448  10.346  0.0974  0.2532 -0.0720
  103loPI   C2B 1646  10.465   7.468   9.929 -0.2018  0.0779  0.0732
  103loPI   C3B 1647  10.427   7.494   9.451 -0.2077  0.0297 -0.1063
  103loPI   C4B 1648  10.364   7.489   9.100 -0.0555  0.1122 -0.4721
  104loPI    C1 1649   1.214   2.799  11.709 -0.0234  0.1348  0.0575
  104loPI    C2 1650   1.196   2.467  11.931 -0.0751  0.0264 -0.1072
  104loPI    C3 1651   1.524   2.696  11.940  0.0080 -0.0923 -0.0828
  104loPI   PO4 1652   1.116   2.700  11.462 -0.1438  0.0586 -0.0447
  104loPI   GL1 1653   0.967   2.620  11.052 -0.3718 -0.2790 -0.0661
  104loPI   GL2 1654   0.839   2.918  10.911 -0.1062 -0.1519 -0.2103
  104loPI   C1A 1655   0.961   2.408  10.583  0.0844  0.1375  0.0157
  104loPI   C2A 1656   0.836   2.355  10.131  0.2350  0.3154  0.0737
  104loPI   C3A 1657   0.901   2.362   9.767 -0.0560 -0.0895  0.0648
  104loPI   C4A 1658   0.869   2.374   9.292  0.0746  0.2746  0.0154
  104loPI   C5A 1659   0.803   2.399   8.775  0.1140 -0.0325 -0.2843
  104loPI   C6A 1660   1.061   2.782   8.510 -0.0528 -0.2032  0.0593
  104loPI   C1B 1661   1.012   2.892  10.484  0.0220 -0.0908 -0.0745
  104loPI   C2B 1662   0.926   2.876  10.004  0.0934 -0.1347 -0.2782
  104loPI   C3B 1663   0.892   2.860   9.534 -0.1711  0.0254 -0.0520
  104loPI   C4B 1664   0.993   2.810   9.114  0.0436  0.3902 -0.2416
  105loPI    C1 1665   4.568   3.883  11.961 -0.2579  0.0810  0.2865
  105loPI    C2 1666   4.375   3.541  12.038 -0.2490  0.0626  0.2277
  105loPI    C3 1667   4.628   3.692  12.307 -0.0004 -0.1510  0.1184
  105loPI   PO4 1668   4.597   3.826  11.688 -0.0271  0.1312 -0.1441
  105loPI   GL1 1669   4.482   3.759  11.281  0.1516  0.1062 -0.0671
  105loPI   GL2 1670   4.228   3.870  11.206 -0.1396 -0.1266 -0.0672
  105loPI   C1A 1671   4.709   3.739  10.919  0.3894 -0.1403  0.0902
  105loPI   C2A 1672   4.692   3.874  10.509  0.2723  0.0498  0.1726
  105loPI   C3A 1673   4.787   3.859  10.138  0.0025  0.0846 -0.0462
  105loPI   C4A 1674   4.702   3.764   9.763  0.1510  0.0985 -0.1951
  105loPI   C5A 1675   4.769   3.898   9.379  0.2759  0.0532  0.0992
  105loPI   C6A 1676   4.495   4.034   8.990  0.0756 -0.1198 -0.1756
  105loPI   C1B 1677   4.405   4.154  10.861 -0.3196 -0.2906 -0.0620
  105loPI   C2B 1678   4.297   4.184  10.454  0.0979 -0.0760 -0.0572
  105loPI   C3B 1679   4.290   4.155  10.123  0.2981  0.1252  0.4056
  105loPI   C4B 1680   4.345   4.096   9.695 -0.0175  0.1116 -0.2402
  106loPI    C1 1681  11.466  11.468  11.397  0.0155 -0.1605 -0.1124
  106loPI    C2 1682  11.093  11.327  11.358  0.0014 -0.1546 -0.0035
  106loPI    C3 1683  11.337  11.173  11.635 -0.0240  0.0545  0.1376
  106loPI   PO4 1684  11.632  11.440  11.095  0.0973 -0.1253 -0.1921
  106loPI   GL1 1685  11.706  11.206  10.648  0.0192 -0.0062 -0.0198
  106loPI   GL2 1686  11.514  11.167  10.564  0.1620 -0.0611  0.0866
  106loPI   C1A 1687  11.644  11.531  10.295  0.2264 -0.0126  0.0665
  106loPI   C2A 1688  11.576  11.856   9.991  0.3112 -0.2502  0.0859
  106loPI   C3A 1689  11.417  11.898   9.600  0.1102  0.0345  0.1471
  106loPI   C4A 1690  11.545  11.911   9.175  0.1111 -0.0690  0.0961
  106loPI   C5A 1691  11.885  11.626   9.080 -0.1921  0.0155 -0.0590
  106loPI   C6A 1692  12.275  11.847   9.059  0.0748 -0.1401  0.0259
  106loPI   C1B 1693  11.330  11.064  10.137 -0.5000 -0.0268  0.1003
  106loPI   C2B 1694  11.461  10.991   9.603  0.0072 -0.3478  0.1005
  106loPI   C3B 1695  11.458  10.712   9.279 -0.0228  0.1644  0.0426
  106loPI   C4B 1696  11.699  10.735   8.917  0.0558  0.0826  0.1189
  107loPI    C1 1697   6.754   4.198  11.644 -0.0710 -0.3461  0.1326
  107loPI    C2 1698   7.075   4.205  11.882 -0.0299 -0.1583  0.0735
  107loPI    C3 1699   6.708   4.245  12.038 -0.0061 -0.0834  0.1107
  107loPI   PO4 1700   6.840   4.428  11.443  0.0987  0.0814  0.3149
  107loPI   GL1 1701   6.762   4.595  11.008  0.0879  0.0517  0.0078
  107loPI   GL2 1702   7.007   4.540  10.927  0.0470  0.0065 -0.0767
  107loPI   C1A 1703   6.590   4.637  10.643 -0.0108 -0.2275  0.1116
  107loPI   C2A 1704   6.624   4.635  10.230 -0.0227 -0.1227 -0.0813
  107loPI   C3A 1705   6.748   4.607   9.788 -0.1770  0.0433 -0.0707
  107loPI   C4A 1706   6.805   4.787   9.390  0.2758 -0.1146  0.4290
  107loPI   C5A 1707   6.783   4.909   8.940 -0.0502 -0.0443 -0.0149
  107loPI   C6A 1708   6.877   5.095   8.490  0.1859 -0.0181 -0.2118
  107loPI   C1B 1709   7.145   4.776  10.594 -0.1860 -0.0642  0.2931
  107loPI   C2B 1710   7.246   4.819  10.156 -0.1179  0.2741  0.1071
  107loPI   C3B 1711   7.194   4.818   9.690 -0.0223  0.1583 -0.2399
  107loPI   C4B 1712   7.287   4.938   9.288 -0.0732 -0.5503  0.2172
  108loPI    C1 1713   6.588   2.866  11.669  0.3053  0.2741 -0.4727
  108loPI    C2 1714   6.909   2.846  11.907  0.1074  0.0344 -0.2204
  108loPI    C3 1715   6.578   3.032  12.033  0.0295 -0.0220 -0.3404
  108loPI   PO4 1716   6.749   2.967  11.367 -0.1151 -0.0159  0.0583
  108loPI   GL1 1717   6.621   3.114  11.091 -0.0696  0.2083  0.1170
  108loPI   GL2 1718   6.328   3.126  10.989  0.3780  0.0996 -0.1127
  108loPI   C1A 1719   6.838   3.250  10.656 -0.0237  0.0280  0.0579
  108loPI   C2A 1720   7.063   3.347  10.229 -0.2905 -0.0482 -0.0359
  108loPI   C3A 1721   6.903   3.266   9.836 -0.3589  0.1067  0.4038
  108loPI   C4A 1722   6.986   3.307   9.340  0.1322  0.1555 -0.1840
  108loPI   C5A 1723   6.900   3.246   8.940  0.0201 -0.1365 -0.0377
  108loPI   C6A 1724   6.739   3.577   8.678 -0.0146  0.0129  0.1812
  108loPI   C1B 1725   6.443   3.034  10.505 -0.1181  0.0654 -0.1523
  108loPI   C2B 1726   6.392   3.104  10.039 -0.1933 -0.0130  0.0380
  108loPI   C3B 1727   6.497   3.029   9.596 -0.1570  0.1059  0.2100
  108loPI   C4B 1728   6.562   3.053   9.215 -0.0167 -0.3586 -0.0420
  109loPI    C1 1729   2.227  16.048  11.389  0.2587 -0.1206 -0.2194
  109loPI    C2 1730   2.590  16.086  11.555  0.1369 -0.0296  0.0310
  109loPI    C3 1731   2.264  16.076  11.787 -0.0113 -0.2609 -0.1829
  109loPI   PO4 1732   2.221  15.895  11.284  0.0026 -0.0432  0.0329
  109loPI   GL1 1733   2.301  15.858  10.826  0.5619  0.0371  0.0837
  109loPI   GL2 1734   1.975  15.901  10.561 -0.1645 -0.2771 -0.0077
  109loPI   C1A 1735   2.524  15.627  10.546 -0.0934  0.1175 -0.1861
  109loPI   C2A 1736   2.464  15.728  10.215 -0.2036  0.2761 -0.0603
  109loPI   C3A 1737   2.432  15.653   9.788 -0.5846  0.0078  0.1157
  109loPI   C4A 1738   2.491  15.703   9.357 -0.0647 -0.0800  0.0211
  109loPI   C5A 1739   2.684  15.877   9.025 -0.0805 -0.3180  0.0468
  109loPI   C6A 1740   3.102  16.002   8.820  0.4092 -0.2106 -0.1886
  109loPI   C1B 1741   2.033  16.043  10.014  0.1099 -0.1149  0.0233
  109loPI   C2B 1742   2.092  15.970   9.535 -0.2361  0.2408  0.0308
  109loPI   C3B 1743   2.143  16.054   9.115  0.0884 -0.0324  0.1484
  109loPI   C4B 1744   2.336  16.265   8.691 -0.1675 -0.0064 -0.1124
  110loPI    C1 1745  10.076  13.942  11.252 -0.0759  0.1473  0.0923
  110loPI    C2 1746  10.225  13.711  11.543 -0.0856 -0.0570 -0.0632
  110loPI    C3 1747  10.052  14.060  11.634 -0.1068 -0.1287  0.1777
  110loPI   PO4 1748   9.931  13.900  11.128 -0.1743  0.2672  0.2961
  110loPI   GL1 1749   9.952  13.914  10.662 -0.0114 -0.0379 -0.1181
  110loPI   GL2 1750   9.760  14.225  10.732  0.2419 -0.1502  0.1141
  110loPI   C1A 1751   9.937  14.046  10.270 -0.0484 -0.1509 -0.0497
  110loPI   C2A 1752   9.897  14.327   9.829  0.2245  0.0564  0.1287
  110loPI   C3A 1753   9.649  14.446   9.530 -0.0291  0.1119  0.1285
  110loPI   C4A 1754   9.404  14.395   9.148  0.0824  0.0340  0.0193
  110loPI   C5A 1755   9.474  14.471   8.720 -0.3149  0.5247 -0.1090
  110loPI   C6A 1756   9.519  14.680   8.471  0.3125  0.1733  0.2538
  110loPI   C1B 1757   9.857  14.481  10.451  0.1862 -0.2050 -0.1982
  110loPI   C2B 1758  10.023  14.679  10.139 -0.0499 -0.4237 -0.1250
  110loPI   C3B 1759   9.837  15.010   9.829  0.0466  0.0424 -0.0752
  110loPI   C4B 1760   9.756  14.968   9.428  0.0034  0.0726 -0.1552
  111loPI    C1 1761  10.860   3.170  11.637  0.3405  0.1933 -0.1940
  111loPI    C2 1762  10.736   3.411  11.932 -0.0156 -0.1823 -0.0257
  111loPI    C3 1763  11.097   3.239  11.952  0.1071  0.0742  0.0116
  111loPI   PO4 1764  10.768   3.333  11.385  0.1142 -0.1351 -0.2944
  111loPI   GL1 1765  10.697   3.398  10.919 -0.1488  0.2959  0.0597
  111loPI   GL2 1766  10.507   3.195  10.982  0.7989 -0.0107 -0.0210
  111loPI   C1A 1767  10.645   3.345  10.552 -0.0553  0.2031  0.0778
  111loPI   C2A 1768  10.582   3.287  10.146 -0.0771  0.2066  0.1542
  111loPI   C3A 1769  10.598   3.177   9.643  0.1190  0.0487 -0.1180
  111loPI   C4A 1770  10.806   3.091   9.338 -0.1257  0.0232 -0.1448
  111loPI   C5A 1771  11.121   2.992   8.921  0.2315  0.2435 -0.1251
  111loPI   C6A 1772  11.222   2.574   8.762  0.1904  0.4201 -0.0524
  111loPI   C1B 1773  10.199   3.098  10.633 -0.0159  0.2761 -0.0324
  111loPI   C2B 1774  10.144   2.931  10.178 -0.0156  0.0120 -0.1806
  111loPI   C3B 1775  10.145   3.123   9.824  0.0932 -0.1698 -0.1687
  111loPI   C4B 1776  10.101   3.011   9.424  0.2029 -0.4657  0.2035
  112loPI    C1 1777   0.425   3.556  11.480 -0.1726  0.2531  0.2319
  112loPI    C2 1778   0.196   3.736  11.207 -0.1348  0.0337  0.0529
  112loPI    C3 1779   0.032   3.592  11.542 -0.2629 -0.1326 -0.0795
  112loPI   PO4 1780   0.544   3.399  11.306  0.0886  0.0701 -0.0667
  112loPI   GL1 1781   0.581   3.472  10.974 -0.1430  0.1290 -0.0187
  112loPI   GL2 1782   0.627   3.747  10.934  0.3264 -0.0176 -0.1922
  112loPI   C1A 1783   0.578   3.262  10.612 -0.1536 -0.1596  0.1434
  112loPI   C2A 1784   0.510   3.202  10.098 -0.5134  0.1311  0.1796
  112loPI   C3A 1785   0.497   3.178   9.707  0.2097  0.0126 -0.3020
  112loPI   C4A 1786   0.485   3.033   9.282  0.2306  0.0722  0.1256
  112loPI   C5A 1787   0.444   2.604   9.100  0.0232 -0.3786  0.0486
  112loPI   C6A 1788   0.367   2.206   8.799 -0.2100 -0.2126  0.0756
  112loPI   C1B 1789   0.630   3.716  10.467 -0.0103  0.1497 -0.0866
  112loPI   C2B 1790   0.630   3.624   9.920 -0.0862  0.1170  0.0897
  112loPI   C3B 1791   0.562   3.683   9.487 -0.1599 -0.0528  0.1694
  112loPI   C4B 1792   0.504   3.641   9.096 -0.3343 -0.0412 -0.0696
  113loPI    C1 1793   7.926   1.474  11.294  0.0501 -0.0427  0.0698
  113loPI    C2 1794   7.827   1.110  11.159 -0.0495 -0.0015  0.0306
  113loPI    C3 1795   7.619   1.276  11.457 -0.0281  0.0393  0.0230
  113loPI   PO4 1796   8.175   1.451  11.337  0.1245  0.3139 -0.0518
  113loPI   GL1 1797   8.380   1.174  11.059  0.0336 -0.2243  0.0071
  113loPI   GL2 1798   8.570   1.003  10.892 -0.2719 -0.1870  0.0305
  113loPI   C1A 1799   8.125   1.120  10.646  0.3873 -0.0187  0.0819
  113loPI   C2A 1800   8.037   1.164  10.187 -0.1394  0.1754  0.1652
  113loPI   C3A 1801   8.146   1.239   9.715 -0.3058 -0.0683  0.1315
  113loPI   C4A 1802   8.061   1.325   9.354  0.3061  0.0172  0.0277
  113loPI   C5A 1803   8.124   1.159   8.922  0.1004 -0.1581 -0.1165
  113loPI   C6A 1804   8.184   0.783   8.723  0.0626  0.3142  0.1469
  113loPI   C1B 1805   8.495   0.885  10.415  0.0412  0.1472  0.0427
  113loPI   C2B 1806   8.512   0.906   9.972 -0.2717  0.1384  0.0171
  113loPI   C3B 1807   8.495   0.831   9.630  0.1058  0.2261  0.3144
  113loPI   C4B 1808   8.459   0.995   9.233 -0.0093  0.3245 -0.2707
  114loPI    C1 1809   5.466   6.333  11.419  0.0744  0.1320 -0.3200
  114loPI    C2 1810   5.435   6.717  11.528  0.0754  0.0876 -0.1609
  114loPI    C3 1811   5.134   6.464  11.599  0.2756 -0.0553  0.2078
  114loPI   PO4 1812   5.660   6.429  11.212  0.1585 -0.0862  0.0077
  114loPI   GL1 1813   5.592   6.621  10.811  0.0015 -0.2360 -0.1885
  114loPI   GL2 1814   5.828   6.290  10.730  0.0311 -0.0970 -0.0058
  114loPI   C1A 1815   5.629   6.592  10.399  0.3542 -0.0709 -0.1303
  114loPI   C2A 1816   5.533   6.682   9.938  0.0049 -0.0046  0.1709
  114loPI   C3A 1817   5.668   6.681   9.545 -0.2862  0.0152  0.0729
  114loPI   C4A 1818   5.715   6.751   9.166  0.3699  0.1778  0.2102
  114loPI   C5A 1819   5.971   6.831   8.826 -0.2656  0.0253  0.2403
  114loPI   C6A 1820   6.001   6.780   8.396 -0.2195  0.0641  0.0890
  114loPI   C1B 1821   5.976   6.270  10.242  0.0655  0.1854 -0.3150
  114loPI   C2B 1822   6.023   6.350   9.855 -0.2126  0.3270  0.0563
  114loPI   C3B 1823   5.874   6.245   9.396  0.0464  0.0696 -0.0615
  114loPI   C4B 1824   5.764   6.334   8.949  0.1272  0.0523  0.1017
  115loPI    C1 1825  13.905   7.019  11.580  0.0217  0.2537  0.1583
  115loPI    C2 1826  14.296   6.982  11.654  0.0490  0.2043 -0.0054
  115loPI    C3 1827  14.051   7.119  11.939  0.1236 -0.1450  0.2335
  115loPI   PO4 1828  13.909   7.117  11.323 -0.1998 -0.1260 -0.3869
  115loPI   GL1 1829  13.951   7.010  10.917  0.0812 -0.4009 -0.1138
  115loPI   GL2 1830  13.594   6.869  10.973  0.0215 -0.0120  0.1073
  115loPI   C1A 1831  14.094   6.978  10.454  0.2213 -0.1112  0.1078
  115loPI   C2A 1832  14.151   6.899  10.027  0.0038  0.0692 -0.1119
  115loPI   C3A 1833  14.069   6.923   9.623 -0.2427  0.1245 -0.2009
  115loPI   C4A 1834  13.986   6.934   9.169  0.1120  0.3424  0.3190
  115loPI   C5A 1835  14.272   6.783   8.802 -0.0604  0.2436  0.2239
  115loPI   C6A 1836  14.639   6.865   8.537  0.0992  0.2415 -0.0640
  115loPI   C1B 1837  13.516   6.824  10.636  0.2606  0.1516 -0.1532
  115loPI   C2B 1838  13.515   6.675  10.161 -0.5767  0.1697  0.0437
  115loPI   C3B 1839  13.520   6.719   9.740 -0.1462  0.1229  0.1445
  115loPI   C4B 1840  13.647   6.651   9.339  0.1951 -0.0199  0.2498
  116loPI    C1 1841  13.175  14.010  11.143 -0.2217  0.0290  0.1082
  116loPI    C2 1842  13.290  14.386  11.217  0.1013 -0.0851  0.2052
  116loPI    C3 1843  13.282  14.117  11.513 -0.0675 -0.1721  0.1234
  116loPI   PO4 1844  13.003  14.042  10.949  0.0911 -0.2557  0.3162
  116loPI   GL1 1845  12.861  14.468  10.689 -0.0987  0.3277  0.0628
  116loPI   GL2 1846  13.237  14.489  10.731 -0.1483  0.3141  0.1258
  116loPI   C1A 1847  13.015  14.250  10.249 -0.1522  0.2153  0.1944
  116loPI   C2A 1848  13.024  14.257   9.783  0.0270  0.1637 -0.1571
  116loPI   C3A 1849  13.178  14.331   9.410  0.1294  0.1942  0.0218
  116loPI   C4A 1850  13.087  14.441   9.042 -0.2840 -0.0465 -0.1863
  116loPI   C5A 1851  13.216  14.738   8.751 -0.0758  0.0015 -0.1877
  116loPI   C6A 1852  13.317  14.873   8.349 -0.1519  0.2095  0.1277
  116loPI   C1B 1853  13.292  14.721  10.439  0.1164  0.1823  0.2614
  116loPI   C2B 1854  13.263  14.731  10.092 -0.0213 -0.1654  0.1892
  116loPI   C3B 1855  13.163  14.722   9.706  0.0325  0.0671  0.1800
  116loPI   C4B 1856  13.365  14.754   9.295 -0.0622 -0.0251  0.1443
  117loPI    C1 1857   2.266  11.353  11.257  0.1580 -0.1340  0.0005
  117loPI    C2 1858   2.423  11.149  11.563  0.0403  0.0720  0.2017
  117loPI    C3 1859   2.107  11.386  11.623 -0.0245  0.0639 -0.0947
  117loPI   PO4 1860   2.185  11.091  11.076 -0.0683  0.0064  0.0628
  117loPI   GL1 1861   2.415  10.887  10.739 -0.0101  0.0158 -0.3086
  117loPI   GL2 1862   2.704  10.778  10.632 -0.0774 -0.0488  0.0257
  117loPI   C1A 1863   2.220  11.141  10.322 -0.1165  0.1428 -0.0584
  117loPI   C2A 1864   2.299  11.278   9.881 -0.2973 -0.2902 -0.2701
  117loPI   C3A 1865   2.274  11.261   9.415 -0.1534  0.1095  0.0233
  117loPI   C4A 1866   2.370  11.424   8.955  0.0067  0.2265 -0.1993
  117loPI   C5A 1867   2.476  11.775   8.913  0.3411  0.0656  0.0292
  117loPI   C6A 1868   2.431  12.221   8.925  0.2023 -0.1098 -0.2470
  117loPI   C1B 1869   2.586  10.811  10.114  0.0761  0.0102 -0.0989
  117loPI   C2B 1870   2.658  10.935   9.701  0.2748  0.3251  0.1573
  117loPI   C3B 1871   2.656  11.041   9.222  0.2947  0.0707  0.1601
  117loPI   C4B 1872   2.821  11.150   8.848  0.2385 -0.0343  0.2026
  118loPI    C1 1873   7.666   3.849  11.624 -0.2395  0.2774 -0.0949
  118loPI    C2 1874   7.364   3.777  11.876 -0.1714  0.0775 -0.0680
  118loPI    C3 1875   7.725   3.876  12.019 -0.1905  0.1891 -0.0957
  118loPI   PO4 1876   7.626   3.959  11.344 -0.2739  0.4689  0.0085
  118loPI   GL1 1877   7.303   4.143  11.014  0.2665  0.1729 -0.1669
  118loPI   GL2 1878   7.545   3.938  10.801  0.0575 -0.1591  0.1874
  118loPI   C1A 1879   7.244   4.234  10.622  0.1308 -0.2583 -0.0580
  118loPI   C2A 1880   7.141   4.314  10.366 -0.0670  0.0885  0.2899
  118loPI   C3A 1881   7.112   4.351   9.996 -0.3558  0.2642 -0.2186
  118loPI   C4A 1882   7.099   4.338   9.552 -0.1547  0.1243 -0.3470
  118loPI   C5A 1883   6.784   4.322   9.237 -0.2134  0.0383 -0.2519
  118loPI   C6A 1884   6.599   4.259   8.779 -0.0036 -0.0691  0.1143
  118loPI   C1B 1885   7.599   3.984  10.360  0.3685  0.0329  0.4722
  118loPI   C2B 1886   7.606   3.936   9.918  0.0980  0.0153 -0.1254
  118loPI   C3B 1887   7.550   4.048   9.571 -0.2746 -0.0821 -0.0871
  118loPI   C4B 1888   7.270   4.007   9.220 -0.1300  0.0432  0.1640
  119loPI    C1 1889  10.509  10.813  11.253 -0.0704  0.0812  0.0713
  119loPI    C2 1890  10.515  11.162  11.448  0.0866  0.1067  0.0215
  119loPI    C3 1891  10.851  10.948  11.410  0.0398  0.0612 -0.1475
  119loPI   PO4 1892  10.242  10.857  11.075  0.1011  0.0287 -0.2054
  119loPI   GL1 1893  10.059  11.016  10.670  0.3054  0.1198  0.1895
  119loPI   GL2 1894  10.503  11.207  10.535 -0.1083 -0.1065 -0.0012
  119loPI   C1A 1895  10.107  11.034  10.231  0.3850  0.0531  0.1570
  119loPI   C2A 1896  10.019  10.986   9.777  0.0192 -0.0663 -0.1555
  119loPI   C3A 1897  10.039  10.842   9.396  0.0153  0.1326  0.3327
  119loPI   C4A 1898   9.908  10.898   8.949 -0.1598  0.1194  0.1632
  119loPI   C5A 1899   9.639  11.040   8.688  0.1912  0.1536 -0.1348
  119loPI   C6A 1900   9.566  11.251   8.302 -0.2402  0.0868 -0.1453
  119loPI   C1B 1901  10.502  11.327   9.973 -0.1744  0.1165  0.0769
  119loPI   C2B 1902  10.652  11.168   9.534  0.1674  0.0153  0.3452
  119loPI   C3B 1903  11.017  11.048   9.323 -0.1237  0.1575  0.1091
  119loPI   C4B 1904  11.162  11.014   8.843 -0.0983 -0.1281 -0.0590
  120loPI    C1 1905   3.935  12.325  11.482 -0.1860  0.0459  0.0843
  120loPI    C2 1906   4.180  12.081  11.280 -0.2460  0.0313  0.0287
  120loPI    C3 1907   4.220  12.122  11.676  0.0216  0.2367 -0.0166
  120loPI   PO4 1908   3.950  12.566  11.293  0.1558  0.0906 -0.0171
  120loPI   GL1 1909   4.174  12.552  10.989 -0.0429  0.2464  0.0305
  120loPI   GL2 1910   4.516  12.495  10.963  0.0475  0.1336  0.1241
  120loPI   C1A 1911   4.214  12.493  10.555  0.1033  0.1316  0.2495
  120loPI   C2A 1912   4.220  12.558  10.074 -0.3055 -0.0808  0.1596
  120loPI   C3A 1913   4.293  12.545   9.781  0.3147  0.2523  0.0443
  120loPI   C4A 1914   4.310  12.461   9.302 -0.0939 -0.1029 -0.0498
  120loPI   C5A 1915   4.316  12.877   9.029 -0.2489  0.1046  0.0224
  120loPI   C6A 1916   4.489  12.815   8.584 -0.0253  0.1416  0.0875
  120loPI   C1B 1917   4.789  12.659  10.541 -0.1225 -0.0170  0.0320
  120loPI   C2B 1918   4.749  12.764  10.052 -0.0634  0.3060 -0.1021
  120loPI   C3B 1919   4.707  12.650   9.547  0.2560 -0.2737  0.0335
  120loPI   C4B 1920   4.730  12.632   9.086  0.0562  0.1627  0.1778
  121loPI    C1 1921   0.962  12.012  11.056 -0.1460  0.0452 -0.1048
  121loPI    C2 1922   0.687  12.053  11.344 -0.1263 -0.1442 -0.0574
  121loPI    C3 1923   1.075  12.090  11.432 -0.1288 -0.0223 -0.0957
  121loPI   PO4 1924   0.874  11.799  10.913  0.0174 -0.0783  0.1437
  121loPI   GL1 1925   1.043  11.651  10.505 -0.0524 -0.0451  0.0626
  121loPI   GL2 1926   1.252  11.408  10.324  0.0355 -0.2690  0.1403
  121loPI   C1A 1927   1.012  11.785  10.056 -0.3204 -0.0345 -0.0773
  121loPI   C2A 1928   1.333  11.805   9.674 -0.1820  0.1340 -0.1562
  121loPI   C3A 1929   1.264  11.755   9.178  0.0857 -0.0357 -0.2380
  121loPI   C4A 1930   1.466  11.599   8.851 -0.4255  0.0024 -0.0657
  121loPI   C5A 1931   1.528  11.488   8.456 -0.3495  0.1116  0.1807
  121loPI   C6A 1932   1.695  11.189   8.284 -0.4076 -0.3042  0.0024
  121loPI   C1B 1933   1.324  11.366   9.994 -0.0634  0.1783  0.2009
  121loPI   C2B 1934   1.265  11.284   9.554  0.1650 -0.0542  0.1332
  121loPI   C3B 1935   1.137  11.289   9.099  0.1029 -0.1141  0.1704
  121loPI   C4B 1936   1.078  11.371   8.612  0.1510 -0.0772  0.1689
  122loPI    C1 1937   5.713  11.571  11.339 -0.0394  0.2112 -0.0136
  122loPI    C2 1938   5.708  11.970  11.364  0.2530  0.2114  0.0799
  122loPI    C3 1939   5.567  11.749  11.666  0.2224  0.2429  0.0886
  122loPI   PO4 1940   5.635  11.520  11.111 -0.0821 -0.2672 -0.0180
  122loPI   GL1 1941   5.520  11.486  10.765 -0.2485  0.2318  0.2095
  122loPI   GL2 1942   5.315  11.737  10.843  0.1950  0.1663  0.1351
  122loPI   C1A 1943   5.481  11.534  10.345  0.1052 -0.1130 -0.3788
  122loPI   C2A 1944   5.495  11.609   9.896  0.0349  0.2492 -0.0703
  122loPI   C3A 1945   5.563  11.477   9.556  0.0022  0.2248  0.0992
  122loPI   C4A 1946   5.477  11.523   9.219 -0.1058 -0.1857  0.0149
  122loPI   C5A 1947   5.580  11.570   8.739 -0.0618  0.3218  0.2173
  122loPI   C6A 1948   5.982  11.629   8.569  0.2044  0.0314 -0.0709
  122loPI   C1B 1949   5.103  11.874  10.456  0.1424  0.0184  0.1600
  122loPI   C2B 1950   5.064  11.833   9.977  0.1314 -0.1087 -0.1262
  122loPI   C3B 1951   5.130  11.844   9.541  0.0443 -0.1052  0.0430
  122loPI   C4B 1952   5.074  11.779   9.076  0.0947 -0.0117 -0.0689
  123loPI    C1 1953  13.663  10.056  11.430  0.0018 -0.0112 -0.0844
  123loPI    C2 1954  13.278  10.020  11.535  0.0679 -0.1684  0.1109
  123loPI    C3 1955  13.566   9.899  11.785  0.2385 -0.2714 -0.1308
  123loPI   PO4 1956  13.731  10.010  11.149  0.2977  0.0819 -0.0220
  123loPI   GL1 1957  13.749  10.219  10.802  0.1007  0.2168  0.0189
  123loPI   GL2 1958  13.708  10.420  10.757 -0.0509 -0.4794 -0.2255
  123loPI   C1A 1959  13.692  10.067  10.333 -0.0467 -0.1957 -0.2176
  123loPI   C2A 1960  13.770   9.798  10.064 -0.1470 -0.1061  0.1272
  123loPI   C3A 1961  13.758   9.728   9.678  0.1825 -0.2171 -0.1201
  123loPI   C4A 1962  13.649   9.526   9.358 -0.0840  0.2658  0.0682
  123loPI   C5A 1963  13.522   9.327   8.957  0.2188  0.0927 -0.2299
  123loPI   C6A 1964  13.564   9.354   8.586 -0.0336 -0.2543 -0.0455
  123loPI   C1B 1965  13.905  10.561  10.357 -0.0097  0.2408  0.1357
  123loPI   C2B 1966  13.956  10.606   9.991 -0.0268  0.0950  0.0247
  123loPI   C3B 1967  14.203  10.428   9.611 -0.0657 -0.0034  0.0445
  123loPI   C4B 1968  14.082  10.311   9.190 -0.0435 -0.2385 -0.0256
  124loPI    C1 1969  11.102   9.606  11.851 -0.0413  0.1619  0.1365
  124loPI    C2 1970  11.341   9.590  12.172  0.0244 -0.0216  0.0799
  124loPI    C3 1971  10.945   9.550  12.215  0.0353 -0.0723  0.1352
  124loPI   PO4 1972  11.284   9.432  11.616  0.1799  0.0171  0.3321
  124loPI   GL1 1973  11.209   9.238  11.168 -0.1259  0.0090 -0.0005
  124loPI   GL2 1974  11.549   9.321  11.079  0.0329  0.1576  0.3337
  124loPI   C1A 1975  11.145   9.427  10.778 -0.5612 -0.1411  0.1353
  124loPI   C2A 1976  11.157   9.357  10.359 -0.1558  0.2149 -0.1127
  124loPI   C3A 1977  11.286   9.439   9.929  0.1169  0.4431 -0.1720
  124loPI   C4A 1978  11.197   9.222   9.574 -0.2130 -0.0798  0.1080
  124loPI   C5A 1979  11.249   9.183   9.176 -0.0793  0.1052 -0.2856
  124loPI   C6A 1980  11.263   9.347   8.719 -0.2378  0.2694 -0.0606
  124loPI   C1B 1981  11.612   9.210  10.659 -0.0925  0.0133 -0.0290
  124loPI   C2B 1982  11.523   9.041  10.205  0.4142 -0.1653  0.1559
  124loPI   C3B 1983  11.602   8.914   9.754  0.1641  0.0360 -0.1886
  124loPI   C4B 1984  11.625   8.923   9.349  0.1056  0.0053 -0.3328
  125loPI    C1 1985   0.912   6.878  11.200 -0.0498  0.0525  0.0988
  125loPI    C2 1986   0.988   6.712  11.556  0.0505  0.0185  0.0619
  125loPI    C3 1987   0.656   6.928  11.503  0.0790  0.0977  0.2014
  125loPI   PO4 1988   0.922   6.713  10.989  0.0511 -0.0623 -0.0889
  125loPI   GL1 1989   0.695   6.713  10.633 -0.0321  0.0520 -0.0154
  125loPI   GL2 1990   0.847   7.120  10.689 -0.3238 -0.3852  0.1287
  125loPI   C1A 1991   0.653   6.645  10.212  0.0709  0.2780 -0.0615
  125loPI   C2A 1992   0.593   6.671   9.770  0.1114 -0.1724  0.1684
  125loPI   C3A 1993   0.477   6.588   9.279  0.1534  0.0630  0.2477
  125loPI   C4A 1994   0.571   6.575   8.861  0.2752  0.2010 -0.2064
  125loPI   C5A 1995   0.923   6.410   8.597  0.0156 -0.0686  0.2917
  125loPI   C6A 1996   1.255   6.701   8.501  0.1374  0.0368  0.1739
  125loPI   C1B 1997   1.061   6.870  10.376 -0.3512 -0.2058  0.2617
  125loPI   C2B 1998   1.049   6.810   9.830 -0.0244  0.0188  0.1316
  125loPI   C3B 1999   1.039   6.805   9.347 -0.4440 -0.0057  0.0746
  125loPI   C4B 2000   1.159   6.785   8.954  0.0768  0.1884 -0.0943
  126loPI    C1 2001   5.423   3.248  11.760  0.0698 -0.1389 -0.0208
  126loPI    C2 2002   5.531   3.618  11.655 -0.0067 -0.0397  0.2409
  126loPI    C3 2003   5.598   3.489  12.027 -0.0264 -0.2726  0.1650
  126loPI   PO4 2004   5.123   3.259  11.709 -0.1522  0.0792  0.1440
  126loPI   GL1 2005   4.952   3.184  11.293  0.1840  0.1138  0.3026
  126loPI   GL2 2006   4.679   3.213  11.037 -0.1890  0.0037  0.0743
  126loPI   C1A 2007   5.094   3.404  10.944 -0.0584  0.2947 -0.0817
  126loPI   C2A 2008   5.063   3.543  10.519 -0.1788 -0.1316  0.0387
  126loPI   C3A 2009   5.143   3.551  10.051 -0.1650 -0.0095  0.0771
  126loPI   C4A 2010   5.208   3.541   9.561  0.0248 -0.0254 -0.0862
  126loPI   C5A 2011   5.041   3.555   9.078  0.1786  0.0097 -0.2598
  126loPI   C6A 2012   5.173   3.805   8.700  0.0208  0.1146  0.0585
  126loPI   C1B 2013   4.600   3.374  10.661  0.0809 -0.3902  0.2678
  126loPI   C2B 2014   4.685   3.358  10.265  0.2326  0.0667  0.3638
  126loPI   C3B 2015   4.696   3.285   9.881 -0.0329  0.0458  0.2261
  126loPI   C4B 2016   4.636   3.367   9.481  0.0816 -0.0291  0.1136
  127loPI    C1 2017   8.499   0.281  11.641  0.0491 -0.1711  0.1067
  127loPI    C2 2018   8.870   0.200  11.766  0.1455 -0.0934 -0.1239
  127loPI    C3 2019   8.603   0.355  12.020  0.2536 -0.2009  0.0576
  127loPI   PO4 2020   8.540   0.342  11.434 -0.0435 -0.1789  0.2894
  127loPI   GL1 2021   8.623   0.543  11.056 -0.2634  0.0172  0.1706
  127loPI   GL2 2022   8.356   0.401  10.925 -0.1843 -0.4134  0.0353
  127loPI   C1A 2023   8.876   0.670  10.690 -0.3079  0.0866  0.1755
  127loPI   C2A 2024   8.869   0.545  10.269  0.1367  0.0810 -0.0726
  127loPI   C3A 2025   8.930   0.632   9.780 -0.1190 -0.1102 -0.1948
  127loPI   C4A 2026   8.934   0.607   9.315  0.1059  0.2103  0.0573
  127loPI   C5A 2027   8.903   0.677   8.979 -0.2197  0.2350  0.1823
  127loPI   C6A 2028   9.123   0.467   8.751 -0.2724  0.1026  0.0029
  127loPI   C1B 2029   8.459   0.348  10.583  0.2185 -0.1124  0.0440
  127loPI   C2B 2030   8.428   0.418  10.131 -0.0771  0.2227 -0.0495
  127loPI   C3B 2031   8.347   0.378   9.800  0.0801 -0.1960 -0.0327
  127loPI   C4B 2032   8.337   0.412   9.313 -0.0647 -0.2143  0.3473
  128loPI    C1 2033   8.117  15.494  11.394 -0.3047 -0.0538 -0.0325
  128loPI    C2 2034   8.218  15.107  11.393  0.0963  0.0463  0.0387
  128loPI    C3 2035   8.088  15.278  11.730 -0.1241 -0.0347 -0.0035
  128loPI   PO4 2036   8.192  15.586  11.206  0.1030 -0.2333  0.3770
  128loPI   GL1 2037   8.163  15.607  10.752 -0.2401  0.1087  0.3394
  128loPI   GL2 2038   7.951  15.400  10.507  0.2048  0.2022 -0.1758
  128loPI   C1A 2039   8.164  15.770  10.403  0.0748 -0.0335  0.1284
  128loPI   C2A 2040   8.151  15.934  10.125  0.0075  0.3745 -0.1235
  128loPI   C3A 2041   8.052  15.910   9.697 -0.1716  0.0413  0.1935
  128loPI   C4A 2042   8.073  15.897   9.313  0.2081 -0.0259  0.1244
  128loPI   C5A 2043   8.117  15.827   8.830 -0.0135  0.0890  0.0241
  128loPI   C6A 2044   8.364  15.759   8.429  0.0305  0.1679  0.0511
  128loPI   C1B 2045   8.118  15.417  10.011  0.2864  0.0667 -0.0339
  128loPI   C2B 2046   7.975  15.431   9.606  0.1324  0.3466 -0.1519
  128loPI   C3B 2047   8.056  15.406   9.188 -0.0085 -0.0530  0.1935
  128loPI   C4B 2048   8.330  15.366   8.850  0.1362  0.2560 -0.2916
  129loPI    C1 2049   9.975   8.722  11.269 -0.0841 -0.2518  0.0035
  129loPI    C2 2050   9.790   8.438  11.480 -0.1348  0.0140  0.3246
  129loPI    C3 2051   9.713   8.823  11.554 -0.4213  0.1151 -0.4214
  129loPI   PO4 2052  10.168   8.605  11.131  0.4953  0.0478  0.2090
  129loPI   GL1 2053  10.046   8.603  10.704  0.2765 -0.1133  0.1839
  129loPI   GL2 2054  10.141   8.928  10.713  0.2416  0.0677  0.2781
  129loPI   C1A 2055  10.054   8.515  10.280  0.2562  0.0743 -0.0476
  129loPI   C2A 2056  10.133   8.284   9.847  0.1081 -0.2858 -0.0276
  129loPI   C3A 2057  10.090   8.366   9.492 -0.2452  0.0974 -0.2723
  129loPI   C4A 2058  10.181   8.387   9.103 -0.1063  0.2579 -0.2401
  129loPI   C5A 2059  10.081   8.548   8.703 -0.1578  0.2468 -0.2989
  129loPI   C6A 2060   9.955   8.442   8.227 -0.4304 -0.1015  0.1263
  129loPI   C1B 2061  10.217   9.192  10.392 -0.0960  0.3868 -0.0163
  129loPI   C2B 2062  10.256   9.029  10.030  0.1283  0.0609 -0.0824
  129loPI   C3B 2063  10.238   8.921   9.586  0.4140  0.1953 -0.0289
  129loPI   C4B 2064  10.178   8.941   9.141 -0.1371  0.1509 -0.2568
  130loPI    C1 2065  16.721   0.472  11.707  0.1609  0.1255 -0.1846
  130loPI    C2 2066  16.546   0.116  11.654 -0.1935  0.2345  0.1954
  130loPI    C3 2067  16.833   0.159  11.929  0.1226  0.1608 -0.1150
  130loPI   PO4 2068  16.750   0.537  11.482 -0.1172 -0.1398  0.1724
  130loPI   GL1 2069  16.504   0.445  11.166  0.3484  0.1148  0.0213
  130loPI   GL2 2070  16.723   0.203  11.069 -0.2596 -0.0733  0.0864
  130loPI   C1A 2071  16.323   0.618  10.873  0.0348 -0.1552 -0.1232
  130loPI   C2A 2072  16.205   0.602  10.336 -0.0037  0.0144  0.0622
  130loPI   C3A 2073  16.218   0.602   9.849 -0.0680 -0.1180 -0.5253
  130loPI   C4A 2074  16.205   0.635   9.462  0.0504 -0.1325  0.0262
  130loPI   C5A 2075  16.174   0.460   9.005  0.0229  0.0915 -0.1902
  130loPI   C6A 2076  16.351   0.615   8.647 -0.0094  0.1209  0.0408
  130loPI   C1B 2077  16.560   0.321  10.575 -0.1108  0.1932  0.2040
  130loPI   C2B 2078  16.611   0.231  10.177  0.0918  0.1594 -0.2072
  130loPI   C3B 2079  16.686   0.268   9.720  0.0046 -0.1329 -0.0890
  130loPI   C4B 2080  16.604   0.256   9.274 -0.2532  0.1586 -0.1493
  131loPI    C1 2081   6.148  11.269  11.362  0.1259  0.1572  0.0452
  131loPI    C2 2082   6.423  11.017  11.509  0.0437 -0.0212 -0.1022
  131loPI    C3 2083   6.117  11.135  11.738  0.2097  0.1327  0.0436
  131loPI   PO4 2084   6.132  11.246  11.079 -0.0954 -0.0772  0.0140
  131loPI   GL1 2085   6.117  11.090  10.717 -0.2582  0.0866 -0.0428
  131loPI   GL2 2086   6.411  10.927  10.546  0.0298  0.1635  0.0759
  131loPI   C1A 2087   5.900  11.236  10.357 -0.0233  0.0167  0.1586
  131loPI   C2A 2088   5.966  11.199   9.925 -0.0361 -0.0264  0.0770
  131loPI   C3A 2089   5.966  11.150   9.492  0.0448  0.1092 -0.0213
  131loPI   C4A 2090   5.913  11.248   9.063  0.1587 -0.0237  0.0602
  131loPI   C5A 2091   5.803  11.073   8.605 -0.0092 -0.0414 -0.0255
  131loPI   C6A 2092   5.893  10.905   8.168 -0.2520  0.1854 -0.0829
  131loPI   C1B 2093   6.333  10.794  10.125  0.0454 -0.2867  0.1766
  131loPI   C2B 2094   6.302  10.827   9.660 -0.3470  0.1841 -0.1267
  131loPI   C3B 2095   6.318  10.864   9.250  0.2584  0.1943  0.2067
  131loPI   C4B 2096   6.316  11.036   8.811 -0.0530  0.0903 -0.2818
  132loPI    C1 2097  16.930  12.703  10.982  0.1930  0.0541 -0.1680
  132loPI    C2 2098  17.175  12.616  11.286  0.0988 -0.0691 -0.1265
  132loPI    C3 2099  17.140  12.994  11.159  0.1041 -0.0094  0.0460
  132loPI   PO4 2100  17.033  12.573  10.804  0.1580  0.3505  0.3043
  132loPI   GL1 2101  16.891  12.389  10.384  0.4110  0.1582 -0.2289
  132loPI   GL2 2102  16.781  12.672  10.309 -0.0927  0.0238  0.0558
  132loPI   C1A 2103  16.927  11.942  10.088 -0.0811 -0.1635  0.3300
  132loPI   C2A 2104  16.935  11.939   9.779 -0.0687  0.0722 -0.0802
  132loPI   C3A 2105  17.045  12.041   9.328  0.0315  0.1875  0.1680
  132loPI   C4A 2106  16.956  12.023   8.858  0.1613  0.2238 -0.1267
  132loPI   C5A 2107  16.821  11.809   8.421  0.1983  0.2625  0.0907
  132loPI   C6A 2108  17.022  11.392   8.300  0.1454  0.0449 -0.2420
  132loPI   C1B 2109  17.026  12.470   9.941 -0.0815 -0.3240  0.0107
  132loPI   C2B 2110  17.222  12.504   9.448  0.3353  0.1905  0.0555
  132loPI   C3B 2111  17.158  12.693   9.014 -0.2793  0.0146  0.1763
  132loPI   C4B 2112  17.188  12.978   8.547  0.0453 -0.1895  0.1424
  133loPI    C1 2113  17.112   2.736  11.647 -0.1355  0.3289 -0.0961
  133loPI    C2 2114  17.027   2.906  11.999 -0.1238 -0.2324  0.1895
  133loPI    C3 2115  17.408   2.854  11.889 -0.1262 -0.1989  0.1656
  133loPI   PO4 2116  16.914   2.850  11.476  0.1108  0.0103  0.1986
  133loPI   GL1 2117  16.865   3.199  11.155  0.1823 -0.0787  0.0843
  133loPI   GL2 2118  16.604   3.142  10.934 -0.0529  0.0153 -0.0799
  133loPI   C1A 2119  17.084   2.862  10.863 -0.0090  0.4083  0.1013
  133loPI   C2A 2120  17.179   2.828  10.540 -0.1352  0.2828  0.0700
  133loPI   C3A 2121  17.069   2.822  10.050  0.1047 -0.2662  0.1421
  133loPI   C4A 2122  17.023   2.766   9.611  0.1179  0.1441 -0.1289
  133loPI   C5A 2123  17.041   2.713   9.147  0.1045 -0.1450  0.1413
  133loPI   C6A 2124  17.071   2.715   8.722 -0.2915  0.3354  0.2503
  133loPI   C1B 2125  16.666   3.121  10.550  0.1593 -0.1937  0.0697
  133loPI   C2B 2126  16.651   3.209  10.171 -0.1490  0.1509  0.0709
  133loPI   C3B 2127  16.680   3.099   9.775 -0.1831 -0.0579 -0.1488
  133loPI   C4B 2128  16.521   3.016   9.357 -0.1374  0.2516  0.0910
  134loPI    C1 2129   4.098  10.846  11.502  0.0531 -0.0108  0.0965
  134loPI    C2 2130   4.478  10.785  11.608  0.0686 -0.0838  0.0007
  134loPI    C3 2131   4.329  11.156  11.605  0.2038 -0.0297 -0.1748
  134loPI   PO4 2132   4.183  10.635  11.243  0.2157 -0.0481  0.3795
  134loPI   GL1 2133   4.531  10.649  11.081  0.0664  0.2139 -0.0329
  134loPI   GL2 2134   4.493  10.971  11.133  0.0846 -0.1482  0.2720
  134loPI   C1A 2135   4.413  10.670  10.637 -0.3135  0.0686 -0.0903
  134loPI   C2A 2136   4.433  10.689  10.260  0.0981  0.0054  0.0543
  134loPI   C3A 2137   4.366  10.682   9.769  0.1159  0.0658  0.0841
  134loPI   C4A 2138   4.407  10.680   9.335 -0.1445 -0.2842  0.1565
  134loPI   C5A 2139   4.212  10.399   8.927  0.0196 -0.0410 -0.3432
  134loPI   C6A 2140   4.051  10.262   8.600  0.2050  0.2350 -0.2981
  134loPI   C1B 2141   4.538  11.154  10.724  0.0591  0.0094 -0.3188
  134loPI   C2B 2142   4.471  11.188  10.290  0.1384 -0.2177 -0.1781
  134loPI   C3B 2143   4.535  11.112   9.833 -0.1805  0.0197 -0.3120
  134loPI   C4B 2144   4.522  11.205   9.453  0.1222 -0.2602 -0.0858
  135loPI    C1 2145  15.185   0.152  11.729  0.1161  0.1965  0.3464
  135loPI    C2 2146  15.007  -0.085  11.997 -0.1685 -0.0291 -0.0314
  135loPI    C3 2147  15.024   0.309  12.059 -0.3114 -0.0678  0.2723
  135loPI   PO4 2148  15.049   0.067  11.505 -0.0395 -0.3167  0.1314
  135loPI   GL1 2149  15.210   0.188  11.064  0.0377 -0.2173  0.0544
  135loPI   GL2 2150  15.448   0.316  11.132  0.0995  0.0887  0.0193
  135loPI   C1A 2151  15.279   0.189  10.589 -0.1005 -0.0819  0.0447
  135loPI   C2A 2152  15.258   0.244  10.149  0.1577 -0.1191 -0.2456
  135loPI   C3A 2153  15.306   0.133   9.790  0.0582 -0.2317 -0.0681
  135loPI   C4A 2154  15.339   0.120   9.427 -0.1621 -0.2508  0.0812
  135loPI   C5A 2155  15.270   0.041   8.959 -0.3067 -0.0157  0.0609
  135loPI   C6A 2156  15.420  -0.205   8.547  0.0819  0.1078  0.1095
  135loPI   C1B 2157  15.636  -0.047  10.844 -0.0984 -0.3498  0.1052
  135loPI   C2B 2158  15.693  -0.143  10.419 -0.0506 -0.0014 -0.1237
  135loPI   C3B 2159  15.661  -0.132   9.991  0.0442  0.2234 -0.1132
  135loPI   C4B 2160  15.784  -0.153   9.583 -0.0413 -0.0285  0.3777
  136loPI    C1 2161   0.430   4.537  11.423  0.3148  0.0548  0.0049
  136loPI    C2 2162   0.616   4.426  11.760  0.2857 -0.0713 -0.0201
  136loPI    C3 2163   0.370   4.742  11.762  0.2091 -0.1307  0.1002
  136loPI   PO4 2164   0.689   4.571  11.265  0.2186  0.1822 -0.0672
  136loPI   GL1 2165   0.804   4.330  10.970 -0.0643  0.2380  0.0334
  136loPI   GL2 2166   1.084   4.428  11.059  0.2214  0.0890 -0.0698
  136loPI   C1A 2167   0.689   4.237  10.507 -0.2308 -0.0330  0.0888
  136loPI   C2A 2168   0.667   4.108  10.081  0.0545 -0.0896 -0.0521
  136loPI   C3A 2169   0.672   4.178   9.679  0.0552  0.1764 -0.3421
  136loPI   C4A 2170   0.651   4.127   9.250  0.0915 -0.1097  0.0469
  136loPI   C5A 2171   0.371   4.307   8.927  0.3863  0.2838  0.0886
  136loPI   C6A 2172   0.258   4.458   8.509  0.2937  0.1451 -0.1345
  136loPI   C1B 2173   1.195   4.344  10.603 -0.0712 -0.2121 -0.0512
  136loPI   C2B 2174   1.112   4.416  10.150  0.0905 -0.0583  0.2690
  136loPI   C3B 2175   1.145   4.400   9.654  0.1349 -0.2550 -0.1935
  136loPI   C4B 2176   1.085   4.367   9.290 -0.5133 -0.0193  0.1105
  137loPI    C1 2177  15.030  13.582  11.223 -0.1292  0.1761 -0.0271
  137loPI    C2 2178  15.295  13.462  11.497 -0.2154 -0.1185 -0.0685
  137loPI    C3 2179  15.069  13.785  11.565  0.0729  0.0701  0.0144
  137loPI   PO4 2180  14.854  13.380  11.121 -0.0451 -0.2026  0.3031
  137loPI   GL1 2181  14.730  13.305  10.745  0.0861  0.0561  0.2725
  137loPI   GL2 2182  14.715  13.658  10.744 -0.0800 -0.1589  0.0298
  137loPI   C1A 2183  14.829  13.232  10.400  0.1849  0.1065  0.1213
  137loPI   C2A 2184  14.883  13.185   9.931 -0.0814  0.1402 -0.1533
  137loPI   C3A 2185  14.979  13.087   9.553  0.1680 -0.2905 -0.1278
  137loPI   C4A 2186  15.258  13.028   9.291 -0.0409  0.1905 -0.0551
  137loPI   C5A 2187  15.517  13.241   9.050 -0.1216 -0.1592  0.0825
  137loPI   C6A 2188  15.338  13.619   8.787  0.4403  0.1565  0.1240
  137loPI   C1B 2189  14.643  13.948  10.472  0.4377  0.1865  0.2007
  137loPI   C2B 2190  14.699  13.961   9.979 -0.1731 -0.0519 -0.0365
  137loPI   C3B 2191  14.706  14.024   9.484  0.2743  0.1742  0.1724
  137loPI   C4B 2192  14.559  14.177   9.043 -0.0423  0.0904  0.0121
  138loPI    C1 2193   8.699   8.818  11.253  0.2986  0.0980 -0.0519
  138loPI    C2 2194   8.886   8.524  11.449 -0.2346 -0.1628  0.0842
  138loPI    C3 2195   8.675   8.797  11.652 -0.2064 -0.0159 -0.0818
  138loPI   PO4 2196   8.719   8.962  10.979 -0.0323 -0.3529  0.1776
  138loPI   GL1 2197   8.624   8.904  10.666 -0.0508  0.2647 -0.2171
  138loPI   GL2 2198   8.433   8.670  10.565 -0.1770 -0.1707 -0.0272
  138loPI   C1A 2199   8.796   8.891  10.201  0.2011 -0.1858  0.1165
  138loPI   C2A 2200   8.898   8.938   9.778  0.1738 -0.0726  0.0286
  138loPI   C3A 2201   8.821   8.903   9.399  0.3366 -0.0678 -0.1671
  138loPI   C4A 2202   8.804   8.837   8.974 -0.0077 -0.2644 -0.0145
  138loPI   C5A 2203   8.556   8.766   8.653 -0.0091 -0.0909 -0.2175
  138loPI   C6A 2204   8.309   8.411   8.418 -0.0148  0.1872 -0.2128
  138loPI   C1B 2205   8.258   8.705  10.199 -0.0297  0.1673  0.2647
  138loPI   C2B 2206   8.358   8.824   9.657 -0.1162  0.2473  0.2572
  138loPI   C3B 2207   8.340   8.744   9.228  0.4109 -0.0542  0.0992
  138loPI   C4B 2208   8.092   8.690   8.825 -0.1130  0.0579  0.1685
  139loPI    C1 2209   7.483   7.397  11.404  0.1506 -0.0965 -0.0007
  139loPI    C2 2210   7.441   7.744  11.598 -0.0794 -0.1723  0.0879
  139loPI    C3 2211   7.441   7.400  11.802  0.0319 -0.2317 -0.0114
  139loPI   PO4 2212   7.253   7.508  11.156 -0.2851  0.1818 -0.0297
  139loPI   GL1 2213   7.148   7.198  10.757  0.2213 -0.3818  0.0912
  139loPI   GL2 2214   6.896   7.415  10.824  0.0449  0.1067  0.1489
  139loPI   C1A 2215   7.133   7.111  10.277  0.1077 -0.1403  0.3722
  139loPI   C2A 2216   7.153   7.183   9.807 -0.0158 -0.3008 -0.0655
  139loPI   C3A 2217   7.195   7.245   9.409 -0.0921  0.0823  0.3667
  139loPI   C4A 2218   7.337   7.480   9.014 -0.0926  0.2251 -0.2002
  139loPI   C5A 2219   7.471   7.597   8.512 -0.2681 -0.2458  0.1159
  139loPI   C6A 2220   7.159   7.777   8.205 -0.0743  0.2454  0.0529
  139loPI   C1B 2221   6.785   7.554  10.515 -0.1698 -0.2083 -0.1524
  139loPI   C2B 2222   6.688   7.578  10.049  0.0146 -0.1770 -0.0234
  139loPI   C3B 2223   6.810   7.491   9.629  0.0262 -0.0624 -0.2690
  139loPI   C4B 2224   6.779   7.588   9.209  0.0691 -0.4209 -0.4360
  140loPI    C1 2225   4.235   2.865  11.520 -0.0143 -0.0583  0.1174
  140loPI    C2 2226   4.373   2.666  11.838  0.2273 -0.0671  0.0089
  140loPI    C3 2227   4.268   3.050  11.873  0.2677 -0.0636  0.0958
  140loPI   PO4 2228   4.403   2.892  11.343  0.1306 -0.1046 -0.2898
  140loPI   GL1 2229   4.561   2.725  11.044  0.1495  0.1926  0.0911
  140loPI   GL2 2230   4.536   2.421  10.897  0.1780 -0.2788 -0.1918
  140loPI   C1A 2231   4.501   2.835  10.547  0.0968  0.2697 -0.1734
  140loPI   C2A 2232   4.567   2.785  10.180 -0.0217 -0.1452 -0.1585
  140loPI   C3A 2233   4.605   2.832   9.780 -0.2516 -0.0515  0.1703
  140loPI   C4A 2234   4.522   2.721   9.364  0.0662  0.2164 -0.0718
  140loPI   C5A 2235   4.343   2.566   8.914  0.1188  0.1037 -0.0784
  140loPI   C6A 2236   4.638   2.215   8.646 -0.2038  0.0284 -0.0469
  140loPI   C1B 2237   4.536   2.323  10.510 -0.0191  0.2364  0.2977
  140loPI   C2B 2238   4.568   2.266  10.027 -0.1017  0.1749  0.1751
  140loPI   C3B 2239   4.544   2.315   9.576 -0.1399 -0.0747 -0.1427
  140loPI   C4B 2240   4.516   2.245   9.198  0.0767  0.1878 -0.0271
  141loPI    C1 2241   2.487   1.223  11.742  0.0174  0.1163 -0.0113
  141loPI    C2 2242   2.095   1.206  11.816  0.0653 -0.0398  0.2211
  141loPI    C3 2243   2.327   0.891  11.898  0.2281  0.0223  0.0093
  141loPI   PO4 2244   2.438   1.413  11.572 -0.5748 -0.1901  0.1855
  141loPI   GL1 2245   2.319   1.343  11.136 -0.1141 -0.1488 -0.3404
  141loPI   GL2 2246   2.274   1.607  10.895 -0.1074  0.4094 -0.1237
  141loPI   C1A 2247   2.527   1.048  10.818  0.0549 -0.1241 -0.0582
  141loPI   C2A 2248   2.458   1.103  10.372 -0.0081  0.0814  0.0157
  141loPI   C3A 2249   2.554   1.046   9.872 -0.1371 -0.2423 -0.0696
  141loPI   C4A 2250   2.508   1.020   9.394  0.2826 -0.1674  0.2841
  141loPI   C5A 2251   2.304   1.024   8.941 -0.2093  0.2080  0.0392
  141loPI   C6A 2252   1.975   1.306   8.835 -0.0767 -0.3834  0.1224
  141loPI   C1B 2253   2.104   1.403  10.586  0.0960  0.2391  0.0283
  141loPI   C2B 2254   2.061   1.377  10.114 -0.0503  0.0982  0.0061
  141loPI   C3B 2255   2.103   1.332   9.680  0.0294 -0.0837  0.3728
  141loPI   C4B 2256   2.085   1.320   9.304 -0.1077 -0.0992  0.1045
  142loPI    C1 2257   9.342   1.820  11.620 -0.2869  0.1061  0.1676
  142loPI    C2 2258   9.503   1.992  11.296  0.0949 -0.2447  0.1627
  142loPI    C3 2259   9.468   2.199  11.637 -0.2266  0.0985 -0.0714
  142loPI   PO4 2260   9.151   1.681  11.509  0.0661 -0.0365 -0.3237
  142loPI   GL1 2261   9.113   1.781  11.118  0.2374 -0.2032 -0.2627
  142loPI   GL2 2262   9.054   2.084  11.090  0.1548  0.2368 -0.3802
  142loPI   C1A 2263   9.095   1.603  10.780  0.2410  0.1794  0.0666
  142loPI   C2A 2264   9.025   1.591  10.366 -0.0136  0.1242  0.0285
  142loPI   C3A 2265   9.046   1.596   9.990 -0.1656  0.0472  0.2257
  142loPI   C4A 2266   9.036   1.633   9.560 -0.0159  0.1622 -0.0341
  142loPI   C5A 2267   9.040   1.909   9.182 -0.1575 -0.2365 -0.1203
  142loPI   C6A 2268   8.954   1.814   8.862  0.0436 -0.0742 -0.2247
  142loPI   C1B 2269   9.079   2.129  10.635  0.1834  0.0571  0.1889
  142loPI   C2B 2270   9.079   2.069  10.205  0.0638 -0.0578  0.1644
  142loPI   C3B 2271   9.141   2.139   9.815  0.0040 -0.1589  0.0012
  142loPI   C4B 2272   9.062   2.324   9.392  0.1051  0.0464 -0.1264
  143loPI    C1 2273  13.565   9.524  11.427 -0.0564 -0.3344 -0.2174
  143loPI    C2 2274  13.364   9.193  11.529  0.0708 -0.3991 -0.1743
  143loPI    C3 2275  13.763   9.184  11.502  0.0942 -0.1879  0.0652
  143loPI   PO4 2276  13.368   9.633  11.171 -0.0009 -0.1836  0.3540
  143loPI   GL1 2277  13.520   9.598  10.857  0.0430 -0.0041  0.1000
  143loPI   GL2 2278  13.468   9.830  10.703  0.0722 -0.0317  0.2363
  143loPI   C1A 2279  13.677   9.397  10.508 -0.0378 -0.1339 -0.2667
  143loPI   C2A 2280  13.719   9.333  10.079  0.0874 -0.2374 -0.0052
  143loPI   C3A 2281  13.477   9.199   9.782  0.1539  0.2977  0.2699
  143loPI   C4A 2282  13.475   9.072   9.460 -0.1292 -0.0458  0.1725
  143loPI   C5A 2283  13.431   8.859   9.148 -0.5090 -0.0547  0.0354
  143loPI   C6A 2284  13.415   8.523   9.005 -0.1637  0.1038  0.4293
  143loPI   C1B 2285  13.179  10.066  10.485 -0.1284 -0.1871  0.1890
  143loPI   C2B 2286  13.236  10.025  10.079 -0.1323 -0.3460  0.0688
  143loPI   C3B 2287  13.217   9.973   9.657 -0.1467  0.1595 -0.0793
  143loPI   C4B 2288  13.189   9.878   9.242  0.2359  0.0289  0.0959
  144loPI    C1 2289   3.584  13.958  11.818  0.0369  0.0486 -0.2369
  144loPI    C2 2290   3.839  13.906  11.514  0.2703  0.0085 -0.0373
  144loPI    C3 2291   3.976  13.921  11.889 -0.0424 -0.2071  0.0890
  144loPI   PO4 2292   3.371  13.826  11.752  0.2882 -0.3427 -0.3047
  144loPI   GL1 2293   3.344  13.759  11.364 -0.2470 -0.0756 -0.2737
  144loPI   GL2 2294   3.353  13.390  11.172 -0.0433 -0.3023 -0.0142
  144loPI   C1A 2295   3.608  13.841  10.988 -0.0627  0.1716  0.1755
  144loPI   C2A 2296   3.520  13.688  10.575 -0.3618 -0.1582 -0.1085
  144loPI   C3A 2297   3.513  13.671  10.112  0.2651 -0.0558 -0.0509
  144loPI   C4A 2298   3.561  13.717   9.692  0.1472  0.2222  0.1838
  144loPI   C5A 2299   3.716  13.762   9.229  0.3497 -0.0466  0.0340
  144loPI   C6A 2300   3.772  13.759   8.832  0.1124 -0.3948  0.0173
  144loPI   C1B 2301   3.082  13.561  10.895  0.1310  0.2377  0.1859
  144loPI   C2B 2302   2.948  13.467  10.433 -0.0742  0.0231 -0.0508
  144loPI   C3B 2303   3.074  13.486  10.037  0.0246  0.1068  0.3179
  144loPI   C4B 2304   3.008  13.475   9.600  0.0906 -0.0468  0.0269
  145loPI    C1 2305   4.065   9.016  11.396 -0.0514  0.1713 -0.1213
  145loPI    C2 2306   4.216   9.247  11.106  0.0364  0.1310 -0.1079
  145loPI    C3 2307   4.193   9.385  11.481  0.0860  0.1191 -0.1005
  145loPI   PO4 2308   3.963   8.758  11.237 -0.1446 -0.1058  0.0261
  145loPI   GL1 2309   3.741   8.865  10.842  0.2843  0.3951 -0.3241
  145loPI   GL2 2310   3.777   8.571  10.795 -0.0112  0.2647  0.1853
  145loPI   C1A 2311   3.662   8.928  10.450  0.0709 -0.2876 -0.1016
  145loPI   C2A 2312   3.710   8.829  10.128 -0.4310 -0.2942  0.1060
  145loPI   C3A 2313   3.642   8.785   9.721 -0.2387  0.1204 -0.3136
  145loPI   C4A 2314   3.683   8.956   9.377  0.0710  0.0699 -0.2112
  145loPI   C5A 2315   3.773   9.048   8.920 -0.2788  0.3410 -0.0869
  145loPI   C6A 2316   3.583   9.274   8.666 -0.0010 -0.1600 -0.2559
  145loPI   C1B 2317   3.566   8.380  10.440 -0.1123  0.1610 -0.0151
  145loPI   C2B 2318   3.676   8.370  10.090 -0.0123  0.1700 -0.0178
  145loPI   C3B 2319   3.566   8.324   9.636  0.3483  0.0353 -0.0129
  145loPI   C4B 2320   3.630   8.278   9.260 -0.0869  0.1255 -0.0187
  146loPI    C1 2321   6.488   7.504  11.498  0.1161  0.0710 -0.0059
  146loPI    C2 2322   6.237   7.313  11.745  0.1554  0.0698  0.0332
  146loPI    C3 2323   6.237   7.713  11.729  0.0831  0.0675 -0.0382
  146loPI   PO4 2324   6.498   7.356  11.293 -0.0673  0.1112  0.1421
  146loPI   GL1 2325   6.398   7.285  10.936  0.1417  0.3681 -0.3747
  146loPI   GL2 2326   6.161   7.366  10.679 -0.2772  0.0182  0.1127
  146loPI   C1A 2327   6.640   7.086  10.533  0.4764  0.4824 -0.1620
  146loPI   C2A 2328   6.682   7.089  10.135 -0.3882 -0.0779  0.0425
  146loPI   C3A 2329   6.638   7.006   9.655  0.1091  0.0302 -0.2168
  146loPI   C4A 2330   6.639   7.114   9.227  0.5087  0.0082  0.1373
  146loPI   C5A 2331   6.956   7.258   8.822  0.1931 -0.2347  0.3516
  146loPI   C6A 2332   7.002   7.292   8.408  0.0512 -0.0532  0.2420
  146loPI   C1B 2333   6.260   7.395  10.283  0.1930  0.2583  0.0158
  146loPI   C2B 2334   6.269   7.352   9.822 -0.0976 -0.0991 -0.2499
  146loPI   C3B 2335   6.321   7.465   9.346 -0.0873 -0.1107 -0.1195
  146loPI   C4B 2336   6.285   7.361   8.937  0.1396 -0.2449 -0.1403
  147loPI    C1 2337   2.471   5.669  11.546 -0.0112  0.1554  0.0164
  147loPI    C2 2338   2.135   5.629  11.759 -0.0889 -0.0772 -0.1447
  147loPI    C3 2339   2.491   5.583  11.936 -0.1387  0.1796  0.0287
  147loPI   PO4 2340   2.379   5.585  11.294 -0.2819  0.0190 -0.2541
  147loPI   GL1 2341   2.663   5.754  10.890 -0.1403  0.0985 -0.0053
  147loPI   GL2 2342   2.644   5.378  10.838  0.3198  0.0431 -0.0100
  147loPI   C1A 2343   2.325   5.800  10.695 -0.1943  0.0942 -0.0052
  147loPI   C2A 2344   2.355   5.807  10.263 -0.1580 -0.0808  0.0302
  147loPI   C3A 2345   2.385   5.731   9.814  0.1280  0.0072 -0.0959
  147loPI   C4A 2346   2.310   5.858   9.346  0.2082  0.1242  0.1021
  147loPI   C5A 2347   2.155   5.927   8.999 -0.3656 -0.0042 -0.0096
  147loPI   C6A 2348   1.837   6.016   8.722 -0.0013  0.1522 -0.0157
  147loPI   C1B 2349   2.749   5.546  10.402 -0.3121  0.0987 -0.2028
  147loPI   C2B 2350   2.740   5.390   9.991 -0.0435  0.2299 -0.1632
  147loPI   C3B 2351   2.729   5.436   9.501  0.0026 -0.1004  0.1666
  147loPI   C4B 2352   2.674   5.230   9.102  0.4938  0.1572 -0.0065
  148loPI    C1 2353  13.124  12.196  11.518 -0.0266  0.0725 -0.1492
  148loPI    C2 2354  13.483  12.357  11.447  0.0576  0.0042  0.1105
  148loPI    C3 2355  13.301  12.421  11.797 -0.1588 -0.0091  0.0022
  148loPI   PO4 2356  13.019  12.186  11.171  0.0289 -0.0245  0.2881
  148loPI   GL1 2357  13.005  12.237  10.761 -0.1368 -0.0789 -0.2107
  148loPI   GL2 2358  12.959  11.912  10.732 -0.1714 -0.1948 -0.2129
  148loPI   C1A 2359  13.268  12.408  10.473 -0.3902  0.0772  0.0268
  148loPI   C2A 2360  13.390  12.358  10.028  0.0932  0.1094  0.2330
  148loPI   C3A 2361  13.503  12.354   9.598  0.0096 -0.0149  0.0188
  148loPI   C4A 2362  13.772  12.361   9.249  0.1751  0.0123  0.0295
  148loPI   C5A 2363  13.551  12.454   8.917  0.1300  0.1266  0.0865
  148loPI   C6A 2364  13.256  12.398   8.590 -0.1043 -0.0418 -0.0898
  148loPI   C1B 2365  12.782  11.893  10.370  0.1314  0.1105 -0.0711
  148loPI   C2B 2366  12.976  11.870   9.990 -0.3403 -0.3248  0.2579
  148loPI   C3B 2367  13.039  11.830   9.548 -0.0676  0.2229 -0.3287
  148loPI   C4B 2368  13.323  12.068   9.270  0.0699  0.0474 -0.2038
  149loPI    C1 2369  16.817   5.937  11.552 -0.0930 -0.1177  0.1296
  149loPI    C2 2370  16.531   6.138  11.358  0.1236 -0.2980 -0.3958
  149loPI    C3 2371  16.545   6.145  11.758 -0.1440  0.3488 -0.3850
  149loPI   PO4 2372  16.881   5.693  11.372 -0.0719 -0.1585  0.0594
  149loPI   GL1 2373  16.575   5.451  11.054  0.1992 -0.4104  0.1992
  149loPI   GL2 2374  16.232   5.321  10.963  0.2946 -0.0647  0.2423
  149loPI   C1A 2375  16.593   5.579  10.575  0.2433  0.2630  0.0453
  149loPI   C2A 2376  16.553   5.500  10.120  0.3694 -0.0132  0.0012
  149loPI   C3A 2377  16.646   5.503   9.645  0.2203  0.2479 -0.1524
  149loPI   C4A 2378  16.756   5.308   9.279  0.0074 -0.1825  0.1061
  149loPI   C5A 2379  16.365   5.194   9.096 -0.0991  0.2759 -0.1149
  149loPI   C6A 2380  16.017   5.306   8.892 -0.0108  0.0265  0.0517
  149loPI   C1B 2381  16.177   5.351  10.489 -0.1959 -0.0427 -0.0483
  149loPI   C2B 2382  16.028   5.273  10.150 -0.1639 -0.0397 -0.2214
  149loPI   C3B 2383  16.118   5.246   9.811  0.1343 -0.0567 -0.2023
  149loPI   C4B 2384  16.155   5.394   9.425 -0.1960 -0.1630 -0.1993
  150loPI    C1 2385  13.881   0.791  12.042 -0.1399  0.0033  0.1339
  150loPI    C2 2386  13.582   0.590  12.217 -0.1880 -0.2009 -0.1742
  150loPI    C3 2387  13.946   0.426  12.192 -0.1754 -0.1630 -0.2431
  150loPI   PO4 2388  13.795   0.758  11.785  0.1140 -0.1368 -0.0739
  150loPI   GL1 2389  13.822   0.861  11.399 -0.2315  0.3417  0.1259
  150loPI   GL2 2390  13.905   0.602  11.323 -0.1894 -0.1211 -0.0778
  150loPI   C1A 2391  13.541   0.937  11.004 -0.2228 -0.2304  0.1214
  150loPI   C2A 2392  13.535   1.022  10.606  0.2340 -0.1577  0.1653
  150loPI   C3A 2393  13.529   0.981  10.140 -0.1702  0.1079  0.1481
  150loPI   C4A 2394  13.563   1.001   9.660  0.2882 -0.3533 -0.2475
  150loPI   C5A 2395  13.755   0.795   9.268  0.0830  0.1485 -0.0413
  150loPI   C6A 2396  14.022   0.549   9.005  0.0516  0.3067  0.5269
  150loPI   C1B 2397  13.901   0.723  10.821 -0.0080 -0.0867 -0.2039
  150loPI   C2B 2398  13.919   0.735  10.358 -0.1429 -0.2870  0.0600
  150loPI   C3B 2399  13.999   0.624   9.901 -0.0355 -0.2025  0.1622
  150loPI   C4B 2400  14.075   0.538   9.527 -0.1422  0.1503 -0.1511
  151loPI    C1 2401   7.123  14.346  11.537  0.0407 -0.2581  0.0111
  151loPI    C2 2402   6.781  14.426  11.728  0.1199 -0.0100  0.0533
  151loPI    C3 2403   7.126  14.422  11.929  0.1729 -0.0029 -0.0370
  151loPI   PO4 2404   7.045  14.131  11.346  0.1964 -0.2043 -0.0988
  151loPI   GL1 2405   6.852  14.082  10.985  0.1606  0.1523 -0.0746
  151loPI   GL2 2406   6.809  13.804  11.059  0.0810  0.1374  0.0020
  151loPI   C1A 2407   6.946  14.322  10.560 -0.1912 -0.1764  0.2831
  151loPI   C2A 2408   7.013  14.407  10.034 -0.3101  0.1277 -0.0927
  151loPI   C3A 2409   6.981  14.515   9.565  0.1089  0.1940  0.2008
  151loPI   C4A 2410   6.689  14.393   9.262 -0.0360 -0.2716 -0.2113
  151loPI   C5A 2411   6.566  14.296   8.867  0.0814  0.1720 -0.0857
  151loPI   C6A 2412   6.552  14.256   8.361 -0.1231  0.3865  0.0841
  151loPI   C1B 2413   6.830  13.821  10.614 -0.2019  0.1333  0.0701
  151loPI   C2B 2414   6.792  13.931  10.239  0.0929  0.0868  0.2604
  151loPI   C3B 2415   6.848  13.997   9.813 -0.1100 -0.1805 -0.3131
  151loPI   C4B 2416   6.983  13.962   9.376 -0.2240  0.0630  0.0841
  152loPI    C1 2417   1.864  14.575  11.403 -0.1176 -0.0137 -0.2390
  152loPI    C2 2418   1.658  14.430  11.714  0.2534 -0.1400 -0.0455
  152loPI    C3 2419   1.737  14.822  11.691  0.3880 -0.1561  0.1209
  152loPI   PO4 2420   2.106  14.451  11.351  0.3102  0.2294  0.1538
  152loPI   GL1 2421   2.079  14.259  10.988  0.1701 -0.1508 -0.2290
  152loPI   GL2 2422   2.290  14.053  10.827  0.1489 -0.2274 -0.0152
  152loPI   C1A 2423   1.919  14.404  10.579  0.1587 -0.2237 -0.0049
  152loPI   C2A 2424   1.957  14.449  10.181  0.1537  0.3085  0.1387
  152loPI   C3A 2425   1.929  14.507   9.779  0.1017 -0.2824  0.4601
  152loPI   C4A 2426   1.791  14.352   9.475 -0.0474  0.0802  0.1885
  152loPI   C5A 2427   1.775  14.338   9.110 -0.1379 -0.2341 -0.0500
  152loPI   C6A 2428   1.735  14.624   8.754 -0.1598 -0.2515 -0.4596
  152loPI   C1B 2429   2.197  13.984  10.354 -0.3426 -0.0912 -0.0652
  152loPI   C2B 2430   2.261  14.115  10.011  0.0318 -0.2110  0.0162
  152loPI   C3B 2431   2.266  14.159   9.553  0.0653 -0.3482  0.1794
  152loPI   C4B 2432   2.280  14.145   9.174 -0.0435 -0.0390 -0.0881
  153loPI    C1 2433  10.731  16.431  11.405 -0.2523  0.0878 -0.2702
  153loPI    C2 2434  10.687  16.075  11.581 -0.5752  0.1944 -0.1267
  153loPI    C3 2435  10.726  16.404  11.804  0.2121  0.2047 -0.2515
  153loPI   PO4 2436  10.942  16.397  11.169  0.3973 -0.2032 -0.1146
  153loPI   GL1 2437  10.818  16.269  10.694  0.0490  0.0294 -0.1964
  153loPI   GL2 2438  11.156  16.392  10.710  0.1741 -0.0430 -0.2491
  153loPI   C1A 2439  10.850  16.072  10.308  0.1544 -0.0679 -0.1010
  153loPI   C2A 2440  10.836  15.977   9.904  0.1728  0.0479  0.1909
  153loPI   C3A 2441  10.885  16.134   9.503 -0.0259 -0.0417  0.2029
  153loPI   C4A 2442  10.777  16.002   9.084 -0.0207 -0.0258  0.1517
  153loPI   C5A 2443  10.810  15.989   8.696 -0.1211 -0.3257  0.2212
  153loPI   C6A 2444  11.168  16.260   8.529 -0.1141  0.1442 -0.0778
  153loPI   C1B 2445  11.010  16.541  10.331 -0.0923 -0.1640  0.3365
  153loPI   C2B 2446  10.995  16.441   9.873 -0.4132 -0.3505  0.1353
  153loPI   C3B 2447  10.929  16.600   9.361  0.3249 -0.1001  0.0930
  153loPI   C4B 2448  10.776  16.466   8.890  0.2379 -0.0874 -0.0789
  154loPI    C1 2449   5.007  12.885  11.603  0.0762 -0.0267  0.2922
  154loPI    C2 2450   5.056  12.602  11.882 -0.4174 -0.0966  0.3164
  154loPI    C3 2451   5.029  12.986  11.989 -0.1382 -0.0759  0.3187
  154loPI   PO4 2452   5.063  12.852  11.437  0.0609  0.1279  0.1166
  154loPI   GL1 2453   5.007  12.798  11.006  0.0577 -0.0521 -0.2576
  154loPI   GL2 2454   5.332  12.887  11.016  0.2336 -0.4639 -0.0542
  154loPI   C1A 2455   4.896  13.092  10.696  0.2725  0.3050 -0.2074
  154loPI   C2A 2456   4.855  13.198  10.298 -0.1155 -0.1924 -0.1017
  154loPI   C3A 2457   4.759  13.198   9.831 -0.2000  0.0924  0.2810
  154loPI   C4A 2458   4.877  13.171   9.404 -0.1006  0.2641 -0.2641
  154loPI   C5A 2459   4.786  13.072   8.919 -0.0237  0.0128 -0.1173
  154loPI   C6A 2460   5.003  12.771   8.691 -0.2319  0.2152  0.3180
  154loPI   C1B 2461   5.351  12.866  10.579 -0.1116  0.4591 -0.0180
  154loPI   C2B 2462   5.216  12.836  10.096 -0.2533  0.0003  0.0470
  154loPI   C3B 2463   5.192  12.867   9.658 -0.2314 -0.5788  0.0683
  154loPI   C4B 2464   5.224  12.902   9.162  0.0529 -0.1426 -0.0585
  155loPI    C1 2465  14.829   6.871  11.918 -0.2979 -0.1342  0.2189
  155loPI    C2 2466  15.065   7.176  12.025 -0.2500  0.0245 -0.3115
  155loPI    C3 2467  14.915   6.931  12.304 -0.0964  0.3876  0.1005
  155loPI   PO4 2468  14.791   6.951  11.628  0.1197 -0.0823  0.0251
  155loPI   GL1 2469  14.752   7.161  11.253  0.2375  0.3637  0.1159
  155loPI   GL2 2470  14.500   7.049  11.182  0.0698 -0.0690 -0.2092
  155loPI   C1A 2471  14.879   6.939  10.908  0.0514 -0.1191 -0.0459
  155loPI   C2A 2472  14.922   6.950  10.557  0.2344 -0.0740 -0.1935
  155loPI   C3A 2473  15.012   6.810  10.139 -0.0807  0.1141 -0.0718
  155loPI   C4A 2474  14.938   6.700   9.677  0.2310  0.2181 -0.0370
  155loPI   C5A 2475  15.185   6.796   9.264 -0.1322  0.2416  0.0059
  155loPI   C6A 2476  15.110   6.970   8.842 -0.0503 -0.2785  0.2277
  155loPI   C1B 2477  14.497   7.138  10.691 -0.1433 -0.0283  0.1648
  155loPI   C2B 2478  14.516   7.113  10.259 -0.1647  0.1615  0.0050
  155loPI   C3B 2479  14.555   7.099   9.781 -0.1343  0.0904  0.0700
  155loPI   C4B 2480  14.508   7.001   9.354  0.1729 -0.0193  0.0081
  156loPI    C1 2481   1.650   4.145  11.540 -0.1103 -0.0010 -0.1783
  156loPI    C2 2482   1.913   3.874  11.409 -0.0580 -0.0037 -0.0689
  156loPI    C3 2483   1.878   3.946  11.801  0.1487  0.3685 -0.1141
  156loPI   PO4 2484   1.687   4.321  11.307 -0.1132  0.0235  0.1268
  156loPI   GL1 2485   1.870   4.102  10.949  0.1886  0.1464  0.1179
  156loPI   GL2 2486   2.114   4.329  10.815  0.0233 -0.0685  0.1799
  156loPI   C1A 2487   1.597   4.055  10.670  0.1549  0.0873 -0.0059
  156loPI   C2A 2488   1.607   4.025  10.194 -0.2356  0.6246 -0.2217
  156loPI   C3A 2489   1.643   4.115   9.802 -0.0739 -0.0540  0.5410
  156loPI   C4A 2490   1.588   4.093   9.490  0.0064 -0.0001  0.1306
  156loPI   C5A 2491   1.471   3.986   9.032 -0.1812  0.1154  0.0391
  156loPI   C6A 2492   1.434   3.646   8.713  0.0575  0.0057 -0.0563
  156loPI   C1B 2493   2.106   4.242  10.429  0.2290 -0.1354 -0.1581
  156loPI   C2B 2494   2.048   4.263  10.054  0.1436  0.1801 -0.1899
  156loPI   C3B 2495   2.087   4.216   9.562  0.1073  0.0503 -0.0744
  156loPI   C4B 2496   2.061   4.243   9.108  0.2864 -0.1749 -0.0988
  157loPI    C1 2497   9.584   7.844  11.581  0.0036 -0.2141  0.0287
  157loPI    C2 2498   9.954   7.956  11.681  0.0258  0.0523 -0.3318
  157loPI    C3 2499   9.639   8.136  11.848  0.0557 -0.1234 -0.0802
  157loPI   PO4 2500   9.634   7.909  11.299  0.2134 -0.1088 -0.0066
  157loPI   GL1 2501   9.368   7.907  10.880 -0.1476  0.0123  0.3543
  157loPI   GL2 2502   9.276   8.086  10.805  0.1069 -0.0009 -0.0223
  157loPI   C1A 2503   9.434   7.677  10.526  0.0936  0.0981 -0.2605
  157loPI   C2A 2504   9.607   7.568  10.137  0.3892 -0.0044 -0.0663
  157loPI   C3A 2505   9.583   7.669   9.804  0.0946  0.0525 -0.1246
  157loPI   C4A 2506   9.493   7.624   9.467  0.0098  0.2589  0.5309
  157loPI   C5A 2507   9.532   7.711   9.077  0.0835 -0.1408  0.3129
  157loPI   C6A 2508   9.509   7.925   8.673  0.0359 -0.0670  0.0023
  157loPI   C1B 2509   9.182   8.072  10.383 -0.1685 -0.2684 -0.2509
  157loPI   C2B 2510   9.225   7.949   9.965  0.2024  0.1277 -0.2099
  157loPI   C3B 2511   9.177   7.982   9.517  0.0546 -0.1063 -0.0845
  157loPI   C4B 2512   9.046   7.919   9.175  0.0956 -0.1071  0.3490
  158loPI    C1 2513   7.892  12.537  11.246 -0.1840  0.0128  0.0797
  158loPI    C2 2514   8.081  12.399  11.570 -0.1359  0.0538  0.0693
  158loPI    C3 2515   8.147  12.773  11.444 -0.1513  0.0367  0.0097
  158loPI   PO4 2516   7.894  12.394  11.028  0.0656  0.1007 -0.1738
  158loPI   GL1 2517   7.749  12.128  10.654  0.0732  0.1473  0.2785
  158loPI   GL2 2518   7.474  12.198  10.591  0.4111 -0.0751 -0.0924
  158loPI   C1A 2519   7.945  12.035  10.376  0.0278 -0.2576  0.1129
  158loPI   C2A 2520   7.877  11.927   9.940 -0.0798 -0.0148 -0.1023
  158loPI   C3A 2521   7.891  11.978   9.499 -0.1972  0.1459 -0.0925
  158loPI   C4A 2522   7.774  11.834   9.100  0.1401  0.0975  0.2329
  158loPI   C5A 2523   7.841  11.445   8.785 -0.0237 -0.3100 -0.2597
  158loPI   C6A 2524   8.075  11.272   8.434  0.3099  0.0675  0.0068
  158loPI   C1B 2525   7.538  12.291  10.121 -0.4408  0.1469 -0.0502
  158loPI   C2B 2526   7.440  12.157   9.657  0.0356  0.0891 -0.0262
  158loPI   C3B 2527   7.418  12.263   9.303  0.1782 -0.2449  0.1129
  158loPI   C4B 2528   7.268  12.441   8.965 -0.0612 -0.1533  0.0180
  159loPI    C1 2529   2.093  16.956  11.671 -0.0390 -0.0691 -0.2738
  159loPI    C2 2530   1.841  17.223  11.828  0.0504 -0.0991 -0.0759
  159loPI    C3 2531   1.785  16.833  11.894  0.2136 -0.0995  0.0674
  159loPI   PO4 2532   2.157  17.012  11.406  0.1939 -0.2665 -0.2308
  159loPI   GL1 2533   1.932  17.175  11.008  0.4695 -0.0326  0.2380
  159loPI   GL2 2534   1.768  17.435  10.901 -0.3163 -0.2222  0.0078
  159loPI   C1A 2535   1.758  16.832  10.709 -0.0008 -0.2344 -0.1566
  159loPI   C2A 2536   1.653  16.725  10.325  0.0767 -0.0423  0.0581
  159loPI   C3A 2537   1.768  16.791   9.835 -0.0984 -0.0825  0.2205
  159loPI   C4A 2538   1.731  16.929   9.317  0.4014 -0.1677  0.1616
  159loPI   C5A 2539   1.486  16.745   9.062  0.2211 -0.1471 -0.1460
  159loPI   C6A 2540   1.416  16.759   8.712 -0.0307 -0.1093 -0.0685
  159loPI   C1B 2541   1.780  17.308  10.493 -0.4023 -0.1337  0.1546
  159loPI   C2B 2542   1.798  17.401  10.057 -0.0532 -0.0365 -0.1289
  159loPI   C3B 2543   1.810  17.366   9.590 -0.0161 -0.1515 -0.1170
  159loPI   C4B 2544   1.824  17.445   9.150  0.1200 -0.0745  0.2024
  160loPI    C1 2545  13.448   7.172  11.471 -0.3607  0.1209 -0.0566
  160loPI    C2 2546  13.313   7.450  11.725 -0.1138  0.1321  0.0663
  160loPI    C3 2547  13.527   7.141  11.862  0.1797  0.2355 -0.1482
  160loPI   PO4 2548  13.192   7.087  11.291  0.3641  0.1107  0.1434
  160loPI   GL1 2549  13.001   7.129  10.931 -0.1871  0.1285  0.1861
  160loPI   GL2 2550  12.775   6.904  10.744  0.0638 -0.2400 -0.2160
  160loPI   C1A 2551  13.171   7.085  10.436 -0.2945 -0.0964  0.1036
  160loPI   C2A 2552  13.126   7.007  10.031  0.0459  0.2314  0.3687
  160loPI   C3A 2553  13.014   7.036   9.561  0.0830 -0.0877  0.0862
  160loPI   C4A 2554  13.279   6.983   9.174  0.0220  0.0920 -0.3208
  160loPI   C5A 2555  13.582   7.208   8.984 -0.0487 -0.0699  0.0757
  160loPI   C6A 2556  13.841   6.966   8.636 -0.1198 -0.0048 -0.0729
  160loPI   C1B 2557  12.672   6.932  10.359  0.3439  0.0011  0.0979
  160loPI   C2B 2558  12.647   6.891   9.917 -0.0177 -0.1093 -0.1452
  160loPI   C3B 2559  12.522   6.754   9.485  0.2687 -0.1329  0.1289
  160loPI   C4B 2560  12.504   6.779   9.077  0.2384  0.1173  0.0156
  161loPI    C1 2561   6.146  12.116  11.460  0.0836  0.3438 -0.0300
  161loPI    C2 2562   6.277  12.406  11.702  0.1372  0.0778  0.2666
  161loPI    C3 2563   6.411  12.032  11.747 -0.1774 -0.0587  0.1014
  161loPI   PO4 2564   6.109  12.230  11.244  0.0161  0.0573  0.1327
  161loPI   GL1 2565   5.992  12.164  10.877  0.1543  0.0876  0.2465
  161loPI   GL2 2566   5.811  11.967  10.828 -0.1370 -0.2099 -0.3055
  161loPI   C1A 2567   6.071  12.211  10.468  0.1853  0.0430  0.1428
  161loPI   C2A 2568   6.044  12.272  10.003 -0.2131 -0.0654 -0.0606
  161loPI   C3A 2569   6.097  12.220   9.540 -0.1215 -0.2343  0.1406
  161loPI   C4A 2570   5.874  12.447   9.126  0.1892 -0.3407  0.1219
  161loPI   C5A 2571   5.991  12.572   8.759  0.4566  0.0402  0.1140
  161loPI   C6A 2572   5.861  12.874   8.456  0.1260  0.0818 -0.0094
  161loPI   C1B 2573   5.606  12.056  10.476 -0.1664 -0.2072  0.1868
  161loPI   C2B 2574   5.543  12.031  10.082 -0.1856  0.2626 -0.2587
  161loPI   C3B 2575   5.593  12.056   9.604  0.2108  0.0275  0.0244
  161loPI   C4B 2576   5.487  12.091   9.166 -0.2885 -0.0688  0.1546
  162loPI    C1 2577   6.205  17.062  11.719  0.0860  0.1358  0.0203
  162loPI    C2 2578   5.952  17.301  11.917  0.0711  0.0666  0.0854
  162loPI    C3 2579   6.345  17.320  11.991  0.0739  0.0975  0.0628
  162loPI   PO4 2580   6.143  17.166  11.402 -0.0290  0.2587 -0.2163
  162loPI   GL1 2581   5.980  17.122  11.010 -0.5710 -0.1376 -0.0317
  162loPI   GL2 2582   5.652  17.001  11.005  0.1820 -0.1061  0.1074
  162loPI   C1A 2583   5.983  17.053  10.609 -0.0606 -0.1641  0.1753
  162loPI   C2A 2584   5.979  17.037  10.104 -0.0805  0.0227 -0.1542
  162loPI   C3A 2585   5.916  16.983   9.683  0.1567 -0.5490  0.2424
  162loPI   C4A 2586   5.889  17.142   9.254 -0.1900  0.0142  0.0424
  162loPI   C5A 2587   6.066  17.035   8.875  0.2514 -0.0203 -0.0931
  162loPI   C6A 2588   6.243  17.243   8.475 -0.2039  0.0202 -0.0553
  162loPI   C1B 2589   5.441  16.968  10.621  0.0775 -0.1362 -0.3185
  162loPI   C2B 2590   5.465  16.989  10.177 -0.1533 -0.0360  0.2702
  162loPI   C3B 2591   5.405  16.848   9.754 -0.0972 -0.1916  0.2452
  162loPI   C4B 2592   5.432  16.860   9.298 -0.0230 -0.1480 -0.0244
  163loPI    C1 2593   7.983   7.647  11.394 -0.2596  0.1927  0.0852
  163loPI    C2 2594   7.948   7.353  11.663  0.0285  0.0499 -0.0290
  163loPI    C3 2595   7.911   7.735  11.777  0.2301 -0.0047  0.2306
  163loPI   PO4 2596   8.076   7.554  11.161  0.2626 -0.1740  0.2689
  163loPI   GL1 2597   8.172   7.630  10.757  0.0276  0.1997  0.3151
  163loPI   GL2 2598   8.190   7.262  10.683 -0.3111  0.0938  0.1191
  163loPI   C1A 2599   8.145   7.677  10.266  0.0132  0.0987  0.1154
  163loPI   C2A 2600   8.233   7.607   9.823 -0.4108 -0.0073  0.0131
  163loPI   C3A 2601   8.163   7.706   9.391 -0.0765  0.0027 -0.0629
  163loPI   C4A 2602   8.057   7.745   9.005  0.1407 -0.0794 -0.0051
  163loPI   C5A 2603   7.960   8.125   8.685 -0.4030  0.2177  0.0707
  163loPI   C6A 2604   7.641   8.035   8.351  0.0666  0.0370 -0.1021
  163loPI   C1B 2605   8.021   7.042  10.326  0.1629 -0.0026  0.0615
  163loPI   C2B 2606   8.087   7.031   9.875  0.0986  0.0796  0.0251
  163loPI   C3B 2607   8.108   7.216   9.499  0.1216 -0.1607  0.0282
  163loPI   C4B 2608   8.193   7.193   8.966 -0.1246 -0.2319 -0.0116
  164loPI    C1 2609   5.574   1.914  11.400  0.0567 -0.3846  0.1024
  164loPI    C2 2610   5.514   1.780  11.772  0.1444 -0.2122  0.1802
  164loPI    C3 2611   5.811   2.037  11.698  0.0656 -0.1690  0.0084
  164loPI   PO4 2612   5.527   1.667  11.263 -0.4751 -0.3695 -0.0086
  164loPI   GL1 2613   5.823   1.596  10.875 -0.0027  0.2008 -0.0086
  164loPI   GL2 2614   5.818   1.260  10.861  0.2141  0.0153  0.3067
  164loPI   C1A 2615   5.838   1.816  10.508 -0.2716 -0.1500 -0.1624
  164loPI   C2A 2616   5.824   1.817  10.080  0.1362 -0.0407  0.1502
  164loPI   C3A 2617   5.861   1.832   9.672  0.0454 -0.3667 -0.1035
  164loPI   C4A 2618   5.947   1.849   9.274  0.1591 -0.0697 -0.0613
  164loPI   C5A 2619   5.856   1.914   8.823 -0.6020  0.0603 -0.2216
  164loPI   C6A 2620   5.588   2.187   8.628  0.1989  0.2295 -0.0961
  164loPI   C1B 2621   5.669   1.238  10.411  0.1108  0.0331  0.1617
  164loPI   C2B 2622   5.739   1.359  10.020  0.1233  0.0881  0.0818
  164loPI   C3B 2623   5.790   1.323   9.617  0.0733 -0.4080  0.1641
  164loPI   C4B 2624   5.742   1.269   9.106 -0.1245 -0.2484 -0.2655
  165loPI    C1 2625  14.352   5.316  11.708  0.0431  0.0967 -0.1313
  165loPI    C2 2626  14.034   5.188  11.914 -0.0076  0.1342 -0.1856
  165loPI    C3 2627  14.142   5.573  11.932  0.2456  0.0539  0.1118
  165loPI   PO4 2628  14.338   5.194  11.523  0.0554  0.1341  0.2748
  165loPI   GL1 2629  14.319   5.225  11.077 -0.2021 -0.1246  0.2005
  165loPI   GL2 2630  14.048   5.388  10.926  0.1718 -0.1978  0.1878
  165loPI   C1A 2631  14.358   5.093  10.643  0.1611  0.1880  0.0587
  165loPI   C2A 2632  14.293   5.034  10.192 -0.1489  0.0737  0.3071
  165loPI   C3A 2633  14.139   5.011   9.813  0.2083  0.3528  0.2272
  165loPI   C4A 2634  14.184   4.990   9.450  0.0487 -0.3604 -0.1020
  165loPI   C5A 2635  14.274   5.211   9.085 -0.0666  0.0015 -0.1533
  165loPI   C6A 2636  14.436   5.080   8.708 -0.0722 -0.0208  0.2747
  165loPI   C1B 2637  13.931   5.290  10.526  0.2571  0.0479 -0.0394
  165loPI   C2B 2638  13.851   5.354  10.121 -0.0453  0.0782 -0.1543
  165loPI   C3B 2639  13.728   5.281   9.744 -0.0626  0.0685  0.2321
  165loPI   C4B 2640  13.684   5.259   9.300 -0.0775 -0.2868  0.0757
  166loPI    C1 2641   8.994  11.823  11.487 -0.1839  0.0330 -0.1324
  166loPI    C2 2642   9.299  12.063  11.389  0.0165 -0.1920 -0.0705
  166loPI    C3 2643   9.163  12.055  11.766  0.0122 -0.1788 -0.0718
  166loPI   PO4 2644   8.997  11.709  11.255 -0.0730 -0.1922  0.1318
  166loPI   GL1 2645   8.986  11.617  10.764  0.0905  0.0645 -0.3009
  166loPI   GL2 2646   9.132  11.436  10.540  0.0576  0.2603 -0.4008
  166loPI   C1A 2647   8.830  11.800  10.463 -0.2123 -0.2738 -0.1226
  166loPI   C2A 2648   8.829  11.763   9.992  0.0510  0.3129  0.3942
  166loPI   C3A 2649   8.841  11.793   9.522  0.0131 -0.1707  0.0372
  166loPI   C4A 2650   8.670  11.807   9.105  0.0276  0.0065  0.0471
  166loPI   C5A 2651   8.817  11.935   8.729  0.1229  0.0358  0.0049
  166loPI   C6A 2652   9.171  12.078   8.587  0.2923  0.1286  0.0803
  166loPI   C1B 2653   9.285  11.638  10.135 -0.1349 -0.3670 -0.0370
  166loPI   C2B 2654   9.349  11.659   9.770  0.2010  0.0101 -0.2998
  166loPI   C3B 2655   9.391  11.617   9.401 -0.1318 -0.1378 -0.1912
  166loPI   C4B 2656   9.117  11.417   9.180 -0.0373 -0.3454 -0.0700
  167loPI    C1 2657   6.587  13.670  11.731  0.1794  0.1261  0.1201
  167loPI    C2 2658   6.412  13.347  11.888 -0.0069  0.1830  0.0323
  167loPI    C3 2659   6.190  13.661  11.777  0.1376  0.2057 -0.1991
  167loPI   PO4 2660   6.736  13.543  11.507  0.0721 -0.0471 -0.1094
  167loPI   GL1 2661   6.388  13.403  11.236 -0.1577  0.0661 -0.0920
  167loPI   GL2 2662   6.034  13.359  11.322 -0.1493 -0.3392 -0.2837
  167loPI   C1A 2663   6.268  13.229  10.866 -0.4857 -0.1470 -0.1343
  167loPI   C2A 2664   6.280  13.188  10.358 -0.0936  0.2446  0.3310
  167loPI   C3A 2665   6.259  13.262   9.985  0.3151 -0.0883 -0.1113
  167loPI   C4A 2666   6.174  13.252   9.501 -0.2329  0.0958  0.2387
  167loPI   C5A 2667   6.196  13.430   9.102  0.0311 -0.0433  0.2871
  167loPI   C6A 2668   5.949  13.454   8.676 -0.0406  0.0213  0.4049
  167loPI   C1B 2669   5.822  13.618  10.953 -0.2575 -0.1437 -0.1588
  167loPI   C2B 2670   5.945  13.520  10.548 -0.1633 -0.2910  0.0873
  167loPI   C3B 2671   5.897  13.567  10.138 -0.1106  0.0034 -0.2525
  167loPI   C4B 2672   5.838  13.565   9.795 -0.3356  0.2756 -0.1559
  168loPI    C1 2673  13.850  15.346  11.501  0.0232  0.1256 -0.1499
  168loPI    C2 2674  14.222  15.225  11.418 -0.0024 -0.1218  0.0815
  168loPI    C3 2675  14.054  15.128  11.768 -0.1753  0.2465  0.1051
  168loPI   PO4 2676  13.806  15.422  11.277 -0.1701  0.0809  0.1714
  168loPI   GL1 2677  13.457  15.341  10.993 -0.0158 -0.2613  0.0298
  168loPI   GL2 2678  13.596  15.081  10.776 -0.0645 -0.1199 -0.2802
  168loPI   C1A 2679  13.366  15.603  10.655 -0.1015 -0.0267  0.1005
  168loPI   C2A 2680  13.559  15.678  10.216 -0.3589 -0.2979  0.1868
  168loPI   C3A 2681  13.693  16.030  10.047 -0.1110 -0.1752  0.0721
  168loPI   C4A 2682  13.618  16.146   9.672  0.0290  0.0421  0.1254
  168loPI   C5A 2683  13.668  16.047   9.206  0.0602 -0.0771 -0.3080
  168loPI   C6A 2684  13.640  15.669   8.973  0.1251 -0.0278  0.0338
  168loPI   C1B 2685  13.750  14.948  10.353  0.0937 -0.0021  0.2225
  168loPI   C2B 2686  13.698  14.911   9.901 -0.2762  0.0788  0.1812
  168loPI   C3B 2687  13.651  15.042   9.523 -0.2124  0.0067 -0.1970
  168loPI   C4B 2688  13.751  15.264   9.198 -0.2269  0.0798  0.0034
  169loPI    C1 2689   6.203   1.608  11.741  0.1317  0.0284  0.0185
  169loPI    C2 2690   6.478   1.408  11.952  0.0972 -0.0957 -0.0530
  169loPI    C3 2691   6.089   1.341  12.016  0.0854 -0.0496 -0.0755
  169loPI   PO4 2692   6.469   1.774  11.506 -0.2162 -0.1657 -0.0889
  169loPI   GL1 2693   6.575   1.689  11.118 -0.1210 -0.0157 -0.0773
  169loPI   GL2 2694   6.842   1.502  10.973 -0.4921 -0.2402  0.0964
  169loPI   C1A 2695   6.316   1.453  10.690  0.5844 -0.3834  0.0757
  169loPI   C2A 2696   6.137   1.492  10.318  0.0555  0.0890 -0.3444
  169loPI   C3A 2697   6.318   1.530   9.942 -0.1245  0.0467  0.2343
  169loPI   C4A 2698   6.302   1.496   9.489 -0.1116  0.0526 -0.3012
  169loPI   C5A 2699   6.269   1.463   9.135 -0.2725  0.1184 -0.0976
  169loPI   C6A 2700   6.169   1.576   8.638 -0.2256 -0.0518  0.3431
  169loPI   C1B 2701   6.769   1.659  10.537 -0.1021  0.1654 -0.1624
  169loPI   C2B 2702   6.701   1.779  10.115  0.0112 -0.2460 -0.2149
  169loPI   C3B 2703   6.705   1.741   9.708  0.1030 -0.0479 -0.2437
  169loPI   C4B 2704   6.698   1.734   9.240 -0.0412 -0.0708 -0.0066
  170loPI    C1 2705  10.583   4.729  11.644  0.0439 -0.0511 -0.0438
  170loPI    C2 2706  10.363   4.639  11.965 -0.1301 -0.2225 -0.2085
  170loPI    C3 2707  10.667   4.402  11.858 -0.0400 -0.1378 -0.1421
  170loPI   PO4 2708  10.387   4.785  11.444 -0.1219 -0.0788  0.0215
  170loPI   GL1 2709  10.411   4.689  11.054  0.0721  0.2077 -0.0088
  170loPI   GL2 2710  10.486   4.620  10.728  0.1904  0.2829 -0.1230
  170loPI   C1A 2711  10.005   4.498  10.892  0.1341 -0.0109  0.0736
  170loPI   C2A 2712   9.884   4.471  10.394 -0.0576 -0.3299  0.0323
  170loPI   C3A 2713   9.933   4.336   9.915  0.3479 -0.1786  0.1727
  170loPI   C4A 2714   9.984   4.360   9.356  0.0170 -0.1294  0.1049
  170loPI   C5A 2715   9.844   4.532   8.930  0.0209 -0.1744 -0.5052
  170loPI   C6A 2716   9.461   4.573   8.699 -0.1738  0.2171 -0.0724
  170loPI   C1B 2717  10.440   4.547  10.295  0.2437 -0.1097 -0.4237
  170loPI   C2B 2718  10.391   4.623   9.879 -0.2319  0.3428  0.0394
  170loPI   C3B 2719  10.455   4.673   9.465  0.0808 -0.1489  0.3306
  170loPI   C4B 2720  10.346   4.697   9.003 -0.0684 -0.1220  0.1608
  171loPI    C1 2721   4.250   9.939  11.705 -0.0534 -0.2470  0.1044
  171loPI    C2 2722   4.199  10.319  11.821  0.0326 -0.0986 -0.3242
  171loPI    C3 2723   4.527  10.119  11.931 -0.0630 -0.0874 -0.0087
  171loPI   PO4 2724   4.204   9.884  11.415  0.1290 -0.0545  0.2467
  171loPI   GL1 2725   4.032   9.757  10.920 -0.1935 -0.0883  0.0067
  171loPI   GL2 2726   3.807   9.928  10.951 -0.0253  0.1683  0.1186
  171loPI   C1A 2727   4.294   9.605  10.552 -0.1807  0.0842  0.6077
  171loPI   C2A 2728   4.217   9.555  10.152 -0.2284 -0.0298  0.0078
  171loPI   C3A 2729   4.190   9.576   9.739  0.0496  0.0721 -0.1297
  171loPI   C4A 2730   4.311   9.748   9.347 -0.1856  0.2188 -0.0788
  171loPI   C5A 2731   4.400   9.518   8.936  0.0595  0.0428 -0.1048
  171loPI   C6A 2732   4.080   9.396   8.571 -0.0285  0.1881 -0.1825
  171loPI   C1B 2733   3.863   9.847  10.469  0.1177  0.1082  0.1168
  171loPI   C2B 2734   3.832   9.846  10.021 -0.2077  0.0675  0.3438
  171loPI   C3B 2735   3.847  10.077   9.587 -0.1712  0.0238 -0.0878
  171loPI   C4B 2736   3.821  10.148   9.143 -0.1023 -0.0953 -0.1994
  172loPI    C1 2737  12.126   7.527  11.567  0.0951 -0.0078  0.0894
  172loPI    C2 2738  12.420   7.667  11.799  0.0862 -0.0943  0.1535
  172loPI    C3 2739  12.179   7.922  11.607  0.2597 -0.0228  0.0277
  172loPI   PO4 2740  12.272   7.313  11.306  0.1328  0.1116  0.0847
  172loPI   GL1 2741  12.461   7.171  10.925  0.1566  0.1290  0.2893
  172loPI   GL2 2742  12.612   7.448  10.944  0.1821 -0.0166  0.0053
  172loPI   C1A 2743  12.208   7.311  10.612  0.4802 -0.0254 -0.0236
  172loPI   C2A 2744  12.243   7.223  10.185 -0.2065  0.1696 -0.1365
  172loPI   C3A 2745  12.083   7.217   9.724 -0.1928 -0.0884  0.0789
  172loPI   C4A 2746  12.161   7.276   9.368 -0.1094 -0.0626 -0.1953
  172loPI   C5A 2747  12.301   7.481   8.981 -0.1887 -0.1321  0.1663
  172loPI   C6A 2748  12.445   7.853   8.845  0.0658 -0.2837 -0.4024
  172loPI   C1B 2749  12.724   7.404  10.487  0.1328 -0.2230  0.1747
  172loPI   C2B 2750  12.690   7.470  10.068  0.3220  0.1791  0.1815
  172loPI   C3B 2751  12.599   7.296   9.623 -0.2488 -0.2168  0.0322
  172loPI   C4B 2752  12.708   7.276   9.234  0.0037  0.1009 -0.1558
  173loPI    C1 2753   2.271   2.005  11.473  0.2544  0.0555 -0.0237
  173loPI    C2 2754   2.221   1.801  11.813  0.0598  0.2232  0.0505
  173loPI    C3 2755   2.285   2.196  11.824 -0.2087  0.2740 -0.1164
  173loPI   PO4 2756   2.402   1.871  11.300 -0.1028  0.0985 -0.2091
  173loPI   GL1 2757   2.686   1.824  10.870  0.1235 -0.2278 -0.0373
  173loPI   GL2 2758   2.682   2.102  10.858 -0.1895  0.1863 -0.1061
  173loPI   C1A 2759   2.614   1.605  10.479  0.3541 -0.3133 -0.2130
  173loPI   C2A 2760   2.585   1.509  10.064  0.2617  0.0382 -0.2177
  173loPI   C3A 2761   2.623   1.542   9.648 -0.1284  0.2486 -0.3409
  173loPI   C4A 2762   2.534   1.556   9.262 -0.2098 -0.0274  0.0267
  173loPI   C5A 2763   2.331   1.702   8.909 -0.1368  0.2357 -0.1769
  173loPI   C6A 2764   1.951   1.863   8.881 -0.0233  0.3700 -0.3081
  173loPI   C1B 2765   2.670   2.105  10.404 -0.0216 -0.3379 -0.3523
  173loPI   C2B 2766   2.631   2.066   9.978 -0.0320  0.0942 -0.1346
  173loPI   C3B 2767   2.571   2.039   9.512  0.2705  0.4418 -0.0691
  173loPI   C4B 2768   2.646   2.021   9.039 -0.0294 -0.1811 -0.0586
  174loPI    C1 2769   9.363  11.304  11.128 -0.0450 -0.0328 -0.2330
  174loPI    C2 2770   9.437  11.553  11.433 -0.2774 -0.2316 -0.0096
  174loPI    C3 2771   9.557  11.172  11.452 -0.0194 -0.1689 -0.3035
  174loPI   PO4 2772   9.446  11.351  10.898  0.1613  0.0467 -0.1554
  174loPI   GL1 2773   9.642  11.270  10.513 -0.1410 -0.2599  0.2775
  174loPI   GL2 2774   9.608  11.640  10.505  0.1324  0.2911 -0.0784
  174loPI   C1A 2775   9.604  11.236  10.124 -0.0312 -0.1182 -0.0248
  174loPI   C2A 2776   9.525  11.173   9.638 -0.1206 -0.1195  0.1591
  174loPI   C3A 2777   9.565  11.169   9.171 -0.1720  0.0112 -0.3286
  174loPI   C4A 2778   9.838  11.398   8.957 -0.1394  0.1598 -0.2835
  174loPI   C5A 2779  10.149  11.327   8.629 -0.0881 -0.2641  0.1908
  174loPI   C6A 2780  10.562  11.269   8.445 -0.0967 -0.1805  0.0246
  174loPI   C1B 2781   9.728  11.976  10.132 -0.0016 -0.0326 -0.1791
  174loPI   C2B 2782   9.775  12.018   9.662 -0.0043  0.1228 -0.1058
  174loPI   C3B 2783  10.215  11.941   9.238 -0.0457  0.1451  0.0675
  174loPI   C4B 2784  10.334  11.672   8.889  0.2487  0.0535 -0.0056
  175loPI    C1 2785   1.128   1.135  11.558 -0.1235 -0.2978 -0.1228
  175loPI    C2 2786   0.900   1.375  11.784  0.0182 -0.1977 -0.0849
  175loPI    C3 2787   1.221   1.196  11.943  0.0043 -0.2858 -0.1552
  175loPI   PO4 2788   0.922   0.973  11.410 -0.3242  0.2121  0.2214
  175loPI   GL1 2789   0.815   0.869  11.081 -0.0454  0.1459 -0.1110
  175loPI   GL2 2790   0.587   0.984  10.946 -0.0258 -0.1336 -0.0094
  175loPI   C1A 2791   0.830   0.718  10.614 -0.1577 -0.0397  0.2673
  175loPI   C2A 2792   0.749   0.763  10.201 -0.2219 -0.1909 -0.2160
  175loPI   C3A 2793   0.638   0.802   9.717  0.1322  0.2275  0.1983
  175loPI   C4A 2794   0.594   0.955   9.345 -0.1701  0.1415 -0.0109
  175loPI   C5A 2795   0.559   0.861   9.023  0.0513  0.0513  0.0271
  175loPI   C6A 2796   0.285   0.785   8.658 -0.1707 -0.2563 -0.3485
  175loPI   C1B 2797   0.740   1.242  10.555  0.1762 -0.2598 -0.0730
  175loPI   C2B 2798   0.756   1.257  10.064 -0.2855 -0.0080 -0.3292
  175loPI   C3B 2799   0.678   1.340   9.690  0.1480 -0.0049 -0.0806
  175loPI   C4B 2800   0.687   1.451   9.317  0.1149 -0.0523  0.0302
  176loPI    C1 2801   0.102   9.487  11.244 -0.0208 -0.0363 -0.2504
  176loPI    C2 2802   0.482   9.392  11.326  0.0145 -0.0180 -0.3912
  176loPI    C3 2803   0.310   9.703  11.509 -0.0394 -0.2287 -0.0760
  176loPI   PO4 2804   0.091   9.415  11.020  0.0136  0.0668 -0.1122
  176loPI   GL1 2805  -0.147   9.337  10.660  0.0282 -0.0897  0.2418
  176loPI   GL2 2806   0.043   9.048  10.697 -0.1216  0.0392  0.0769
  176loPI   C1A 2807  -0.239   9.306  10.316 -0.0615 -0.1001 -0.1204
  176loPI   C2A 2808  -0.253   9.216   9.908 -0.1017 -0.0533 -0.3808
  176loPI   C3A 2809  -0.381   9.132   9.502 -0.0597  0.2761  0.1077
  176loPI   C4A 2810  -0.406   9.058   9.133  0.1174  0.0685 -0.1597
  176loPI   C5A 2811  -0.474   8.749   8.821 -0.2317 -0.0307 -0.2242
  176loPI   C6A 2812  -0.561   8.331   8.694 -0.0220 -0.1455  0.2178
  176loPI   C1B 2813   0.034   8.806  10.465 -0.1127  0.3075  0.3342
  176loPI   C2B 2814  -0.054   8.797  10.027 -0.1307  0.1674  0.1017
  176loPI   C3B 2815  -0.048   8.753   9.587 -0.2100  0.1118  0.2687
  176loPI   C4B 2816   0.051   8.698   9.173  0.1483  0.2113  0.1644
  177loPI    C1 2817   8.394  14.595  11.157 -0.2569 -0.2984  0.0186
  177loPI    C2 2818   8.351  14.546  11.552  0.0745  0.0931  0.1101
  177loPI    C3 2819   8.429  14.231  11.318 -0.0965 -0.1371  0.3579
  177loPI   PO4 2820   8.161  14.692  11.042 -0.0727  0.1434 -0.1188
  177loPI   GL1 2821   8.206  14.769  10.645  0.1833 -0.1419  0.3523
  177loPI   GL2 2822   8.051  14.593  10.519 -0.1934 -0.0590 -0.2700
  177loPI   C1A 2823   8.055  14.966  10.240  0.0144  0.1631  0.1431
  177loPI   C2A 2824   7.992  14.840   9.719  0.0145 -0.0119  0.0933
  177loPI   C3A 2825   7.847  14.996   9.391  0.3284 -0.1818 -0.3210
  177loPI   C4A 2826   7.736  14.968   9.003  0.0092  0.0931 -0.1728
  177loPI   C5A 2827   7.524  15.022   8.703  0.1448 -0.1312 -0.1871
  177loPI   C6A 2828   7.240  14.778   8.463 -0.2216 -0.0752 -0.2486
  177loPI   C1B 2829   7.889  14.472  10.131 -0.1768  0.1227  0.1392
  177loPI   C2B 2830   8.032  14.341   9.696  0.1200  0.1572  0.1022
  177loPI   C3B 2831   7.953  14.480   9.276 -0.0216 -0.0006  0.3005
  177loPI   C4B 2832   8.169  14.630   8.890  0.0794 -0.0479  0.0615
  178loPI    C1 2833   1.056   4.412  11.562  0.1850 -0.0336 -0.0978
  178loPI    C2 2834   1.380   4.548  11.753  0.1816 -0.1862  0.0186
  178loPI    C3 2835   1.032   4.514  11.948  0.1089 -0.0772 -0.0907
  178loPI   PO4 2836   1.186   4.160  11.480  0.3721 -0.1478 -0.4809
  178loPI   GL1 2837   1.391   4.001  11.078  0.1328  0.0761 -0.1993
  178loPI   GL2 2838   1.521   3.650  11.173 -0.1450 -0.2026  0.3635
  178loPI   C1A 2839   1.040   3.895  10.726  0.0095  0.1033  0.0720
  178loPI   C2A 2840   1.052   3.872  10.259 -0.3595 -0.0844 -0.4325
  178loPI   C3A 2841   1.075   3.896   9.810 -0.2297 -0.2024 -0.0104
  178loPI   C4A 2842   1.012   3.840   9.454 -0.3186  0.1235 -0.1770
  178loPI   C5A 2843   0.984   3.873   8.992  0.1167 -0.0570 -0.2057
  178loPI   C6A 2844   0.802   3.842   8.704 -0.2749  0.0408  0.1578
  178loPI   C1B 2845   1.506   3.597  10.799 -0.0358  0.0173 -0.1907
  178loPI   C2B 2846   1.465   3.511  10.349 -0.0097 -0.2333  0.2148
  178loPI   C3B 2847   1.504   3.584   9.968  0.1266 -0.1579  0.2023
  178loPI   C4B 2848   1.425   3.518   9.535 -0.2369 -0.0849 -0.0597
  179loPI    C1 2849  15.869  14.256  11.319 -0.1843  0.1901 -0.0815
  179loPI    C2 2850  15.946  14.104  11.681 -0.0232 -0.0463 -0.2123
  179loPI    C3 2851  16.129  14.439  11.562  0.1050 -0.0987 -0.1655
  179loPI   PO4 2852  15.906  14.076  11.161 -0.0928  0.0907 -0.0421
  179loPI   GL1 2853  15.799  14.048  10.810 -0.0624 -0.4140  0.0617
  179loPI   GL2 2854  15.447  14.104  10.817  0.1357 -0.0803  0.2553
  179loPI   C1A 2855  15.676  14.269  10.440  0.2667  0.3056  0.0082
  179loPI   C2A 2856  15.550  14.322  10.033 -0.0061 -0.0664 -0.0357
  179loPI   C3A 2857  15.618  14.449   9.630 -0.0002 -0.0200  0.0555
  179loPI   C4A 2858  15.773  14.546   9.264  0.2592  0.3474 -0.2377
  179loPI   C5A 2859  15.823  14.572   8.847  0.0735 -0.0768  0.1081
  179loPI   C6A 2860  15.508  14.539   8.601 -0.0263  0.0020  0.2473
  179loPI   C1B 2861  15.208  14.109  10.455  0.1289  0.0571  0.1061
  179loPI   C2B 2862  15.074  14.253  10.080  0.2005  0.1434  0.3360
  179loPI   C3B 2863  15.088  14.246   9.699 -0.2495 -0.0193  0.1142
  179loPI   C4B 2864  15.214  14.297   9.384 -0.3621  0.0532  0.1904
  180loPI    C1 2865  16.085  15.894  11.839 -0.2643  0.2896  0.0513
  180loPI    C2 2866  16.214  15.817  12.210  0.3457 -0.0704 -0.2202
  180loPI    C3 2867  16.275  16.177  12.048 -0.0214  0.1244  0.0587
  180loPI   PO4 2868  16.150  15.698  11.529 -0.0392 -0.3687 -0.3053
  180loPI   GL1 2869  16.110  15.875  11.113  0.2359  0.2412  0.0601
  180loPI   GL2 2870  16.417  15.789  10.978 -0.1969 -0.1410 -0.0749
  180loPI   C1A 2871  15.883  15.967  10.800 -0.1452  0.2035 -0.2320
  180loPI   C2A 2872  15.912  16.104  10.294  0.0378  0.0260 -0.0244
  180loPI   C3A 2873  15.923  15.962   9.925  0.1376  0.1458  0.5108
  180loPI   C4A 2874  15.881  16.071   9.528  0.1777 -0.1495  0.2158
  180loPI   C5A 2875  15.986  16.196   9.160  0.0850  0.0966  0.2450
  180loPI   C6A 2876  15.798  16.536   9.002  0.0109  0.2638 -0.1511
  180loPI   C1B 2877  16.203  15.606  10.622 -0.0683  0.5381  0.1213
  180loPI   C2B 2878  16.205  15.589  10.243  0.0867 -0.0992 -0.0155
  180loPI   C3B 2879  16.304  15.691   9.818  0.0790  0.2572  0.1235
  180loPI   C4B 2880  16.237  15.739   9.397  0.0382 -0.0551 -0.0046
  181loPI    C1 2881  15.995   7.297  11.736  0.2470 -0.0066  0.0529
  181loPI    C2 2882  16.058   7.230  12.126  0.2191 -0.1682  0.0305
  181loPI    C3 2883  15.992   7.602  11.995  0.0029 -0.1403  0.2127
  181loPI   PO4 2884  16.152   7.130  11.537 -0.1669 -0.2624  0.2977
  181loPI   GL1 2885  16.023   7.041  11.083 -0.2019  0.3156  0.0255
  181loPI   GL2 2886  15.917   6.741  10.876 -0.1089  0.1916  0.1301
  181loPI   C1A 2887  15.971   7.249  10.654 -0.0022  0.0124 -0.0201
  181loPI   C2A 2888  16.006   7.246  10.155 -0.1700 -0.0611 -0.2059
  181loPI   C3A 2889  15.954   7.115   9.701  0.1584  0.0688  0.0643
  181loPI   C4A 2890  15.880   7.138   9.203  0.4101 -0.1527  0.2510
  181loPI   C5A 2891  16.323   7.075   8.982  0.1041 -0.0358 -0.2156
  181loPI   C6A 2892  16.530   7.397   8.940  0.1215  0.0907  0.0133
  181loPI   C1B 2893  15.921   6.613  10.438 -0.1037  0.4138 -0.1853
  181loPI   C2B 2894  15.859   6.697  10.065 -0.0728 -0.3850 -0.3590
  181loPI   C3B 2895  15.801   6.612   9.664 -0.0373 -0.0640  0.1666
  181loPI   C4B 2896  15.714   6.620   9.172 -0.0857  0.2854 -0.0340
  182loPI    C1 2897  11.711   4.061  11.930 -0.2244  0.1959 -0.2024
  182loPI    C2 2898  11.477   3.943  12.233 -0.0891  0.0032 -0.1710
  182loPI    C3 2899  11.511   4.332  12.146 -0.2240  0.0507 -0.0164
  182loPI   PO4 2900  11.644   3.914  11.658 -0.2595 -0.1030  0.0982
  182loPI   GL1 2901  11.523   3.882  11.254  0.1320  0.3619  0.2215
  182loPI   GL2 2902  11.654   3.662  11.114  0.3014  0.2031 -0.2256
  182loPI   C1A 2903  11.300   4.036  10.912 -0.3778 -0.0515  0.1366
  182loPI   C2A 2904  11.272   3.989  10.497  0.3137  0.0041  0.2770
  182loPI   C3A 2905  11.186   4.056  10.099  0.0343  0.2791 -0.0582
  182loPI   C4A 2906  11.164   3.961   9.645  0.1126 -0.0414 -0.2601
  182loPI   C5A 2907  11.033   3.920   9.297 -0.0242 -0.1621 -0.0826
  182loPI   C6A 2908  11.148   4.174   8.939  0.1890  0.2139 -0.4126
  182loPI   C1B 2909  11.649   3.676  10.670  0.0560  0.0793  0.0326
  182loPI   C2B 2910  11.585   3.661  10.226 -0.1238 -0.0687  0.0488
  182loPI   C3B 2911  11.592   3.645   9.763  0.0370 -0.2667 -0.4891
  182loPI   C4B 2912  11.513   3.649   9.298  0.2330  0.1249 -0.1336
  183loPI    C1 2913   0.169  14.287  11.557 -0.0725  0.2252  0.0997
  183loPI    C2 2914  -0.198  14.210  11.419  0.0254 -0.0455 -0.0156
  183loPI    C3 2915  -0.132  14.226  11.813 -0.0910 -0.0911  0.0063
  183loPI   PO4 2916   0.282  14.194  11.348  0.0363  0.2362  0.1101
  183loPI   GL1 2917   0.452  14.212  10.892  0.2575 -0.0239  0.2640
  183loPI   GL2 2918   0.707  13.947  10.969 -0.1495  0.1928  0.0485
  183loPI   C1A 2919   0.387  14.319  10.427  0.3017 -0.2823 -0.0465
  183loPI   C2A 2920   0.469  14.276   9.930  0.2879  0.0034  0.1523
  183loPI   C3A 2921   0.526  14.358   9.404 -0.1257 -0.0368  0.1185
  183loPI   C4A 2922   0.487  14.418   8.949  0.0357  0.0154 -0.1285
  183loPI   C5A 2923   0.279  14.584   8.602 -0.0942 -0.0679 -0.1409
  183loPI   C6A 2924  -0.033  14.559   8.312 -0.0218  0.1857  0.1677
  183loPI   C1B 2925   0.793  13.955  10.528 -0.1084  0.3601 -0.1057
  183loPI   C2B 2926   0.880  14.077  10.181 -0.1664 -0.0795 -0.0667
  183loPI   C3B 2927   0.917  14.012   9.726 -0.0674 -0.1780  0.3724
  183loPI   C4B 2928   0.894  14.017   9.278 -0.1887  0.2662  0.2245
  184loPI    C1 2929  15.758   0.901  11.612 -0.0359  0.2596 -0.0152
  184loPI    C2 2930  15.878   0.673  11.918  0.2528  0.1616 -0.1965
  184loPI    C3 2931  15.692   1.021  11.988  0.1587  0.0580  0.0859
  184loPI   PO4 2932  15.691   0.715  11.423  0.2927  0.0550  0.1710
  184loPI   GL1 2933  15.525   0.813  11.043  0.0315 -0.1422 -0.1522
  184loPI   GL2 2934  15.828   0.916  10.931  0.1181  0.1185 -0.0208
  184loPI   C1A 2935  15.255   0.672  10.820 -0.2315  0.4303 -0.1927
  184loPI   C2A 2936  15.254   0.739  10.461 -0.2367 -0.2043 -0.2477
  184loPI   C3A 2937  15.320   0.732  10.130 -0.0098  0.0051  0.0437
  184loPI   C4A 2938  15.333   0.663   9.678 -0.0937 -0.0687  0.0997
  184loPI   C5A 2939  15.334   0.617   9.273 -0.0063  0.1175 -0.1908
  184loPI   C6A 2940  15.478   0.443   8.928  0.1786 -0.0989 -0.0023
  184loPI   C1B 2941  15.795   0.970  10.566  0.0965 -0.1697 -0.3800
  184loPI   C2B 2942  15.842   0.945  10.135  0.0152  0.1200 -0.1321
  184loPI   C3B 2943  15.800   0.861   9.625  0.0696  0.0863  0.4393
  184loPI   C4B 2944  15.811   0.801   9.157 -0.0682 -0.2929  0.2474
  185loPI    C1 2945   3.058   8.552  11.276 -0.1349  0.0295  0.1088
  185loPI    C2 2946   2.904   8.539  11.645  0.0264 -0.1869  0.1703
  185loPI    C3 2947   3.213   8.304  11.548  0.2353  0.1463  0.0102
  185loPI   PO4 2948   2.836   8.611  11.057 -0.3588 -0.1145  0.1979
  185loPI   GL1 2949   2.775   8.910  10.648  0.1999  0.0469 -0.0392
  185loPI   GL2 2950   2.433   8.761  10.614 -0.0798  0.0175  0.1298
  185loPI   C1A 2951   2.818   8.927  10.189 -0.1177 -0.1131  0.0280
  185loPI   C2A 2952   2.781   8.952   9.733 -0.1469  0.0523  0.3169
  185loPI   C3A 2953   2.881   9.044   9.313 -0.0706  0.0665 -0.2113
  185loPI   C4A 2954   2.829   9.202   8.998 -0.1673  0.0365 -0.2815
  185loPI   C5A 2955   2.483   9.277   8.703 -0.0413 -0.0288  0.1314
  185loPI   C6A 2956   2.445   9.095   8.326 -0.2767  0.1988  0.0493
  185loPI   C1B 2957   2.362   8.749  10.244  0.0569 -0.1173  0.2851
  185loPI   C2B 2958   2.302   8.680   9.828  0.0339  0.1026 -0.2188
  185loPI   C3B 2959   2.306   8.778   9.455  0.0699 -0.2682 -0.1983
  185loPI   C4B 2960   2.445   8.771   9.107  0.0787  0.2274 -0.1480
  186loPI    C1 2961  10.036   3.683  11.829 -0.1348  0.0990  0.1139
  186loPI    C2 2962   9.921   3.707  12.211 -0.0126 -0.0682  0.1624
  186loPI    C3 2963  10.281   3.561  12.120 -0.0061  0.0538 -0.0126
  186loPI   PO4 2964   9.958   3.925  11.699  0.1951  0.2689 -0.0916
  186loPI   GL1 2965  10.017   4.033  11.253 -0.1652  0.3627 -0.2425
  186loPI   GL2 2966  10.331   4.089  11.083 -0.1879 -0.1033 -0.2371
  186loPI   C1A 2967   9.909   3.915  10.769  0.2403  0.4027 -0.0393
  186loPI   C2A 2968   9.770   3.966  10.387  0.0476 -0.2568 -0.1912
  186loPI   C3A 2969   9.815   3.892  10.017  0.1889 -0.4341  0.3234
  186loPI   C4A 2970   9.789   3.936   9.567  0.1557  0.0917 -0.2906
  186loPI   C5A 2971   9.714   4.041   9.116  0.1174  0.0420 -0.1028
  186loPI   C6A 2972   9.415   4.048   8.691 -0.1233  0.1287  0.0674
  186loPI   C1B 2973  10.313   4.145  10.615  0.4310 -0.0149 -0.3507
  186loPI   C2B 2974  10.374   4.063  10.107  0.1445 -0.1850  0.0137
  186loPI   C3B 2975  10.295   4.131   9.716 -0.2236 -0.0290  0.2170
  186loPI   C4B 2976  10.386   4.116   9.299 -0.0859  0.0279 -0.1025
  187loPI    C1 2977   6.318   9.920  11.283 -0.1347 -0.2292  0.2389
  187loPI    C2 2978   6.086  10.220  11.154 -0.0159 -0.3049 -0.1635
  187loPI    C3 2979   6.138  10.162  11.547 -0.2486  0.0383 -0.0776
  187loPI   PO4 2980   6.620   9.980  11.092  0.0519 -0.2104 -0.0641
  187loPI   GL1 2981   6.753  10.299  10.867  0.0603  0.2548  0.0005
  187loPI   GL2 2982   6.380  10.329  10.735 -0.1066  0.0880 -0.1367
  187loPI   C1A 2983   6.714  10.431  10.384 -0.1139 -0.2511 -0.0873
  187loPI   C2A 2984   6.734  10.483  10.002 -0.1727  0.1134 -0.3053
  187loPI   C3A 2985   6.728  10.473   9.587  0.0557  0.2691  0.0125
  187loPI   C4A 2986   6.632  10.514   9.059 -0.0224  0.1302  0.1134
  187loPI   C5A 2987   6.611  10.158   8.725  0.0110  0.3851  0.0886
  187loPI   C6A 2988   6.352  10.010   8.493 -0.2200 -0.1651 -0.0644
  187loPI   C1B 2989   6.237  10.281  10.324  0.1955  0.0029  0.1044
  187loPI   C2B 2990   6.298  10.322   9.900  0.0957 -0.1847 -0.1014
  187loPI   C3B 2991   6.230  10.323   9.540  0.0195  0.1815 -0.1631
  187loPI   C4B 2992   6.198  10.299   9.096  0.0304 -0.0909  0.0166
  188loPI    C1 2993  14.108  16.279  11.680 -0.1137  0.0652  0.0057
  188loPI    C2 2994  14.379  16.425  11.935  0.0445  0.0039 -0.1255
  188loPI    C3 2995  14.298  16.034  11.933 -0.1987  0.0512  0.0561
  188loPI   PO4 2996  14.204  16.461  11.427  0.1179  0.0702 -0.1961
  188loPI   GL1 2997  14.207  16.185  10.996  0.4195 -0.1944  0.0443
  188loPI   GL2 2998  13.891  16.327  11.023  0.1067  0.0537 -0.2756
  188loPI   C1A 2999  14.585  16.334  10.733 -0.1146 -0.0800  0.0118
  188loPI   C2A 3000  14.617  16.425  10.310  0.2259  0.2233 -0.0045
  188loPI   C3A 3001  14.557  16.503   9.910 -0.2304  0.2841  0.1012
  188loPI   C4A 3002  14.626  16.574   9.511 -0.3265 -0.1921 -0.2891
  188loPI   C5A 3003  14.339  16.580   9.267 -0.2170 -0.2709  0.2602
  188loPI   C6A 3004  13.950  16.424   8.989  0.0609  0.0167  0.3746
  188loPI   C1B 3005  13.741  16.433  10.612 -0.0457 -0.2354 -0.1158
  188loPI   C2B 3006  13.768  16.534  10.252 -0.0577  0.0484  0.3892
  188loPI   C3B 3007  13.670  16.630   9.820 -0.0544  0.1536 -0.0635
  188loPI   C4B 3008  13.716  16.612   9.355  0.1129  0.2059 -0.0782
  189loPI    C1 3009   3.167   1.666  11.674 -0.0998 -0.1295  0.3914
  189loPI    C2 3010   2.989   1.308  11.703 -0.2716 -0.0847 -0.0357
  189loPI    C3 3011   2.797   1.638  11.824 -0.2660 -0.0949  0.0008
  189loPI   PO4 3012   3.237   1.654  11.364 -0.0187  0.0745 -0.1931
  189loPI   GL1 3013   3.199   1.760  10.958 -0.4739 -0.0252 -0.1123
  189loPI   GL2 3014   3.187   2.120  10.859 -0.3007  0.0117  0.0466
  189loPI   C1A 3015   3.094   1.784  10.494 -0.1402 -0.0158  0.1271
  189loPI   C2A 3016   3.037   1.769  10.036 -0.0864 -0.0355  0.1289
  189loPI   C3A 3017   3.036   1.815   9.582  0.0971  0.1454 -0.0262
  189loPI   C4A 3018   3.071   1.631   9.191  0.1380  0.1763  0.0501
  189loPI   C5A 3019   3.265   1.300   8.894  0.2393 -0.1491 -0.1401
  189loPI   C6A 3020   3.196   1.037   8.551  0.1140  0.2606  0.0053
  189loPI   C1B 3021   3.088   2.294  10.540 -0.1661  0.5048 -0.0030
  189loPI   C2B 3022   3.193   2.289  10.102 -0.1539 -0.1058 -0.0954
  189loPI   C3B 3023   3.241   2.240   9.609 -0.0143  0.3766  0.0375
  189loPI   C4B 3024   3.037   2.271   9.179 -0.0262 -0.1767 -0.1180
  190loPI    C1 3025  16.107   5.843  11.802  0.2837 -0.0490 -0.0132
  190loPI    C2 3026  15.836   5.904  12.089  0.1546  0.2210 -0.1885
  190loPI    C3 3027  16.226   5.940  12.171  0.1280  0.1018 -0.0018
  190loPI   PO4 3028  16.007   5.979  11.624  0.0715  0.1257 -0.0076
  190loPI   GL1 3029  16.112   6.011  11.153 -0.2934  0.1594 -0.2150
  190loPI   GL2 3030  16.190   5.803  11.053  0.0102 -0.3026 -0.1179
  190loPI   C1A 3031  16.285   6.324  10.930 -0.1535  0.2728 -0.2061
  190loPI   C2A 3032  16.343   6.416  10.511 -0.2243  0.1917  0.1209
  190loPI   C3A 3033  16.217   6.370  10.112  0.0892 -0.2219 -0.0111
  190loPI   C4A 3034  16.304   6.282   9.708  0.4973  0.1804 -0.1251
  190loPI   C5A 3035  16.278   6.206   9.183 -0.1939 -0.4569 -0.0572
  190loPI   C6A 3036  16.453   6.041   8.791  0.1930 -0.0652  0.0012
  190loPI   C1B 3037  16.173   5.943  10.608  0.3073  0.0577  0.0492
  190loPI   C2B 3038  16.202   5.790  10.197  0.0835 -0.1754  0.0960
  190loPI   C3B 3039  16.225   5.756   9.716  0.1618 -0.1019  0.1778
  190loPI   C4B 3040  16.416   5.770   9.333 -0.2393 -0.1116 -0.2284
  191loPI    C1 3041   6.444   3.817  11.755  0.3677 -0.0367 -0.0690
  191loPI    C2 3042   6.837   3.746  11.773  0.3476 -0.1461 -0.0566
  191loPI    C3 3043   6.582   3.508  11.968  0.2711 -0.1103 -0.1124
  191loPI   PO4 3044   6.347   3.887  11.486 -0.2468  0.0643 -0.1366
  191loPI   GL1 3045   6.198   3.963  11.033 -0.2936 -0.0587 -0.4195
  191loPI   GL2 3046   6.357   3.671  11.043  0.1332  0.1613 -0.0203
  191loPI   C1A 3047   6.099   3.909  10.668 -0.0402 -0.0534  0.3265
  191loPI   C2A 3048   6.050   3.977  10.213  0.1382  0.0186 -0.0455
  191loPI   C3A 3049   6.124   3.991   9.759  0.0132  0.0134 -0.1817
  191loPI   C4A 3050   6.285   3.929   9.362 -0.0170  0.2196 -0.3706
  191loPI   C5A 3051   6.166   3.878   8.906 -0.0319  0.1993  0.0501
  191loPI   C6A 3052   6.124   3.640   8.499  0.1155  0.4706  0.1582
  191loPI   C1B 3053   6.537   3.614  10.692  0.2954  0.0613  0.2124
  191loPI   C2B 3054   6.594   3.527  10.284 -0.2313  0.1394  0.1091
  191loPI   C3B 3055   6.525   3.634   9.861  0.1134 -0.1111  0.0148
  191loPI   C4B 3056   6.547   3.532   9.495  0.1857 -0.0290 -0.1829
  192loPI    C1 3057   5.893   3.238  11.597 -0.2317  0.0471  0.1570
  192loPI    C2 3058   6.143   3.261  11.908  0.1216 -0.1075 -0.1080
  192loPI    C3 3059   5.992   3.595  11.748 -0.1013 -0.0292  0.2540
  192loPI   PO4 3060   5.967   3.079  11.454 -0.3233 -0.1799 -0.0382
  192loPI   GL1 3061   5.863   2.893  11.111  0.3008 -0.0936  0.0814
  192loPI   GL2 3062   6.050   2.776  10.836  0.2885 -0.1772 -0.0052
  192loPI   C1A 3063   5.582   3.203  10.834  0.1531 -0.0056 -0.0143
  192loPI   C2A 3064   5.457   3.212  10.385  0.2027 -0.1965  0.0574
  192loPI   C3A 3065   5.527   3.211   9.912  0.1871 -0.1274 -0.0225
  192loPI   C4A 3066   5.718   3.200   9.527  0.3348 -0.1956  0.0107
  192loPI   C5A 3067   5.958   3.312   9.188 -0.1090  0.1367  0.2084
  192loPI   C6A 3068   6.306   3.377   8.978  0.2585 -0.0219  0.2405
  192loPI   C1B 3069   5.955   2.815  10.476 -0.0625  0.0542 -0.0113
  192loPI   C2B 3070   5.894   2.848  10.077 -0.0592 -0.1283 -0.0197
  192loPI   C3B 3071   5.994   2.904   9.726 -0.4488  0.0691 -0.2844
  192loPI   C4B 3072   6.077   2.778   9.304 -0.1751 -0.2342  0.0039
  193loPI    C1 3073  15.523  10.047  11.524  0.3518 -0.2511  0.0922
  193loPI    C2 3074  15.717   9.701  11.573  0.0068 -0.4941 -0.1979
  193loPI    C3 3075  15.416   9.798  11.818  0.2510 -0.2862  0.0265
  193loPI   PO4 3076  15.750  10.155  11.280 -0.0318  0.0983 -0.0044
  193loPI   GL1 3077  15.793  10.210  10.945  0.1629  0.0304  0.2576
  193loPI   GL2 3078  16.062  10.493  10.881 -0.0975  0.0035 -0.3196
  193loPI   C1A 3079  15.549  10.271  10.506 -0.1321 -0.0427 -0.1805
  193loPI   C2A 3080  15.611  10.166  10.003 -0.1640  0.0735  0.0832
  193loPI   C3A 3081  15.620  10.190   9.611  0.1128  0.3580 -0.1331
  193loPI   C4A 3082  15.499  10.181   9.176 -0.2476 -0.0314  0.0792
  193loPI   C5A 3083  15.483  10.418   8.831  0.0314  0.1679 -0.2347
  193loPI   C6A 3084  15.489  10.381   8.428  0.3422 -0.0319  0.0925
  193loPI   C1B 3085  15.718  10.707  10.576 -0.0448 -0.1384  0.0465
  193loPI   C2B 3086  15.650  10.722  10.128  0.1115  0.3899 -0.1171
  193loPI   C3B 3087  15.695  10.675   9.745  0.2303  0.0880 -0.0165
  193loPI   C4B 3088  15.431  10.656   9.420 -0.1002 -0.1184  0.2161
  194loPI    C1 3089  12.204   2.328  11.772 -0.4023 -0.1960  0.2777
  194loPI    C2 3090  12.474   2.146  12.005  0.0255 -0.0863 -0.1171
  194loPI    C3 3091  12.310   2.491  12.122  0.2004 -0.0559  0.0425
  194loPI   PO4 3092  12.251   2.233  11.564 -0.1231 -0.2363 -0.1626
  194loPI   GL1 3093  12.515   2.519  11.245  0.2791 -0.0808 -0.0528
  194loPI   GL2 3094  12.199   2.324  11.107  0.1595 -0.0837  0.0380
  194loPI   C1A 3095  12.407   2.556  10.695 -0.1472 -0.1308 -0.4410
  194loPI   C2A 3096  12.312   2.479  10.258  0.0550  0.0593  0.0669
  194loPI   C3A 3097  12.483   2.400   9.809  0.0380  0.2200  0.3616
  194loPI   C4A 3098  12.483   2.420   9.392  0.1997  0.2537  0.0371
  194loPI   C5A 3099  12.157   2.343   9.122 -0.1467  0.3143  0.0297
  194loPI   C6A 3100  11.974   2.424   8.689  0.0792 -0.2535  0.0228
  194loPI   C1B 3101  11.952   2.289  10.799  0.1868  0.1918  0.0066
  194loPI   C2B 3102  11.823   2.391  10.406 -0.1783  0.3548 -0.0528
  194loPI   C3B 3103  11.782   2.327   9.952  0.3908  0.1248  0.0714
  194loPI   C4B 3104  12.036   2.224   9.611 -0.1057 -0.2859  0.0032
  195loPI    C1 3105  11.237  16.223  11.519  0.0414  0.0462 -0.0598
  195loPI    C2 3106  11.219  16.605  11.637 -0.0631  0.0522 -0.0942
  195loPI    C3 3107  11.248  16.313  11.909 -0.0841  0.0788 -0.0635
  195loPI   PO4 3108  11.483  16.235  11.246 -0.2274 -0.1089 -0.3562
  195loPI   GL1 3109  11.592  16.145  10.926  0.0337  0.0717  0.3648
  195loPI   GL2 3110  11.765  15.930  10.803  0.0671  0.1078  0.1933
  195loPI   C1A 3111  11.646  16.432  10.542 -0.3085 -0.1420  0.0004
  195loPI   C2A 3112  11.519  16.697  10.338  0.0853  0.0025 -0.2186
  195loPI   C3A 3113  11.460  16.757   9.911 -0.4395  0.4445 -0.1371
  195loPI   C4A 3114  11.404  16.463   9.529  0.1589  0.0428  0.1935
  195loPI   C5A 3115  11.214  16.243   9.159  0.0061 -0.0480 -0.0380
  195loPI   C6A 3116  11.286  15.935   8.903 -0.0338  0.1056  0.0605
  195loPI   C1B 3117  11.879  15.965  10.346 -0.0486  0.1437 -0.0531
  195loPI   C2B 3118  11.751  15.965   9.890  0.1210  0.1379 -0.1175
  195loPI   C3B 3119  11.754  16.076   9.422  0.1018  0.0776 -0.1288
  195loPI   C4B 3120  11.777  16.161   8.996  0.1213  0.0220  0.0295
  196loPI    C1 3121   7.498   8.942  11.477 -0.0339  0.0726  0.1118
  196loPI    C2 3122   7.474   9.118  11.835 -0.2706  0.0480  0.1099
  196loPI    C3 3123   7.154   9.109  11.595 -0.1459 -0.0363 -0.0552
  196loPI   PO4 3124   7.652   8.981  11.373  0.1439  0.5356  0.1452
  196loPI   GL1 3125   7.674   8.958  10.876 -0.1115 -0.0644  0.0365
  196loPI   GL2 3126   7.676   9.308  10.731  0.0675 -0.1881  0.1682
  196loPI   C1A 3127   7.452   8.819  10.523  0.1503 -0.0308  0.5027
  196loPI   C2A 3128   7.468   8.823  10.104 -0.0986  0.0761 -0.1322
  196loPI   C3A 3129   7.504   8.813   9.765  0.1490  0.2437 -0.0390
  196loPI   C4A 3130   7.415   8.850   9.307 -0.3362  0.1251 -0.3727
  196loPI   C5A 3131   7.313   8.796   8.884  0.0906 -0.0007  0.0090
  196loPI   C6A 3132   7.208   8.650   8.506  0.0317  0.4069 -0.1285
  196loPI   C1B 3133   7.477   9.370  10.250 -0.1680  0.2238 -0.1418
  196loPI   C2B 3134   7.535   9.327   9.843 -0.0443  0.3376  0.0445
  196loPI   C3B 3135   7.471   9.316   9.462  0.1844 -0.0749 -0.0649
  196loPI   C4B 3136   7.360   9.262   9.056 -0.0938 -0.1209  0.4433
  197loPI    C1 3137  16.531   2.725  11.823 -0.1296 -0.2127 -0.0323
  197loPI    C2 3138  16.204   2.709  12.053  0.0060 -0.0958  0.1717
  197loPI    C3 3139  16.568   2.705  12.221  0.1078 -0.0647 -0.0447
  197loPI   PO4 3140  16.513   2.561  11.578  0.0408 -0.0404  0.1214
  197loPI   GL1 3141  16.670   2.613  11.089  0.3039 -0.1467 -0.1102
  197loPI   GL2 3142  16.468   2.340  11.101  0.2296 -0.1948 -0.0160
  197loPI   C1A 3143  16.625   2.653  10.655 -0.3303 -0.1029  0.2449
  197loPI   C2A 3144  16.601   2.668  10.254 -0.3800 -0.3569 -0.0157
  197loPI   C3A 3145  16.568   2.571   9.892 -0.0105  0.2189 -0.2189
  197loPI   C4A 3146  16.545   2.511   9.420 -0.0258  0.0348 -0.2609
  197loPI   C5A 3147  16.430   2.669   8.961  0.0558 -0.0220 -0.2282
  197loPI   C6A 3148  16.544   2.545   8.604  0.1317 -0.3297 -0.1946
  197loPI   C1B 3149  16.488   2.131  10.746  0.2147  0.0260 -0.0189
  197loPI   C2B 3150  16.491   2.098  10.234  0.0418  0.1571 -0.0249
  197loPI   C3B 3151  16.477   2.092   9.820 -0.1510 -0.2822 -0.1369
  197loPI   C4B 3152  16.287   2.026   9.382 -0.1215 -0.1993  0.0494
  198loPI    C1 3153   4.551   5.695  11.527 -0.0153  0.1388 -0.0373
  198loPI    C2 3154   4.429   5.853  11.874 -0.1238  0.1314 -0.0718
  198loPI    C3 3155   4.788   5.678  11.849 -0.1432  0.0726  0.0541
  198loPI   PO4 3156   4.532   5.857  11.346  0.2437 -0.2976  0.2482
  198loPI   GL1 3157   4.718   5.923  10.982  0.1490 -0.0726 -0.0385
  198loPI   GL2 3158   4.565   5.709  10.786  0.0427 -0.2342  0.1957
  198loPI   C1A 3159   4.990   5.930  10.568  0.3723  0.0393  0.1447
  198loPI   C2A 3160   5.045   5.973  10.056 -0.1320 -0.0598 -0.0859
  198loPI   C3A 3161   5.022   5.883   9.570 -0.0270 -0.1126  0.2023
  198loPI   C4A 3162   5.019   6.052   9.217 -0.0053 -0.1782  0.1668
  198loPI   C5A 3163   4.894   6.422   8.944  0.1361 -0.0832  0.0357
  198loPI   C6A 3164   4.823   6.825   8.918 -0.1962  0.1734  0.1921
  198loPI   C1B 3165   4.555   5.738  10.364  0.0332 -0.0922  0.2101
  198loPI   C2B 3166   4.552   5.726  10.047  0.2611  0.0045 -0.1780
  198loPI   C3B 3167   4.545   5.560   9.552  0.3538 -0.2909  0.0932
  198loPI   C4B 3168   4.705   5.635   9.103 -0.0153 -0.2998 -0.0559
  199loPI    C1 3169   8.892  14.022  11.072 -0.1016 -0.3767  0.0347
  199loPI    C2 3170   9.042  14.188  11.404 -0.2766 -0.1887  0.0221
  199loPI    C3 3171   8.789  13.879  11.431 -0.1366 -0.3014  0.0551
  199loPI   PO4 3172   8.761  14.272  10.926 -0.0950  0.1317  0.2393
  199loPI   GL1 3173   8.708  14.576  10.602  0.0817  0.0315 -0.2119
  199loPI   GL2 3174   8.715  14.848  10.570 -0.1685 -0.1013  0.2618
  199loPI   C1A 3175   8.455  14.471  10.282 -0.0374 -0.2448  0.1750
  199loPI   C2A 3176   8.440  14.650   9.971  0.4819 -0.0314  0.2131
  199loPI   C3A 3177   8.453  14.598   9.526  0.0375  0.3192 -0.0602
  199loPI   C4A 3178   8.755  14.768   9.300  0.0336  0.1013 -0.0550
  199loPI   C5A 3179   9.056  14.759   9.080  0.0448  0.1610 -0.2916
  199loPI   C6A 3180   9.348  14.947   8.958  0.1002 -0.0914 -0.0970
  199loPI   C1B 3181   8.968  15.227  10.396 -0.0052  0.2733 -0.0595
  199loPI   C2B 3182   9.253  15.273  10.142 -0.1154 -0.3070  0.1083
  199loPI   C3B 3183   9.408  15.258   9.728  0.0686 -0.2977 -0.1134
  199loPI   C4B 3184   9.316  15.420   9.295  0.1142  0.0043  0.0800
  200loPI    C1 3185  13.418   2.962  11.642  0.0696 -0.2453  0.1064
  200loPI    C2 3186  13.437   3.022  12.037  0.0950  0.2583  0.0356
  200loPI    C3 3187  13.669   2.745  11.865  0.0451 -0.0020  0.3768
  200loPI   PO4 3188  13.423   3.206  11.516 -0.0556 -0.0636 -0.0010
  200loPI   GL1 3189  13.495   3.114  11.114 -0.2772  0.0327  0.0405
  200loPI   GL2 3190  13.588   3.310  10.850 -0.2686 -0.0622  0.2638
  200loPI   C1A 3191  13.422   2.768  10.745  0.1636 -0.1344  0.0029
  200loPI   C2A 3192  13.292   2.809  10.319  0.3961  0.2009 -0.2392
  200loPI   C3A 3193  13.395   2.824   9.894 -0.1987 -0.2996 -0.1387
  200loPI   C4A 3194  13.366   2.870   9.475  0.3121  0.3111  0.1419
  200loPI   C5A 3195  13.399   2.786   9.009  0.0314  0.0336 -0.0807
  200loPI   C6A 3196  13.208   2.455   8.855  0.2349 -0.1821  0.2414
  200loPI   C1B 3197  13.500   3.279  10.469 -0.1940  0.1261  0.1586
  200loPI   C2B 3198  13.478   3.246  10.103  0.0739 -0.3548  0.1443
  200loPI   C3B 3199  13.490   3.320   9.701  0.0645  0.1830 -0.2442
  200loPI   C4B 3200  13.359   3.284   9.224 -0.0195  0.0227 -0.1511
  201loPI    C1 3201   3.041  14.190  11.589  0.3842 -0.1959  0.0050
  201loPI    C2 3202   2.838  13.845  11.600  0.1567 -0.0599  0.1474
  201loPI    C3 3203   2.749  14.138  11.857  0.1951  0.1902 -0.1191
  201loPI   PO4 3204   2.990  14.303  11.329 -0.1081  0.0919  0.2162
  201loPI   GL1 3205   3.321  14.208  11.112  0.3555  0.1605  0.0556
  201loPI   GL2 3206   3.549  14.354  11.116 -0.0148  0.3133  0.4918
  201loPI   C1A 3207   3.214  14.035  10.736  0.0699  0.0376 -0.1262
  201loPI   C2A 3208   3.147  13.955  10.343 -0.0957 -0.0286  0.1566
  201loPI   C3A 3209   3.130  13.962   9.847  0.1067  0.2605 -0.0910
  201loPI   C4A 3210   3.132  14.006   9.462  0.3380  0.1777 -0.0648
  201loPI   C5A 3211   2.855  14.120   9.041 -0.0304 -0.0592 -0.0759
  201loPI   C6A 3212   2.912  14.009   8.686  0.0014  0.3737  0.0176
  201loPI   C1B 3213   3.621  14.229  10.655 -0.0860  0.0184 -0.1546
  201loPI   C2B 3214   3.670  14.133  10.285 -0.0474  0.2005  0.0717
  201loPI   C3B 3215   3.728  14.129   9.883  0.0996 -0.1679 -0.0120
  201loPI   C4B 3216   3.632  14.209   9.392 -0.0045  0.0361  0.0611
  202loPI    C1 3217   1.438   5.862  11.519 -0.1322 -0.2534 -0.1078
  202loPI    C2 3218   1.535   6.250  11.504 -0.1689 -0.2403 -0.0186
  202loPI    C3 3219   1.708   6.011  11.774 -0.1102 -0.2969 -0.1057
  202loPI   PO4 3220   1.399   5.832  11.290  0.3959 -0.1074 -0.0304
  202loPI   GL1 3221   1.139   5.935  10.940  0.1279 -0.0203 -0.0814
  202loPI   GL2 3222   0.917   5.694  10.710  0.0472 -0.2638 -0.1708
  202loPI   C1A 3223   1.337   5.853  10.530  0.0547  0.0840 -0.1205
  202loPI   C2A 3224   1.509   5.915  10.159  0.2239 -0.2304 -0.0758
  202loPI   C3A 3225   1.432   5.893   9.739 -0.1006 -0.1934  0.1039
  202loPI   C4A 3226   1.366   6.017   9.440 -0.1378 -0.0993 -0.1559
  202loPI   C5A 3227   1.503   5.944   9.101 -0.3011  0.1078 -0.0987
  202loPI   C6A 3228   1.236   6.030   8.794 -0.0710  0.1033  0.1347
  202loPI   C1B 3229   0.886   5.670  10.328 -0.1738 -0.0187 -0.0268
  202loPI   C2B 3230   0.967   5.727   9.941  0.2771 -0.1349 -0.3258
  202loPI   C3B 3231   0.910   5.791   9.570  0.2686  0.0543  0.0480
  202loPI   C4B 3232   0.986   5.797   9.178 -0.1010 -0.0115 -0.0143
  203loPI    C1 3233  16.219   9.671  11.514  0.0505  0.2705 -0.0938
  203loPI    C2 3234  16.085  10.025  11.643  0.0046  0.1780  0.1162
  203loPI    C3 3235  16.466   9.921  11.705  0.1400  0.3757 -0.3438
  203loPI   PO4 3236  16.056   9.726  11.224 -0.0517  0.0156  0.2298
  203loPI   GL1 3237  16.249   9.778  10.810 -0.0462 -0.1023 -0.1822
  203loPI   GL2 3238  16.295   9.472  10.734  0.2472 -0.0236  0.1728
  203loPI   C1A 3239  16.095   9.884  10.461 -0.2260  0.0266 -0.2252
  203loPI   C2A 3240  16.071   9.884  10.074 -0.3013 -0.1472 -0.1189
  203loPI   C3A 3241  16.055   9.930   9.658 -0.1883  0.2031 -0.2309
  203loPI   C4A 3242  15.931   9.843   9.185  0.0740 -0.2980  0.0522
  203loPI   C5A 3243  15.815   9.843   8.747 -0.0750 -0.1903  0.1560
  203loPI   C6A 3244  15.380   9.906   8.630  0.1119 -0.0525 -0.0959
  203loPI   C1B 3245  16.316   9.430  10.195 -0.1811  0.0493  0.0698
  203loPI   C2B 3246  16.261   9.427   9.816  0.0394  0.0723  0.0480
  203loPI   C3B 3247  16.411   9.645   9.463  0.0753 -0.0219 -0.3324
  203loPI   C4B 3248  16.381  10.094   9.248  0.1851 -0.1387 -0.1603
  204loPI    C1 3249   4.088   0.121  11.520  0.1329  0.0107  0.0956
  204loPI    C2 3250   4.305  -0.204  11.435  0.1331  0.0782 -0.1719
  204loPI    C3 3251   4.129  -0.169  11.793  0.2754 -0.1356 -0.0785
  204loPI   PO4 3252   3.998   0.147  11.244  0.0750  0.1422  0.0363
  204loPI   GL1 3253   3.781   0.204  10.815  0.0889 -0.1996 -0.0868
  204loPI   GL2 3254   3.898   0.545  10.956 -0.1949  0.1292  0.0171
  204loPI   C1A 3255   3.725   0.056  10.414  0.1747 -0.0119  0.2379
  204loPI   C2A 3256   3.733   0.254   9.941  0.3419 -0.1740  0.2924
  204loPI   C3A 3257   3.819   0.115   9.553 -0.0243 -0.2137  0.1637
  204loPI   C4A 3258   3.718   0.058   9.131  0.2052 -0.2390 -0.0567
  204loPI   C5A 3259   3.409   0.305   8.901  0.1280 -0.1156 -0.0066
  204loPI   C6A 3260   3.227   0.459   8.569 -0.1946 -0.1479 -0.1757
  204loPI   C1B 3261   3.822   0.566  10.490 -0.0898  0.0304  0.3649
  204loPI   C2B 3262   3.867   0.684  10.104  0.3411  0.0256  0.2340
  204loPI   C3B 3263   3.879   0.671   9.673 -0.2846  0.2285  0.1300
  204loPI   C4B 3264   3.770   0.536   9.229  0.1896 -0.1373  0.2894
  205loPI    C1 3265  14.440   4.321  11.841 -0.0575 -0.0453 -0.0763
  205loPI    C2 3266  14.802   4.355  12.008 -0.0821 -0.1973  0.0093
  205loPI    C3 3267  14.474   4.383  12.235 -0.1345  0.2276 -0.1100
  205loPI   PO4 3268  14.516   4.191  11.533  0.0622 -0.0584  0.1003
  205loPI   GL1 3269  14.554   4.200  11.134 -0.1550  0.1151  0.0265
  205loPI   GL2 3270  14.643   3.866  11.109  0.0578  0.1765 -0.0168
  205loPI   C1A 3271  14.605   4.241  10.683  0.0843  0.0941 -0.1503
  205loPI   C2A 3272  14.677   4.295  10.301  0.0481  0.0761  0.0854
  205loPI   C3A 3273  14.590   4.273   9.918  0.1804  0.2672  0.0712
  205loPI   C4A 3274  14.450   4.181   9.481  0.3373 -0.1090 -0.1685
  205loPI   C5A 3275  14.429   4.068   9.022 -0.1041 -0.2928  0.3129
  205loPI   C6A 3276  14.479   4.068   8.558  0.1039 -0.1257 -0.0095
  205loPI   C1B 3277  14.516   3.714  10.687 -0.2971 -0.0576  0.0492
  205loPI   C2B 3278  14.508   3.760  10.221  0.1439  0.1875  0.1615
  205loPI   C3B 3279  14.536   3.651   9.749 -0.1515  0.0016 -0.1873
  205loPI   C4B 3280  14.424   3.633   9.295  0.1258 -0.0575  0.0156
  206loPI    C1 3281  12.660   8.485  11.360 -0.0434  0.1397  0.0208
  206loPI    C2 3282  12.581   8.768  11.632 -0.0513 -0.0049  0.1709
  206loPI    C3 3283  12.431   8.400  11.678  0.1088 -0.0833  0.0732
  206loPI   PO4 3284  12.670   8.596  11.112 -0.1564  0.3212  0.3213
  206loPI   GL1 3285  12.917   8.625  10.774  0.3029  0.2871  0.0604
  206loPI   GL2 3286  13.106   8.825  10.942 -0.0555 -0.0063 -0.3915
  206loPI   C1A 3287  12.835   8.610  10.297  0.1120  0.1111 -0.2671
  206loPI   C2A 3288  12.967   8.354   9.844  0.1853 -0.1092  0.3371
  206loPI   C3A 3289  12.791   8.232   9.464 -0.0684 -0.1477 -0.2324
  206loPI   C4A 3290  12.656   8.256   9.107  0.0714  0.0068  0.1557
  206loPI   C5A 3291  12.341   8.386   8.826  0.0299  0.0562 -0.0531
  206loPI   C6A 3292  12.078   8.707   8.641  0.1762 -0.1803 -0.0438
  206loPI   C1B 3293  13.314   9.083  10.656  0.3491 -0.0301 -0.0563
  206loPI   C2B 3294  13.392   8.988  10.221 -0.1220  0.0521  0.1661
  206loPI   C3B 3295  13.338   8.724   9.835  0.1155  0.2565 -0.0759
  206loPI   C4B 3296  13.340   8.431   9.494 -0.0753  0.2744  0.1014
  207loPI    C1 3297   5.118   5.808  11.479  0.1296  0.0628  0.0342
  207loPI    C2 3298   5.493   5.825  11.615  0.0607  0.0355  0.2314
  207loPI    C3 3299   5.371   5.508  11.404  0.1889  0.1112  0.0404
  207loPI   PO4 3300   5.129   6.028  11.312  0.2279  0.1062  0.1675
  207loPI   GL1 3301   5.253   6.229  10.922 -0.1640  0.2331 -0.1929
  207loPI   GL2 3302   5.186   6.495  11.045  0.1517 -0.3917 -0.1864
  207loPI   C1A 3303   5.433   6.090  10.520  0.0595 -0.1622  0.0762
  207loPI   C2A 3304   5.504   6.166  10.061  0.3056  0.0753 -0.1571
  207loPI   C3A 3305   5.519   6.066   9.706 -0.2970 -0.2478 -0.1536
  207loPI   C4A 3306   5.497   5.940   9.280  0.0494  0.0603  0.0218
  207loPI   C5A 3307   5.690   5.845   8.841  0.0153 -0.0857  0.2214
  207loPI   C6A 3308   5.820   5.644   8.588 -0.0156 -0.2924 -0.1631
  207loPI   C1B 3309   5.143   6.481  10.532  0.2162  0.1297  0.0987
  207loPI   C2B 3310   5.087   6.529  10.122 -0.1783 -0.2820  0.0612
  207loPI   C3B 3311   5.115   6.371   9.808 -0.0658 -0.1312  0.1098
  207loPI   C4B 3312   5.277   6.425   9.357 -0.2976 -0.0271  0.1035
  208loPI    C1 3313  15.865   5.372  11.659 -0.0268  0.0167  0.0180
  208loPI    C2 3314  16.202   5.285  11.855 -0.2509 -0.2070  0.3135
  208loPI    C3 3315  15.880   5.408  12.057 -0.3612 -0.0363  0.0383
  208loPI   PO4 3316  15.942   5.550  11.398  0.0114  0.1743 -0.2812
  208loPI   GL1 3317  15.650   5.680  11.099  0.0600 -0.0068  0.1576
  208loPI   GL2 3318  15.684   5.388  10.976  0.5318  0.0278  0.2363
  208loPI   C1A 3319  15.772   5.693  10.611  0.1246 -0.2376  0.1346
  208loPI   C2A 3320  15.717   5.676  10.142  0.2517 -0.2417  0.1276
  208loPI   C3A 3321  15.691   5.610   9.706 -0.1157  0.1233 -0.2737
  208loPI   C4A 3322  15.567   5.739   9.271 -0.2192 -0.4722  0.0231
  208loPI   C5A 3323  15.557   5.497   8.891  0.2404 -0.1356 -0.0817
  208loPI   C6A 3324  15.358   5.081   8.861  0.1599  0.2673 -0.4020
  208loPI   C1B 3325  15.666   5.198  10.496  0.0297 -0.1979 -0.2301
  208loPI   C2B 3326  15.584   5.106  10.100 -0.1118 -0.0329 -0.0997
  208loPI   C3B 3327  15.609   5.066   9.674 -0.1761 -0.1743  0.1910
  208loPI   C4B 3328  15.611   5.237   9.267  0.0319  0.1516 -0.0500
  209loPI    C1 3329   0.644  16.951  11.586  0.2753  0.0933  0.0862
  209loPI    C2 3330   0.251  17.000  11.639  0.2147 -0.0050 -0.2472
  209loPI    C3 3331   0.507  17.282  11.764  0.0424  0.0500 -0.0105
  209loPI   PO4 3332   0.715  16.907  11.267  0.0363 -0.0748 -0.0740
  209loPI   GL1 3333   0.545  16.977  10.846 -0.0288  0.0979  0.1620
  209loPI   GL2 3334   0.345  16.672  10.726 -0.0152  0.2537  0.2737
  209loPI   C1A 3335   0.908  16.841  10.662 -0.1971  0.4837 -0.0315
  209loPI   C2A 3336   0.916  16.920  10.126 -0.0249  0.0716 -0.2112
  209loPI   C3A 3337   0.932  16.940   9.690 -0.0839  0.0993  0.2135
  209loPI   C4A 3338   0.871  16.888   9.197  0.0148  0.0335 -0.3199
  209loPI   C5A 3339   0.703  16.632   8.894  0.4685  0.1862  0.1300
  209loPI   C6A 3340   0.844  16.666   8.479  0.3541 -0.0661 -0.0590
  209loPI   C1B 3341   0.454  16.801  10.298  0.3224 -0.0478  0.0107
  209loPI   C2B 3342   0.335  16.748   9.903 -0.3339 -0.1708 -0.0358
  209loPI   C3B 3343   0.383  16.803   9.529 -0.1343  0.2071  0.0087
  209loPI   C4B 3344   0.251  16.774   9.149  0.3168  0.0011 -0.1016
  210loPI    C1 3345  15.119  16.714  11.853 -0.0676  0.1589 -0.0620
  210loPI    C2 3346  14.827  16.934  12.017 -0.0532  0.1477 -0.0212
  210loPI    C3 3347  15.209  16.999  12.119 -0.0628 -0.0136  0.1246
  210loPI   PO4 3348  15.083  16.742  11.614 -0.0286 -0.0194  0.0048
  210loPI   GL1 3349  15.254  16.767  11.241 -0.0092 -0.0649  0.0576
  210loPI   GL2 3350  15.574  16.825  11.339 -0.1321 -0.0689  0.0795
  210loPI   C1A 3351  15.060  16.734  10.825  0.0579  0.0277  0.3310
  210loPI   C2A 3352  15.046  16.637  10.492  0.1074 -0.1645  0.0477
  210loPI   C3A 3353  15.023  16.655  10.111 -0.0789  0.0040  0.0659
  210loPI   C4A 3354  15.131  16.752   9.725  0.2669 -0.2452  0.0769
  210loPI   C5A 3355  15.133  16.652   9.246 -0.2068 -0.1029 -0.0334
  210loPI   C6A 3356  15.110  16.459   8.870 -0.2242  0.0924 -0.0319
  210loPI   C1B 3357  15.604  16.923  10.922  0.1157 -0.0809  0.3100
  210loPI   C2B 3358  15.512  16.794  10.540  0.0964  0.0299  0.0167
  210loPI   C3B 3359  15.553  16.884  10.085 -0.0086  0.0631  0.0690
  210loPI   C4B 3360  15.653  16.787   9.668 -0.0239 -0.0429  0.0032
  211loPI    C1 3361   0.289   8.914  11.408  0.1480  0.2866 -0.0401
  211loPI    C2 3362   0.036   9.142  11.618 -0.0564  0.1661 -0.1520
  211loPI    C3 3363   0.421   9.119  11.725 -0.1725  0.0461  0.2566
  211loPI   PO4 3364   0.309   8.957  11.099  0.2367  0.0003 -0.0405
  211loPI   GL1 3365   0.578   8.732  10.722 -0.1047  0.1704  0.0968
  211loPI   GL2 3366   0.851   8.881  10.531  0.2016 -0.1883 -0.2500
  211loPI   C1A 3367   0.494   8.657  10.255 -0.1440 -0.1299  0.1528
  211loPI   C2A 3368   0.334   8.491   9.909 -0.0580  0.1977  0.0684
  211loPI   C3A 3369   0.432   8.525   9.522  0.0247  0.0078  0.1090
  211loPI   C4A 3370   0.446   8.401   9.042  0.3896 -0.0475 -0.2234
  211loPI   C5A 3371   0.626   8.262   8.604  0.0537  0.1193  0.2300
  211loPI   C6A 3372   0.719   7.870   8.377 -0.3025  0.0943  0.0588
  211loPI   C1B 3373   0.936   8.835  10.154  0.2814  0.0177  0.0126
  211loPI   C2B 3374   0.837   8.704   9.694 -0.1241 -0.0080 -0.0320
  211loPI   C3B 3375   0.908   8.661   9.296 -0.1338  0.2141  0.0314
  211loPI   C4B 3376   0.910   8.623   8.881  0.2845 -0.1962 -0.0073
  212loPI    C1 3377   4.551   0.310  11.544 -0.1797  0.1252  0.1193
  212loPI    C2 3378   4.641  -0.003  11.776  0.3094  0.0664 -0.1353
  212loPI    C3 3379   4.405   0.289  11.916  0.2203 -0.1895  0.2656
  212loPI   PO4 3380   4.531   0.233  11.328 -0.2079 -0.0726  0.1686
  212loPI   GL1 3381   4.356   0.140  10.894  0.0609  0.0051 -0.1039
  212loPI   GL2 3382   4.469  -0.109  10.978  0.1249 -0.3075  0.2267
  212loPI   C1A 3383   4.229   0.232  10.464 -0.2792  0.0225  0.0675
  212loPI   C2A 3384   4.190   0.337  10.019 -0.0969 -0.1159  0.2743
  212loPI   C3A 3385   4.246   0.363   9.692 -0.2074  0.0910 -0.1057
  212loPI   C4A 3386   4.217   0.330   9.310  0.0950 -0.0484 -0.1775
  212loPI   C5A 3387   4.288   0.148   8.879 -0.3498  0.0663 -0.2258
  212loPI   C6A 3388   3.974  -0.021   8.753  0.0588  0.0299  0.2066
  212loPI   C1B 3389   4.592  -0.127  10.526 -0.0870 -0.3098  0.1737
  212loPI   C2B 3390   4.530  -0.114  10.073 -0.0006 -0.0353  0.1803
  212loPI   C3B 3391   4.605  -0.015   9.758 -0.0895  0.0271 -0.1515
  212loPI   C4B 3392   4.670   0.031   9.315  0.1174  0.1498  0.0018
  213loPI    C1 3393  15.466  13.824  11.168  0.2501  0.0243 -0.0458
  213loPI    C2 3394  15.722  13.711  11.454  0.0389 -0.0035  0.1347
  213loPI    C3 3395  15.489  14.031  11.509 -0.0405 -0.0399  0.0155
  213loPI   PO4 3396  15.489  13.606  10.998  0.0040 -0.1676  0.1074
  213loPI   GL1 3397  15.198  13.595  10.537 -0.0824  0.0210 -0.1692
  213loPI   GL2 3398  15.519  13.721  10.519  0.3113 -0.0363  0.2271
  213loPI   C1A 3399  14.952  13.604  10.176 -0.0441 -0.2011 -0.0219
  213loPI   C2A 3400  15.036  13.714   9.740 -0.1067 -0.1561 -0.4215
  213loPI   C3A 3401  14.907  13.523   9.432  0.1811 -0.1624  0.1154
  213loPI   C4A 3402  14.981  13.340   8.987  0.0715 -0.3043  0.1611
  213loPI   C5A 3403  14.595  13.333   8.746  0.1920 -0.0681 -0.1998
  213loPI   C6A 3404  14.152  13.380   8.855  0.0851  0.0153 -0.0803
  213loPI   C1B 3405  15.493  13.858  10.189 -0.1221  0.2337 -0.0575
  213loPI   C2B 3406  15.507  13.938   9.701 -0.0066  0.0290  0.0605
  213loPI   C3B 3407  15.681  14.068   9.278 -0.3937 -0.0552  0.0879
  213loPI   C4B 3408  15.468  14.174   8.940 -0.0013 -0.3209  0.0593
  214loPI    C1 3409   4.753  11.381  11.789 -0.1293  0.2008  0.1943
  214loPI    C2 3410   5.082  11.602  11.846  0.0717 -0.0606  0.0719
  214loPI    C3 3411   4.840  11.519  12.154  0.0446  0.2460  0.1370
  214loPI   PO4 3412   4.803  11.382  11.440 -0.0279 -0.1537 -0.0223
  214loPI   GL1 3413   4.792  11.428  11.033 -0.4252 -0.2197  0.1817
  214loPI   GL2 3414   5.156  11.288  11.054  0.1720 -0.2837 -0.0434
  214loPI   C1A 3415   4.665  11.643  10.666 -0.1980  0.0049  0.0820
  214loPI   C2A 3416   4.503  11.699  10.178  0.0531 -0.0949  0.0999
  214loPI   C3A 3417   4.569  11.770   9.773 -0.3005 -0.1009  0.1374
  214loPI   C4A 3418   4.571  11.734   9.440  0.1115  0.2949  0.0443
  214loPI   C5A 3419   4.591  11.570   8.951 -0.0021  0.3665 -0.1006
  214loPI   C6A 3420   4.476  11.190   8.902 -0.0034  0.1505 -0.1607
  214loPI   C1B 3421   5.034  11.362  10.571  0.0856  0.2257 -0.3807
  214loPI   C2B 3422   4.902  11.380  10.184 -0.2064 -0.1487  0.0930
  214loPI   C3B 3423   4.909  11.414   9.746 -0.1003 -0.1541 -0.0936
  214loPI   C4B 3424   5.018  11.336   9.324 -0.1197  0.0867  0.0696
  215loPI    C1 3425   1.774  13.199  11.282 -0.0193  0.0125 -0.0173
  215loPI    C2 3426   1.513  13.312  11.563 -0.1880 -0.2159 -0.0789
  215loPI    C3 3427   1.671  12.944  11.572  0.0978 -0.0954 -0.0696
  215loPI   PO4 3428   1.684  13.378  11.097  0.1581  0.0476 -0.2322
  215loPI   GL1 3429   1.520  13.360  10.709 -0.0811 -0.0343  0.1228
  215loPI   GL2 3430   1.235  13.228  10.569  0.0067  0.0581  0.1422
  215loPI   C1A 3431   1.614  13.411  10.185 -0.1138  0.1670 -0.1373
  215loPI   C2A 3432   1.760  13.441   9.845  0.3209  0.0460  0.3501
  215loPI   C3A 3433   1.642  13.351   9.501 -0.0196  0.2460  0.0673
  215loPI   C4A 3434   1.754  13.286   9.051  0.0943 -0.2545  0.2380
  215loPI   C5A 3435   1.479  13.422   8.676  0.2638  0.1155  0.0647
  215loPI   C6A 3436   1.232  13.383   8.172 -0.1536  0.1639  0.1481
  215loPI   C1B 3437   1.108  13.161  10.242 -0.2253 -0.1756 -0.2344
  215loPI   C2B 3438   1.157  13.192   9.789 -0.1947 -0.0268  0.1621
  215loPI   C3B 3439   1.153  13.101   9.445 -0.0722 -0.1305 -0.2888
  215loPI   C4B 3440   1.176  13.247   9.061  0.0546 -0.1388  0.0497
  216loPI    C1 3441   8.224   4.099  11.911 -0.0816 -0.2945  0.1168
  216loPI    C2 3442   7.948   4.305  12.116  0.0923  0.1175 -0.0511
  216loPI    C3 3443   8.317   4.260  12.265  0.0451 -0.1108  0.0017
  216loPI   PO4 3444   8.069   4.184  11.568 -0.4355 -0.1739 -0.0690
  216loPI   GL1 3445   8.213   4.332  11.169  0.2363 -0.1002  0.0730
  216loPI   GL2 3446   7.929   4.232  10.985  0.0991  0.1756 -0.1145
  216loPI   C1A 3447   8.485   4.323  10.807 -0.2326 -0.2329 -0.1086
  216loPI   C2A 3448   8.485   4.400  10.407  0.0496 -0.0623  0.0483
  216loPI   C3A 3449   8.529   4.292  10.064  0.1517  0.0246 -0.0817
  216loPI   C4A 3450   8.499   4.353   9.613 -0.1592  0.1666 -0.1867
  216loPI   C5A 3451   8.453   4.284   9.174 -0.1919  0.1479 -0.5309
  216loPI   C6A 3452   8.610   4.525   8.897 -0.3015 -0.0570 -0.1942
  216loPI   C1B 3453   8.028   4.059  10.592  0.0022 -0.1333  0.0080
  216loPI   C2B 3454   8.085   4.076  10.090  0.3864 -0.4095 -0.1934
  216loPI   C3B 3455   8.036   4.122   9.584  0.0633  0.3177  0.1125
  216loPI   C4B 3456   8.023   4.078   9.133  0.0653 -0.0669 -0.1145
  217loPI    C1 3457   5.930   9.425  11.419  0.0306 -0.2010  0.1468
  217loPI    C2 3458   5.956   9.078  11.221  0.1099  0.0058 -0.2149
  217loPI    C3 3459   6.245   9.185  11.476 -0.0331 -0.3002  0.0831
  217loPI   PO4 3460   5.923   9.605  11.281 -0.0479 -0.3443 -0.1848
  217loPI   GL1 3461   5.789   9.779  10.986 -0.1574 -0.1248 -0.0189
  217loPI   GL2 3462   5.648   9.458  10.705 -0.0063 -0.1076 -0.2438
  217loPI   C1A 3463   5.757  10.025  10.642  0.3060  0.0760 -0.0401
  217loPI   C2A 3464   5.731  10.109  10.190 -0.0732 -0.0837 -0.1392
  217loPI   C3A 3465   5.849  10.160   9.778 -0.3272  0.4143 -0.0624
  217loPI   C4A 3466   5.770  10.084   9.330 -0.2524 -0.0085  0.0801
  217loPI   C5A 3467   5.674  10.281   8.881  0.1131 -0.0459 -0.1344
  217loPI   C6A 3468   5.818  10.582   8.502 -0.4961 -0.3147  0.0743
  217loPI   C1B 3469   5.594   9.564  10.286 -0.2079  0.3089 -0.4266
  217loPI   C2B 3470   5.592   9.476   9.915  0.1124 -0.0586  0.2152
  217loPI   C3B 3471   5.690   9.583   9.546  0.0014 -0.2583 -0.1345
  217loPI   C4B 3472   5.719   9.601   9.103  0.2598 -0.3415 -0.2705
  218loPI    C1 3473   5.189   8.827  11.393 -0.1574 -0.1435  0.0243
  218loPI    C2 3474   5.351   8.730  11.746 -0.3215 -0.1882  0.0884
  218loPI    C3 3475   4.998   8.918  11.733 -0.0672  0.2972 -0.0374
  218loPI   PO4 3476   5.382   8.838  11.252  0.1172  0.2483 -0.1940
  218loPI   GL1 3477   5.424   8.960  10.813 -0.1655  0.1069  0.2327
  218loPI   GL2 3478   5.809   8.916  10.783  0.0983 -0.0793 -0.0584
  218loPI   C1A 3479   5.513   9.006  10.316 -0.1816 -0.0098  0.1512
  218loPI   C2A 3480   5.614   8.973   9.918  0.2624 -0.0532 -0.1368
  218loPI   C3A 3481   5.702   9.058   9.546 -0.2580  0.0753  0.0851
  218loPI   C4A 3482   5.688   9.044   9.073  0.0111 -0.2381 -0.1663
  218loPI   C5A 3483   5.930   9.138   8.746 -0.4933  0.1467  0.1525
  218loPI   C6A 3484   6.047   9.154   8.342  0.2738  0.0669  0.0430
  218loPI   C1B 3485   6.080   8.751  10.322 -0.0763  0.1898 -0.0172
  218loPI   C2B 3486   6.004   8.648   9.873  0.1430  0.1614  0.2047
  218loPI   C3B 3487   5.988   8.610   9.377 -0.3002  0.1288 -0.0048
  218loPI   C4B 3488   6.037   8.677   9.001  0.0686  0.1450  0.1790
  219loPI    C1 3489  16.828   1.139  11.786 -0.0946  0.5194  0.2094
  219loPI    C2 3490  16.623   0.867  11.996  0.2352  0.1251  0.0349
  219loPI    C3 3491  16.968   1.012  12.138  0.3844 -0.0324 -0.1624
  219loPI   PO4 3492  16.870   0.991  11.545  0.1843 -0.0552  0.1050
  219loPI   GL1 3493  16.630   0.918  11.197 -0.2790  0.0997 -0.1392
  219loPI   GL2 3494  16.450   1.044  10.933 -0.0062 -0.1586 -0.0259
  219loPI   C1A 3495  16.766   0.756  10.771  0.2481  0.2371  0.0262
  219loPI   C2A 3496  16.688   0.777  10.328 -0.2736 -0.2504 -0.4365
  219loPI   C3A 3497  16.734   0.820   9.895 -0.0360 -0.1627 -0.2715
  219loPI   C4A 3498  16.728   0.739   9.477 -0.3592 -0.0532 -0.0665
  219loPI   C5A 3499  16.612   0.813   9.006 -0.0702 -0.1317 -0.2181
  219loPI   C6A 3500  16.799   0.835   8.569  0.1789 -0.0738  0.1952
  219loPI   C1B 3501  16.309   1.016  10.558  0.4633 -0.1906  0.1083
  219loPI   C2B 3502  16.329   1.058  10.152 -0.1416  0.4132  0.1388
  219loPI   C3B 3503  16.313   1.071   9.728 -0.0226 -0.0428 -0.1452
  219loPI   C4B 3504  16.352   1.127   9.348 -0.2073  0.0251 -0.2675
  220loPI    C1 3505  16.006   6.521  11.393 -0.0913  0.1694  0.1105
  220loPI    C2 3506  16.127   6.435  11.765  0.0872 -0.1419 -0.0155
  220loPI    C3 3507  16.367   6.640  11.518  0.0527 -0.1147 -0.0264
  220loPI   PO4 3508  15.744   6.606  11.381  0.1155  0.1348  0.1459
  220loPI   GL1 3509  15.430   6.373  11.248  0.3417 -0.0276 -0.0075
  220loPI   GL2 3510  15.669   6.114  11.286  0.4009 -0.1482  0.4501
  220loPI   C1A 3511  15.372   6.513  10.847 -0.2383 -0.1745 -0.1560
  220loPI   C2A 3512  15.437   6.498  10.355 -0.2057 -0.2509 -0.2475
  220loPI   C3A 3513  15.409   6.415   9.943  0.1561  0.1799  0.1504
  220loPI   C4A 3514  15.361   6.303   9.477 -0.1968 -0.0524 -0.1077
  220loPI   C5A 3515  15.514   6.147   9.010  0.1468 -0.0942  0.1619
  220loPI   C6A 3516  15.595   5.906   8.645 -0.0831  0.1515 -0.3365
  220loPI   C1B 3517  15.793   6.264  10.802  0.3707  0.0662  0.2146
  220loPI   C2B 3518  15.733   6.154  10.298 -0.1043  0.3711  0.0270
  220loPI   C3B 3519  15.843   6.059   9.899  0.0938  0.2486  0.3466
  220loPI   C4B 3520  15.876   6.108   9.491  0.1559 -0.0160  0.0072
  221loPI    C1 3521   6.006   7.215  11.272 -0.2956 -0.0972 -0.2622
  221loPI    C2 3522   5.854   6.846  11.245 -0.1921 -0.1474 -0.1662
  221loPI    C3 3523   5.830   7.048  11.589 -0.3865 -0.0031 -0.2626
  221loPI   PO4 3524   5.785   7.345  11.111 -0.2076 -0.1913  0.1499
  221loPI   GL1 3525   5.654   7.081  10.681  0.1794 -0.0388 -0.1508
  221loPI   GL2 3526   5.301   7.032  10.651  0.3652  0.0516  0.2482
  221loPI   C1A 3527   5.790   7.181  10.314 -0.0310  0.1524 -0.1295
  221loPI   C2A 3528   5.733   7.207   9.851  0.0310 -0.3834 -0.0458
  221loPI   C3A 3529   5.845   7.215   9.380 -0.0251 -0.0516  0.0625
  221loPI   C4A 3530   5.633   7.321   9.032  0.2158  0.3761  0.1290
  221loPI   C5A 3531   5.464   7.591   8.697 -0.2410 -0.2058  0.0776
  221loPI   C6A 3532   5.057   7.854   8.612  0.1140  0.2925 -0.0808
  221loPI   C1B 3533   5.265   6.997  10.222 -0.0345 -0.0596  0.0416
  221loPI   C2B 3534   5.143   6.975   9.745  0.2669  0.0838  0.1961
  221loPI   C3B 3535   5.239   6.889   9.288 -0.1328 -0.0793  0.1477
  221loPI   C4B 3536   5.330   6.709   8.908 -0.1148 -0.0011 -0.2685
  222loPI    C1 3537  10.455   5.293  11.604  0.2145  0.2458 -0.3661
  222loPI    C2 3538  10.632   5.482  11.909 -0.1202  0.0368 -0.0338
  222loPI    C3 3539  10.427   5.145  11.975 -0.2172  0.0008 -0.4897
  222loPI   PO4 3540  10.316   5.463  11.400 -0.1378 -0.1692 -0.0406
  222loPI   GL1 3541  10.214   5.683  11.042  0.1112 -0.2103  0.0158
  222loPI   GL2 3542  10.085   5.867  10.904  0.0292  0.0647  0.2123
  222loPI   C1A 3543  10.092   5.436  10.694 -0.3530 -0.3003  0.3208
  222loPI   C2A 3544  10.087   5.435  10.275  0.1515  0.2241  0.3938
  222loPI   C3A 3545  10.071   5.383   9.937 -0.1163  0.1356 -0.1701
  222loPI   C4A 3546  10.050   5.456   9.513  0.2395 -0.1685 -0.0229
  222loPI   C5A 3547  10.077   5.360   9.051  0.0024  0.0343  0.0714
  222loPI   C6A 3548   9.948   5.412   8.616 -0.0043 -0.1997  0.1599
  222loPI   C1B 3549  10.203   5.895  10.378  0.0219 -0.0048  0.0534
  222loPI   C2B 3550  10.165   5.888   9.904 -0.0562  0.2708  0.2306
  222loPI   C3B 3551  10.152   5.997   9.462 -0.0512  0.1221  0.0871
  222loPI   C4B 3552  10.059   6.073   9.112  0.3414  0.0593 -0.1631
  223loPI    C1 3553   3.100   3.025  11.499  0.2343  0.0929 -0.0368
  223loPI    C2 3554   2.902   2.717  11.660  0.4239  0.0555  0.1302
  223loPI    C3 3555   3.093   2.977  11.896  0.1641  0.3739 -0.0017
  223loPI   PO4 3556   3.122   3.018  11.226  0.1940  0.0021  0.0161
  223loPI   GL1 3557   2.926   3.256  10.847  0.2205 -0.0006 -0.0515
  223loPI   GL2 3558   3.235   3.305  10.866  0.2998  0.0991  0.1334
  223loPI   C1A 3559   2.831   3.191  10.391 -0.0620  0.3763  0.3388
  223loPI   C2A 3560   2.759   3.068  10.049 -0.0447  0.0654  0.1120
  223loPI   C3A 3561   2.800   3.065   9.623 -0.1617 -0.1107  0.2119
  223loPI   C4A 3562   2.712   3.035   9.156 -0.0938  0.2439  0.2083
  223loPI   C5A 3563   2.887   2.738   8.843  0.0960  0.2244 -0.2290
  223loPI   C6A 3564   2.964   2.689   8.371  0.0331 -0.0088 -0.0896
  223loPI   C1B 3565   3.379   3.267  10.496  0.0399  0.0716 -0.1555
  223loPI   C2B 3566   3.212   3.285  10.068 -0.1808  0.0487 -0.0294
  223loPI   C3B 3567   3.256   3.222   9.576 -0.0374  0.0642  0.0614
  223loPI   C4B 3568   3.237   3.244   9.033 -0.1401 -0.3548  0.2644
  224loPI    C1 3569  11.734  16.711  11.597 -0.1010 -0.2089 -0.1465
  224loPI    C2 3570  11.528  16.882  11.895 -0.0302 -0.3714 -0.0025
  224loPI    C3 3571  11.845  16.651  11.977  0.1841 -0.1606 -0.2200
  224loPI   PO4 3572  11.739  16.927  11.412  0.1015  0.0874 -0.4377
  224loPI   GL1 3573  11.842  17.171  11.091 -0.0609 -0.0280 -0.1496
  224loPI   GL2 3574  11.600  17.117  10.924 -0.0592  0.2139  0.0284
  224loPI   C1A 3575  12.092  17.354  10.784  0.0579  0.2079 -0.0883
  224loPI   C2A 3576  11.997  17.434  10.362 -0.0352  0.1851 -0.2756
  224loPI   C3A 3577  11.990  17.446   9.868  0.2150 -0.0774  0.2527
  224loPI   C4A 3578  12.099  17.445   9.463 -0.2743 -0.0047  0.1331
  224loPI   C5A 3579  11.822  17.489   9.123 -0.2534 -0.1892  0.2077
  224loPI   C6A 3580  11.629  17.126   8.934  0.2229 -0.0069 -0.3326
  224loPI   C1B 3581  11.562  17.160  10.512 -0.0035 -0.3137  0.1662
  224loPI   C2B 3582  11.545  17.274  10.120  0.1616 -0.0144  0.1454
  224loPI   C3B 3583  11.550  17.238   9.667  0.1599  0.1298  0.0323
  224loPI   C4B 3584  11.385  16.962   9.406  0.0637 -0.1567 -0.1911
  225loPI    C1 3585   9.139  17.056  11.699 -0.0520  0.0080  0.3240
  225loPI    C2 3586   9.417  16.983  11.421 -0.2381 -0.0545  0.1526
  225loPI    C3 3587   9.528  17.087  11.791  0.0103  0.2605 -0.0048
  225loPI   PO4 3588   8.955  17.212  11.578  0.0003 -0.0735  0.0046
  225loPI   GL1 3589   8.839  17.481  11.309 -0.0260 -0.0586  0.1217
  225loPI   GL2 3590   9.096  17.206  11.098  0.0953  0.0924  0.1540
  225loPI   C1A 3591   8.747  17.629  10.870  0.2528 -0.2472 -0.0415
  225loPI   C2A 3592   8.762  17.569  10.478 -0.3025  0.1554 -0.1885
  225loPI   C3A 3593   8.822  17.631  10.040 -0.1715  0.0853 -0.1366
  225loPI   C4A 3594   8.830  17.713   9.584  0.0223  0.4343  0.1542
  225loPI   C5A 3595   8.643  17.572   9.178 -0.0435 -0.2999 -0.2776
  225loPI   C6A 3596   8.936  17.534   8.769  0.2330  0.1267 -0.1288
  225loPI   C1B 3597   9.228  17.174  10.676 -0.3115 -0.1399 -0.1345
  225loPI   C2B 3598   9.262  17.318  10.210  0.0771  0.1175  0.1408
  225loPI   C3B 3599   9.219  17.326   9.753 -0.3051 -0.2103 -0.0212
  225loPI   C4B 3600   9.148  17.307   9.235 -0.1771 -0.2786  0.0861
  226loPI    C1 3601   7.337   6.876  11.282 -0.0623  0.3616 -0.1760
  226loPI    C2 3602   7.600   6.939  11.576 -0.2704 -0.1800  0.1404
  226loPI    C3 3603   7.210   7.006  11.638 -0.2556  0.2931 -0.2184
  226loPI   PO4 3604   7.410   6.989  11.098  0.0912  0.0237 -0.2634
  226loPI   GL1 3605   7.705   6.922  10.737 -0.1215  0.3044 -0.1380
  226loPI   GL2 3606   7.990   6.785  10.800  0.0075  0.2492  0.1615
  226loPI   C1A 3607   7.513   6.799  10.458 -0.0846 -0.0472 -0.0967
  226loPI   C2A 3608   7.520   6.812  10.052  0.0898  0.1687 -0.1790
  226loPI   C3A 3609   7.623   6.979   9.577 -0.0205 -0.4485  0.1388
  226loPI   C4A 3610   7.678   7.058   9.207 -0.1382  0.1292  0.5044
  226loPI   C5A 3611   7.661   6.788   8.819 -0.2271 -0.0136 -0.2095
  226loPI   C6A 3612   7.760   6.667   8.352  0.1139 -0.0966  0.1563
  226loPI   C1B 3613   7.885   6.526  10.406 -0.3096  0.0634 -0.2516
  226loPI   C2B 3614   7.966   6.527   9.984  0.2245  0.1268 -0.0694
  226loPI   C3B 3615   7.985   6.605   9.599 -0.2643 -0.0074  0.0803
  226loPI   C4B 3616   7.993   6.678   9.178  0.1528  0.0038 -0.1330
  227loPI    C1 3617   3.066   3.815  11.767  0.0115  0.1599  0.1572
  227loPI    C2 3618   3.259   3.467  11.811 -0.2448  0.0171  0.1740
  227loPI    C3 3619   3.265   3.738  12.105  0.2691  0.1901  0.0151
  227loPI   PO4 3620   3.094   3.991  11.476  0.1164 -0.0647  0.0422
  227loPI   GL1 3621   3.230   4.271  11.151  0.0086  0.0516 -0.0237
  227loPI   GL2 3622   3.372   3.975  11.062  0.0249  0.0370  0.0197
  227loPI   C1A 3623   3.457   4.262  10.699  0.1144 -0.2393 -0.1592
  227loPI   C2A 3624   3.375   4.235  10.203  0.2046  0.2300  0.0579
  227loPI   C3A 3625   3.467   4.302   9.757  0.2744  0.1528  0.2021
  227loPI   C4A 3626   3.468   4.139   9.400 -0.0418 -0.0159  0.0356
  227loPI   C5A 3627   3.372   4.166   9.011 -0.1295  0.3994  0.1309
  227loPI   C6A 3628   3.325   3.782   8.824  0.0822 -0.1322 -0.2459
  227loPI   C1B 3629   3.390   3.755  10.704  0.2075 -0.1125 -0.1307
  227loPI   C2B 3630   3.341   3.757  10.224  0.1607  0.1858 -0.2509
  227loPI   C3B 3631   3.344   3.784   9.808 -0.1924  0.2603 -0.2322
  227loPI   C4B 3632   3.271   3.706   9.406  0.0234  0.0198  0.0717
  228loPI    C1 3633  12.855   6.296  11.712  0.1338 -0.3342 -0.0461
  228loPI    C2 3634  12.649   6.624  11.811  0.4224 -0.1101 -0.1758
  228loPI    C3 3635  12.881   6.444  12.082  0.2376 -0.2291 -0.0949
  228loPI   PO4 3636  12.705   6.265  11.477  0.0097  0.3504 -0.1541
  228loPI   GL1 3637  12.934   6.359  11.086 -0.1479  0.1098 -0.0251
  228loPI   GL2 3638  13.137   6.611  10.959  0.0220 -0.3395  0.1919
  228loPI   C1A 3639  12.945   6.163  10.645  0.2647  0.1696 -0.0839
  228loPI   C2A 3640  12.880   5.958  10.230  0.0612  0.1839 -0.2027
  228loPI   C3A 3641  12.999   6.067   9.809 -0.3686  0.2781  0.1863
  228loPI   C4A 3642  12.888   5.947   9.512 -0.5179  0.0972  0.0478
  228loPI   C5A 3643  12.728   5.813   9.143 -0.1224 -0.2547  0.1351
  228loPI   C6A 3644  12.916   6.050   8.672 -0.1289 -0.1485 -0.1420
  228loPI   C1B 3645  13.108   6.577  10.489 -0.0734  0.0403  0.1013
  228loPI   C2B 3646  13.021   6.540  10.025  0.0307  0.2260 -0.3021
  228loPI   C3B 3647  12.982   6.542   9.515 -0.1936 -0.1078 -0.1243
  228loPI   C4B 3648  12.843   6.361   9.138  0.2394 -0.1984  0.0800
  229loPI    C1 3649   8.505  13.142  11.115 -0.1400 -0.2848  0.1713
  229loPI    C2 3650   8.847  12.996  11.264  0.2328  0.3605 -0.0139
  229loPI    C3 3651   8.553  13.109  11.511  0.2627  0.0715  0.1589
  229loPI   PO4 3652   8.543  13.154  10.824 -0.1780  0.0333  0.1097
  229loPI   GL1 3653   8.743  13.358  10.548 -0.2116  0.1577 -0.0387
  229loPI   GL2 3654   8.558  13.541  10.519 -0.1479 -0.2378 -0.0572
  229loPI   C1A 3655   8.552  13.209  10.161  0.4259 -0.0498  0.0123
  229loPI   C2A 3656   8.468  13.276   9.689  0.2017 -0.0166  0.1035
  229loPI   C3A 3657   8.508  13.135   9.327 -0.1815  0.2408  0.4362
  229loPI   C4A 3658   8.716  12.878   8.917  0.3334  0.0687 -0.1930
  229loPI   C5A 3659   8.755  12.599   8.631  0.2119 -0.2298 -0.2258
  229loPI   C6A 3660   8.957  12.416   8.275 -0.0268  0.0170 -0.2013
  229loPI   C1B 3661   8.153  13.432  10.359 -0.0371  0.2727  0.2352
  229loPI   C2B 3662   8.052  13.471   9.915  0.0638  0.0656 -0.1049
  229loPI   C3B 3663   8.048  13.471   9.402 -0.1447 -0.3361  0.0875
  229loPI   C4B 3664   8.281  13.468   9.003 -0.2477 -0.1199 -0.2265
  230loPI    C1 3665   0.035   8.034  11.453 -0.1023  0.1170  0.0484
  230loPI    C2 3666   0.313   7.749  11.416  0.0506  0.2361  0.2642
  230loPI    C3 3667  -0.060   7.651  11.519 -0.0089  0.0679 -0.0959
  230loPI   PO4 3668   0.063   8.137  11.197  0.0396 -0.0572 -0.1714
  230loPI   GL1 3669   0.189   7.946  10.768 -0.2362  0.1560  0.0570
  230loPI   GL2 3670   0.307   8.310  10.624 -0.0319  0.2373  0.1022
  230loPI   C1A 3671   0.263   7.618  10.383  0.1394 -0.0503  0.0034
  230loPI   C2A 3672   0.273   7.477   9.925  0.0173  0.1587  0.3978
  230loPI   C3A 3673   0.237   7.424   9.484  0.1086 -0.0062 -0.2281
  230loPI   C4A 3674   0.273   7.547   9.150 -0.1892  0.1596  0.0302
  230loPI   C5A 3675  -0.088   7.657   8.844 -0.0322 -0.0525 -0.0205
  230loPI   C6A 3676  -0.268   7.869   8.559 -0.0560 -0.1436  0.0740
  230loPI   C1B 3677   0.346   8.125  10.235 -0.0626  0.0956 -0.2301
  230loPI   C2B 3678   0.345   8.028   9.750 -0.0769 -0.0306 -0.5419
  230loPI   C3B 3679   0.386   8.029   9.335 -0.2595  0.3729 -0.1031
  230loPI   C4B 3680   0.360   7.940   8.810 -0.5029 -0.0089  0.1636
  231loPI    C1 3681   4.845  12.067  11.724 -0.0864  0.1884 -0.0187
  231loPI    C2 3682   4.607  12.331  11.906 -0.2368 -0.0428  0.1256
  231loPI    C3 3683   4.886  12.135  12.116 -0.1746 -0.0529  0.0340
  231loPI   PO4 3684   4.723  11.928  11.470  0.0408  0.1512 -0.0437
  231loPI   GL1 3685   4.623  11.977  11.056  0.0340 -0.0403 -0.2610
  231loPI   GL2 3686   4.915  12.047  10.965  0.1681  0.0226 -0.1350
  231loPI   C1A 3687   4.242  12.071  10.803  0.1584  0.0510 -0.0861
  231loPI   C2A 3688   4.090  12.017  10.457  0.0586 -0.0147 -0.0010
  231loPI   C3A 3689   4.170  12.054   9.991  0.2631  0.1361 -0.1532
  231loPI   C4A 3690   4.150  12.101   9.583  0.2557 -0.2138 -0.2293
  231loPI   C5A 3691   4.118  11.931   9.143 -0.0270  0.0775  0.3972
  231loPI   C6A 3692   4.078  11.900   8.674 -0.3244 -0.0266 -0.3147
  231loPI   C1B 3693   4.718  12.171  10.574  0.1069  0.2368  0.1079
  231loPI   C2B 3694   4.678  12.282  10.109 -0.0165 -0.2253  0.3094
  231loPI   C3B 3695   4.739  12.190   9.570  0.1736  0.1637  0.0911
  231loPI   C4B 3696   4.638  12.075   9.102 -0.0034 -0.0966  0.1381
  232loPI    C1 3697  17.429   9.892  11.273  0.1010 -0.0292  0.2007
  232loPI    C2 3698  17.270  10.193  11.482 -0.2398 -0.1656  0.1440
  232loPI    C3 3699  17.444   9.888  11.673  0.2090  0.1148  0.1990
  232loPI   PO4 3700  17.569   9.967  11.076 -0.0093  0.0760 -0.3643
  232loPI   GL1 3701  17.512   9.808  10.706 -0.1459 -0.4160 -0.2530
  232loPI   GL2 3702  17.202   9.862  10.552 -0.1454  0.1672 -0.0628
  232loPI   C1A 3703  17.731   9.637  10.402  0.2280 -0.1605 -0.0972
  232loPI   C2A 3704  17.608   9.570   9.983 -0.1478 -0.0490  0.0484
  232loPI   C3A 3705  17.652   9.446   9.533  0.3974 -0.2212  0.0535
  232loPI   C4A 3706  17.664   9.243   9.148 -0.1700 -0.0880 -0.1570
  232loPI   C5A 3707  17.530   9.045   8.811 -0.0819 -0.2732 -0.3097
  232loPI   C6A 3708  17.579   9.141   8.307 -0.1595  0.3476 -0.1600
  232loPI   C1B 3709  17.141   9.789  10.144 -0.1240 -0.0719  0.1254
  232loPI   C2B 3710  17.132   9.678   9.734 -0.1923  0.2617  0.2291
  232loPI   C3B 3711  17.192   9.665   9.260  0.2958 -0.1636 -0.0555
  232loPI   C4B 3712  17.203   9.489   8.893 -0.0264 -0.0948  0.3143
  233loPI    C1 3713   7.250   8.094  11.359  0.2705 -0.1172  0.3575
  233loPI    C2 3714   7.300   8.480  11.451  0.0294 -0.0098  0.0578
  233loPI    C3 3715   7.206   8.216  11.737 -0.0838  0.2032  0.2198
  233loPI   PO4 3716   7.186   8.141  11.074 -0.4581 -0.0940 -0.1273
  233loPI   GL1 3717   7.125   8.416  10.661  0.2260 -0.0635 -0.1503
  233loPI   GL2 3718   6.895   8.609  10.498 -0.2469 -0.1788  0.0045
  233loPI   C1A 3719   7.319   8.335  10.304 -0.2279 -0.0948 -0.0226
  233loPI   C2A 3720   7.399   8.258   9.893 -0.2538  0.1563  0.0239
  233loPI   C3A 3721   7.378   8.346   9.441  0.3722  0.0057 -0.2421
  233loPI   C4A 3722   7.263   8.297   9.035  0.1413  0.1755  0.1321
  233loPI   C5A 3723   7.133   8.143   8.715 -0.1771 -0.1673  0.1470
  233loPI   C6A 3724   7.032   7.737   8.705  0.1564  0.0253 -0.0949
  233loPI   C1B 3725   7.017   8.650  10.069  0.0611 -0.0093 -0.0434
  233loPI   C2B 3726   6.884   8.624   9.667  0.1646 -0.1757  0.0015
  233loPI   C3B 3727   6.931   8.562   9.274 -0.2023 -0.1172 -0.1460
  233loPI   C4B 3728   6.697   8.636   8.818  0.2300  0.7134 -0.0059
  234loPI    C1 3729  12.924   2.000  11.907 -0.3109  0.1678  0.0459
  234loPI    C2 3730  13.212   2.044  12.181 -0.0086 -0.1288 -0.2153
  234loPI    C3 3731  12.925   2.320  12.146  0.1980  0.1330  0.1011
  234loPI   PO4 3732  13.027   1.905  11.724 -0.2211  0.0996 -0.1520
  234loPI   GL1 3733  12.947   1.963  11.232 -0.2496  0.3096 -0.3719
  234loPI   GL2 3734  13.175   1.852  11.288  0.0365 -0.0742 -0.1185
  234loPI   C1A 3735  12.776   2.213  10.887 -0.2532 -0.1841 -0.2755
  234loPI   C2A 3736  12.745   2.131  10.426 -0.0300  0.4549 -0.2014
  234loPI   C3A 3737  12.830   2.155   9.976 -0.1994  0.0603  0.0910
  234loPI   C4A 3738  12.916   2.137   9.566 -0.2448  0.1352 -0.1252
  234loPI   C5A 3739  12.877   2.084   9.060  0.1171 -0.0451  0.3474
  234loPI   C6A 3740  12.841   2.153   8.567  0.0193 -0.1730  0.0053
  234loPI   C1B 3741  13.260   1.815  10.790 -0.0342  0.1569 -0.1232
  234loPI   C2B 3742  13.194   1.809  10.407  0.2457 -0.3149 -0.2047
  234loPI   C3B 3743  13.235   1.844  10.014  0.1603 -0.0523  0.0221
  234loPI   C4B 3744  13.229   1.760   9.582 -0.3110  0.0443  0.2981
  235loPI    C1 3745  15.150   5.307  11.514 -0.0387 -0.1005 -0.0014
  235loPI    C2 3746  15.423   5.247  11.801 -0.0710  0.0706  0.0666
  235loPI    C3 3747  15.206   4.940  11.663  0.0784 -0.0463  0.0896
  235loPI   PO4 3748  15.267   5.386  11.314 -0.0118  0.2673  0.1521
  235loPI   GL1 3749  15.163   5.486  10.879 -0.0459  0.1868 -0.0350
  235loPI   GL2 3750  14.829   5.321  10.813 -0.1422  0.1806 -0.0626
  235loPI   C1A 3751  15.273   5.480  10.422 -0.1324  0.0239  0.0719
  235loPI   C2A 3752  15.185   5.413   9.999  0.0093 -0.4497 -0.1117
  235loPI   C3A 3753  15.192   5.418   9.558  0.2216 -0.1596  0.1481
  235loPI   C4A 3754  15.070   5.443   9.138  0.0953  0.1177 -0.0429
  235loPI   C5A 3755  14.716   5.444   8.906 -0.0863  0.1571 -0.0480
  235loPI   C6A 3756  14.278   5.581   8.706 -0.0869 -0.1306 -0.1351
  235loPI   C1B 3757  14.773   5.286  10.341  0.0527  0.3212  0.1107
  235loPI   C2B 3758  14.738   5.216   9.946 -0.3006  0.2310 -0.3324
  235loPI   C3B 3759  14.699   5.130   9.460 -0.2251 -0.0780  0.0762
  235loPI   C4B 3760  14.809   4.891   9.090  0.0991 -0.0250  0.0405
  236loPI    C1 3761   3.319   0.917  11.532  0.1850 -0.0219  0.0247
  236loPI    C2 3762   3.117   0.603  11.388  0.0504  0.0183  0.1228
  236loPI    C3 3763   3.275   0.588  11.755  0.3167 -0.0511  0.0082
  236loPI   PO4 3764   3.197   1.105  11.326  0.0220  0.0545  0.0855
  236loPI   GL1 3765   3.176   1.195  10.924 -0.1151 -0.2823 -0.3239
  236loPI   GL2 3766   2.947   1.381  10.737 -0.0104  0.1256  0.0057
  236loPI   C1A 3767   3.506   1.334  10.548 -0.0037  0.0118 -0.2150
  236loPI   C2A 3768   3.494   1.527  10.181 -0.2983 -0.5672 -0.0919
  236loPI   C3A 3769   3.431   1.482   9.669 -0.1208  0.1191 -0.1345
  236loPI   C4A 3770   3.521   1.432   9.321 -0.2175 -0.0881 -0.1248
  236loPI   C5A 3771   3.792   1.177   9.046  0.1674  0.1866 -0.1610
  236loPI   C6A 3772   3.728   0.885   8.822 -0.4304 -0.1664  0.0835
  236loPI   C1B 3773   3.039   1.310  10.287  0.0722  0.2265 -0.1389
  236loPI   C2B 3774   3.012   1.216   9.873 -0.3015  0.0517  0.1180
  236loPI   C3B 3775   2.988   1.261   9.504 -0.1444 -0.1169  0.1936
  236loPI   C4B 3776   2.845   1.180   9.042  0.1280  0.1860  0.2760
  237loPI    C1 3777   1.471  17.437  11.521  0.2077 -0.1340  0.1068
  237loPI    C2 3778   1.308  17.797  11.584  0.3556  0.0113 -0.3077
  237loPI    C3 3779   1.339  17.536  11.886  0.0615  0.2669 -0.0492
  237loPI   PO4 3780   1.424  17.417  11.237 -0.0526 -0.4212  0.1392
  237loPI   GL1 3781   1.189  17.484  10.961 -0.1120  0.1054 -0.1380
  237loPI   GL2 3782   0.910  17.379  10.946  0.1915  0.2477 -0.0956
  237loPI   C1A 3783   1.396  17.655  10.646 -0.1443 -0.1435  0.0265
  237loPI   C2A 3784   1.456  17.692  10.222 -0.1045  0.1914 -0.1056
  237loPI   C3A 3785   1.413  17.628   9.711 -0.1422  0.2257 -0.0459
  237loPI   C4A 3786   1.408  17.718   9.277  0.0440  0.0043 -0.0919
  237loPI   C5A 3787   1.603  17.916   8.987 -0.2384  0.0251 -0.1341
  237loPI   C6A 3788   1.536  18.196   8.638  0.1700  0.0140  0.1063
  237loPI   C1B 3789   0.938  17.485  10.470 -0.1826  0.2560  0.1108
  237loPI   C2B 3790   0.980  17.556  10.062  0.2946  0.1660 -0.0657
  237loPI   C3B 3791   0.927  17.467   9.651  0.1225  0.2054  0.2011
  237loPI   C4B 3792   0.903  17.519   9.233  0.2625 -0.0176 -0.1666
  238loPI    C1 3793  15.997  16.512  11.777 -0.0605 -0.0393 -0.0344
  238loPI    C2 3794  15.635  16.659  11.865  0.1026  0.1954  0.2660
  238loPI    C3 3795  15.693  16.263  11.851 -0.2587  0.1499 -0.2002
  238loPI   PO4 3796  16.077  16.728  11.541 -0.2977 -0.0832 -0.3539
  238loPI   GL1 3797  16.138  16.859  11.190  0.1922 -0.1964 -0.0212
  238loPI   GL2 3798  15.984  17.197  11.142 -0.2330 -0.1799  0.2942
  238loPI   C1A 3799  16.438  16.720  10.936 -0.1840  0.4438  0.1023
  238loPI   C2A 3800  16.467  16.788  10.477  0.2103 -0.1000 -0.0817
  238loPI   C3A 3801  16.423  16.753  10.035  0.0252  0.2095  0.1561
  238loPI   C4A 3802  16.560  16.865   9.602  0.2037 -0.0719  0.0699
  238loPI   C5A 3803  16.482  16.706   9.244 -0.0783 -0.2194 -0.1300
  238loPI   C6A 3804  16.853  16.746   8.862 -0.3919 -0.1162  0.0405
  238loPI   C1B 3805  16.032  16.971  10.717 -0.0165 -0.0345 -0.1515
  238loPI   C2B 3806  16.022  17.054  10.235 -0.2961 -0.0963 -0.0204
  238loPI   C3B 3807  16.022  17.126   9.948  0.2103 -0.0873  0.1004
  238loPI   C4B 3808  16.142  17.075   9.495 -0.3642 -0.0097  0.0119
  239loPI    C1 3809   0.175  15.985  11.647 -0.1289  0.0214 -0.2405
  239loPI    C2 3810  -0.111  15.723  11.744 -0.0927 -0.0492 -0.3226
  239loPI    C3 3811   0.269  15.647  11.840 -0.0965  0.0276 -0.2456
  239loPI   PO4 3812   0.097  16.053  11.333  0.0150  0.0146  0.3420
  239loPI   GL1 3813   0.034  16.026  11.006 -0.0476 -0.1898  0.5460
  239loPI   GL2 3814  -0.246  16.033  10.795 -0.0709  0.3000  0.5034
  239loPI   C1A 3815   0.266  16.197  10.645  0.0254  0.2180  0.1377
  239loPI   C2A 3816   0.254  16.364  10.230  0.1672 -0.1276  0.1828
  239loPI   C3A 3817   0.285  16.213   9.752  0.0086 -0.0189 -0.1084
  239loPI   C4A 3818   0.179  16.293   9.452 -0.0218 -0.2793  0.0659
  239loPI   C5A 3819   0.106  16.366   8.844  0.0187  0.1761 -0.0971
  239loPI   C6A 3820   0.392  16.292   8.479  0.0912 -0.1755 -0.0842
  239loPI   C1B 3821  -0.268  16.111  10.331  0.1029  0.2257 -0.1644
  239loPI   C2B 3822  -0.318  16.109   9.963 -0.0957  0.0368 -0.1468
  239loPI   C3B 3823  -0.263  16.096   9.514  0.0944  0.0986  0.0154
  239loPI   C4B 3824  -0.184  16.096   9.093 -0.0080  0.1371  0.2575
  240loPI    C1 3825   8.369   2.336  11.672  0.2253  0.0554  0.0830
  240loPI    C2 3826   8.294   1.985  11.847  0.2420  0.0058 -0.0089
  240loPI    C3 3827   8.231   2.325  12.047 -0.2639 -0.0301 -0.0919
  240loPI   PO4 3828   8.505   2.307  11.409  0.0641  0.1570 -0.0782
  240loPI   GL1 3829   8.709   2.498  11.067  0.0707 -0.0852 -0.2633
  240loPI   GL2 3830   8.436   2.552  10.981 -0.0506  0.2509  0.1762
  240loPI   C1A 3831   8.701   2.432  10.528  0.1469 -0.2338  0.0017
  240loPI   C2A 3832   8.733   2.425  10.043 -0.1540 -0.0947  0.0098
  240loPI   C3A 3833   8.651   2.566   9.673  0.2514  0.1970 -0.4213
  240loPI   C4A 3834   8.649   2.552   9.274  0.0236 -0.0837 -0.1097
  240loPI   C5A 3835   8.890   2.372   8.886  0.2715 -0.0109 -0.0966
  240loPI   C6A 3836   9.177   2.643   8.560  0.2793  0.1235  0.2379
  240loPI   C1B 3837   8.280   2.802  10.660  0.0339 -0.2171  0.0610
  240loPI   C2B 3838   8.301   2.780  10.194  0.1294  0.3887  0.0390
  240loPI   C3B 3839   8.238   2.718   9.807  0.0296  0.1756 -0.2891
  240loPI   C4B 3840   8.280   2.903   9.401  0.3174 -0.2436  0.0861
  241loPI    C1 3841  13.429  17.431  11.717 -0.0273 -0.0054  0.0790
  241loPI    C2 3842  13.714  17.462  11.996 -0.1190  0.1335  0.1589
  241loPI    C3 3843  13.390  17.696  12.014 -0.0971  0.1873 -0.0993
  241loPI   PO4 3844  13.472  17.443  11.521  0.3823 -0.0521  0.0226
  241loPI   GL1 3845  13.643  17.693  11.213  0.3029  0.0884  0.0298
  241loPI   GL2 3846  13.286  17.650  11.096  0.1336 -0.1091  0.3357
  241loPI   C1A 3847  13.812  17.699  10.822  0.3965  0.0460 -0.0654
  241loPI   C2A 3848  13.925  17.642  10.318 -0.2334  0.1267 -0.2248
  241loPI   C3A 3849  13.893  17.693   9.912  0.0019  0.2777 -0.0310
  241loPI   C4A 3850  13.942  17.628   9.529  0.1816  0.0338 -0.1117
  241loPI   C5A 3851  14.156  17.576   9.086 -0.1123 -0.1102 -0.1295
  241loPI   C6A 3852  14.570  17.351   8.880 -0.1412 -0.3140 -0.0895
  241loPI   C1B 3853  13.026  17.789  10.719 -0.0892  0.2608 -0.3720
  241loPI   C2B 3854  13.029  17.946  10.310  0.0583 -0.1522  0.0151
  241loPI   C3B 3855  12.953  17.823   9.875  0.0457  0.1211 -0.2519
  241loPI   C4B 3856  12.999  17.785   9.475  0.0925 -0.1401  0.2544
  242loPI    C1 3857   1.344  10.319  11.197 -0.0901 -0.1643 -0.2660
  242loPI    C2 3858   1.006  10.404  11.393  0.0717  0.0128 -0.0588
  242loPI    C3 3859   1.215  10.076  11.487  0.0756  0.0231 -0.0316
  242loPI   PO4 3860   1.304  10.360  10.913  0.1522  0.0922  0.0865
  242loPI   GL1 3861   1.302  10.494  10.504 -0.1378  0.1261  0.1745
  242loPI   GL2 3862   0.938  10.404  10.454 -0.1111  0.2376 -0.2515
  242loPI   C1A 3863   1.293  10.479  10.145 -0.1956 -0.2875  0.2513
  242loPI   C2A 3864   1.235  10.509   9.730 -0.2561  0.0647 -0.0217
  242loPI   C3A 3865   1.235  10.463   9.426  0.1241 -0.1755  0.0045
  242loPI   C4A 3866   1.078  10.246   9.136 -0.2455 -0.3435  0.2793
  242loPI   C5A 3867   1.194   9.967   8.799  0.0642  0.1810  0.1681
  242loPI   C6A 3868   1.144   9.528   8.792 -0.0967 -0.0689 -0.3004
  242loPI   C1B 3869   0.759  10.559  10.040 -0.0852  0.0744  0.1102
  242loPI   C2B 3870   0.686  10.506   9.660  0.0520  0.1371 -0.1344
  242loPI   C3B 3871   0.639  10.570   9.186  0.0530  0.0048 -0.0449
  242loPI   C4B 3872   0.482  10.670   8.641  0.0764  0.1470 -0.1404
  243loPI    C1 3873  10.265  15.643  11.457  0.0199  0.1095 -0.0569
  243loPI    C2 3874  10.371  15.323  11.241 -0.1020 -0.0060  0.0528
  243loPI    C3 3875  10.368  15.302  11.640 -0.0381  0.1556  0.0622
  243loPI   PO4 3876  10.304  15.808  11.279  0.0612  0.1280 -0.2467
  243loPI   GL1 3877  10.007  16.052  10.962  0.0284  0.3038 -0.4826
  243loPI   GL2 3878  10.316  16.167  10.892  0.0855  0.0656  0.0471
  243loPI   C1A 3879   9.982  15.969  10.544 -0.0607 -0.4129 -0.1287
  243loPI   C2A 3880  10.000  16.098  10.153  0.0919 -0.0556  0.3888
  243loPI   C3A 3881   9.924  16.118   9.778  0.0317 -0.1441  0.2872
  243loPI   C4A 3882   9.971  16.224   9.399  0.0686 -0.1673 -0.2001
  243loPI   C5A 3883   9.984  15.867   9.064  0.0450  0.3805  0.2103
  243loPI   C6A 3884   9.963  15.752   8.601  0.2052 -0.0239 -0.1062
  243loPI   C1B 3885  10.371  16.263  10.466 -0.1172  0.0612 -0.0562
  243loPI   C2B 3886  10.513  16.405  10.130 -0.1217  0.1653 -0.3043
  243loPI   C3B 3887  10.413  16.330   9.713  0.2553  0.4232 -0.0037
  243loPI   C4B 3888  10.454  16.331   9.286  0.1014 -0.0632 -0.0634
  244loPI    C1 3889   4.554   4.362  11.720 -0.4621 -0.1631  0.0948
  244loPI    C2 3890   4.621   4.329  12.113 -0.4023 -0.0768  0.0921
  244loPI    C3 3891   4.896   4.203  11.853 -0.2907  0.1841  0.0804
  244loPI   PO4 3892   4.388   4.229  11.578  0.1268  0.2921 -0.0451
  244loPI   GL1 3893   4.090   4.330  11.485 -0.1196  0.1354  0.1761
  244loPI   GL2 3894   4.060   4.500  11.358  0.5204 -0.1692  0.2537
  244loPI   C1A 3895   3.853   4.112  11.019 -0.1951  0.3140  0.0696
  244loPI   C2A 3896   3.845   3.999  10.612 -0.0298  0.1019  0.1086
  244loPI   C3A 3897   3.760   3.974  10.163 -0.0271 -0.3033 -0.0846
  244loPI   C4A 3898   3.848   3.954   9.689 -0.1402  0.0796 -0.4213
  244loPI   C5A 3899   3.942   3.981   9.315 -0.0307 -0.1032 -0.1641
  244loPI   C6A 3900   3.782   3.928   8.944  0.0968 -0.1432 -0.1262
  244loPI   C1B 3901   4.368   4.600  10.926 -0.1017  0.0166 -0.1197
  244loPI   C2B 3902   4.345   4.751  10.539  0.1783  0.1653  0.2218
  244loPI   C3B 3903   4.340   4.675  10.105  0.0283  0.0055 -0.1437
  244loPI   C4B 3904   4.350   4.601   9.676 -0.0453 -0.2661 -0.2663
  245loPI    C1 3905  17.383   8.549  11.424 -0.0703 -0.0201  0.0035
  245loPI    C2 3906  17.217   8.354  11.731  0.1669  0.1503  0.2443
  245loPI    C3 3907  17.461   8.664  11.799  0.1744  0.2284 -0.1198
  245loPI   PO4 3908  17.175   8.621  11.234  0.0262  0.0359  0.1429
  245loPI   GL1 3909  17.047   8.430  10.939 -0.0034 -0.2134  0.0540
  245loPI   GL2 3910  17.270   8.207  10.864  0.0442 -0.2022  0.0132
  245loPI   C1A 3911  16.866   8.203  10.624  0.0001  0.1680  0.0102
  245loPI   C2A 3912  16.987   8.170  10.232 -0.0006 -0.2320  0.0124
  245loPI   C3A 3913  16.948   8.104   9.832 -0.0189  0.0093  0.0392
  245loPI   C4A 3914  17.035   8.025   9.404  0.1633  0.3062  0.1595
  245loPI   C5A 3915  16.989   7.868   9.016 -0.0803 -0.2843 -0.2922
  245loPI   C6A 3916  17.049   7.433   8.809  0.2805  0.0256 -0.1757
  245loPI   C1B 3917  17.416   8.273  10.430 -0.2014  0.1654  0.1759
  245loPI   C2B 3918  17.402   8.275   9.960 -0.2936  0.2637 -0.1248
  245loPI   C3B 3919  17.504   8.278   9.493 -0.0515  0.0637 -0.1958
  245loPI   C4B 3920  17.472   8.203   8.962 -0.3270 -0.1383  0.1192
  246loPI    C1 3921  17.087   6.980  11.611  0.1084  0.2473  0.0262
  246loPI    C2 3922  17.252   6.783  11.918 -0.0046  0.0490 -0.0391
  246loPI    C3 3923  16.983   7.071  11.987  0.0658  0.0935  0.0520
  246loPI   PO4 3924  17.310   7.061  11.490  0.4421  0.0767  0.1967
  246loPI   GL1 3925  17.405   7.176  11.005 -0.0008 -0.0826 -0.2891
  246loPI   GL2 3926  17.382   7.602  10.917 -0.1521  0.0533  0.0460
  246loPI   C1A 3927  17.326   7.318  10.509 -0.0913 -0.4522  0.1758
  246loPI   C2A 3928  17.370   7.333  10.064  0.2555  0.0916  0.1441
  246loPI   C3A 3929  17.394   7.297   9.687  0.4903  0.4420  0.0809
  246loPI   C4A 3930  17.389   7.269   9.167 -0.0955 -0.0134 -0.1636
  246loPI   C5A 3931  17.745   7.169   8.788 -0.1549 -0.1863 -0.0894
  246loPI   C6A 3932  17.805   6.810   8.512  0.2289 -0.4842  0.2608
  246loPI   C1B 3933  17.280   7.816  10.658  0.2861  0.2222 -0.0123
  246loPI   C2B 3934  17.420   7.844  10.182 -0.1762  0.2550 -0.2001
  246loPI   C3B 3935  17.386   7.801   9.742 -0.3268  0.3119 -0.2173
  246loPI   C4B 3936  17.443   7.765   9.367 -0.2873  0.3961 -0.1288
  247loPI    C1 3937   1.652   1.012  11.748  0.1302 -0.0810 -0.2638
  247loPI    C2 3938   1.591   0.620  11.797  0.0850 -0.0327  0.0987
  247loPI    C3 3939   1.815   0.821  12.060 -0.0326  0.2173  0.0108
  247loPI   PO4 3940   1.679   1.025  11.466 -0.1481  0.6621 -0.2077
  247loPI   GL1 3941   1.426   1.260  11.159 -0.2956 -0.1856 -0.0157
  247loPI   GL2 3942   1.675   1.493  11.053  0.1238  0.2743  0.0008
  247loPI   C1A 3943   1.195   1.038  10.787 -0.0260  0.1618 -0.1351
  247loPI   C2A 3944   1.181   1.010  10.418  0.2628  0.2598 -0.4167
  247loPI   C3A 3945   1.131   0.931   9.971 -0.5291 -0.1309  0.1773
  247loPI   C4A 3946   1.153   1.024   9.625 -0.0645  0.2466  0.4906
  247loPI   C5A 3947   1.081   1.123   9.225 -0.0932 -0.0898 -0.0036
  247loPI   C6A 3948   0.886   1.368   8.777  0.0788  0.2806 -0.0122
  247loPI   C1B 3949   1.670   1.214  10.731 -0.1456  0.0333  0.0021
  247loPI   C2B 3950   1.647   1.173  10.316  0.1619 -0.1734 -0.0628
  247loPI   C3B 3951   1.669   1.180   9.861  0.1644  0.0076  0.1137
  247loPI   C4B 3952   1.628   1.179   9.470  0.3193  0.1715  0.1487
  248loPI    C1 3953   0.124   5.416  11.602  0.1590 -0.2511 -0.0620
  248loPI    C2 3954   0.091   5.757  11.808  0.0004 -0.1819 -0.2003
  248loPI    C3 3955   0.218   5.425  11.991 -0.0685 -0.1041 -0.0087
  248loPI   PO4 3956   0.173   5.466  11.420 -0.1658 -0.2722 -0.2242
  248loPI   GL1 3957   0.169   5.280  10.972  0.1610  0.1541  0.3683
  248loPI   GL2 3958  -0.100   5.291  10.841 -0.2268  0.2522  0.1551
  248loPI   C1A 3959   0.382   5.024  10.556  0.1175 -0.1094 -0.0908
  248loPI   C2A 3960   0.324   4.969  10.193  0.0788 -0.2840 -0.1000
  248loPI   C3A 3961   0.404   4.930   9.825  0.0960  0.3328  0.3455
  248loPI   C4A 3962   0.359   5.048   9.398  0.2811  0.0286  0.0602
  248loPI   C5A 3963   0.221   5.296   9.068  0.0211  0.2294 -0.0448
  248loPI   C6A 3964   0.265   5.262   8.717  0.0572 -0.0071  0.0059
  248loPI   C1B 3965   0.015   5.382  10.421  0.0684 -0.1323  0.1657
  248loPI   C2B 3966  -0.036   5.281  10.035  0.2795  0.1164 -0.3869
  248loPI   C3B 3967  -0.056   5.282   9.615 -0.0351 -0.0587 -0.0277
  248loPI   C4B 3968  -0.220   5.323   9.179  0.2783 -0.0196  0.1141
  249loPI    C1 3969  17.339   2.340  11.880 -0.0787 -0.1881 -0.0175
  249loPI    C2 3970  17.659   2.471  12.081 -0.0395 -0.0133 -0.1906
  249loPI    C3 3971  17.463   2.145  12.206 -0.0795  0.1525  0.1916
  249loPI   PO4 3972  17.415   2.334  11.577 -0.1449 -0.1912 -0.0756
  249loPI   GL1 3973  17.339   2.489  11.267 -0.0044  0.0210  0.1483
  249loPI   GL2 3974  17.476   2.772  11.156 -0.2625 -0.1634  0.0817
  249loPI   C1A 3975  17.124   2.381  10.842  0.1657 -0.2047  0.1384
  249loPI   C2A 3976  17.010   2.382  10.448  0.4127 -0.0241 -0.1076
  249loPI   C3A 3977  16.922   2.317  10.111 -0.1863 -0.1962  0.0640
  249loPI   C4A 3978  16.982   2.273   9.703  0.2120 -0.1033 -0.1340
  249loPI   C5A 3979  16.928   2.186   9.383  0.0696  0.0287  0.1072
  249loPI   C6A 3980  16.902   2.296   8.942  0.3613 -0.1845  0.3137
  249loPI   C1B 3981  17.559   2.568  10.839 -0.0679 -0.1820  0.0533
  249loPI   C2B 3982  17.498   2.384  10.487  0.0660 -0.2432  0.1672
  249loPI   C3B 3983  17.421   2.443  10.139 -0.0102  0.2044  0.2079
  249loPI   C4B 3984  17.500   2.432   9.718 -0.2286 -0.1742  0.0385
  250loPI    C1 3985   2.531  17.447  11.499  0.1865 -0.1494  0.0755
  250loPI    C2 3986   2.278  17.484  11.807  0.0361 -0.0712 -0.0557
  250loPI    C3 3987   2.669  17.430  11.874  0.0343  0.1537  0.1483
  250loPI   PO4 3988   2.427  17.634  11.360  0.0243 -0.0446 -0.0490
  250loPI   GL1 3989   2.061  17.791  11.004 -0.0223 -0.1288 -0.0587
  250loPI   GL2 3990   2.298  17.662  10.912 -0.3444  0.0428 -0.1081
  250loPI   C1A 3991   1.870  17.821  10.612  0.1641  0.3899 -0.2599
  250loPI   C2A 3992   1.910  17.915  10.202  0.0275  0.3088 -0.0973
  250loPI   C3A 3993   1.943  17.891   9.780  0.3093  0.0930 -0.0199
  250loPI   C4A 3994   1.980  17.887   9.379 -0.2204  0.1405  0.0674
  250loPI   C5A 3995   2.204  17.907   8.981  0.0187  0.2594 -0.3846
  250loPI   C6A 3996   2.391  18.057   8.636  0.0680  0.2043 -0.1159
  250loPI   C1B 3997   2.310  17.529  10.545  0.2945 -0.1530 -0.0518
  250loPI   C2B 3998   2.237  17.553  10.112  0.0694 -0.1113 -0.1369
  250loPI   C3B 3999   2.288  17.576   9.626  0.2170  0.2779 -0.0093
  250loPI   C4B 4000   2.498  17.624   9.290  0.0989  0.0364  0.0163
  251loPI    C1 4001   6.795  15.077  11.128  0.2069 -0.0957  0.2025
  251loPI    C2 4002   6.717  15.263  11.474 -0.1180  0.0068  0.0779
  251loPI    C3 4003   6.910  15.456  11.181 -0.3550  0.1149 -0.0095
  251loPI   PO4 4004   6.533  14.953  11.066 -0.1344 -0.3233  0.0524
  251loPI   GL1 4005   6.765  14.728  10.753  0.0908  0.0820  0.2171
  251loPI   GL2 4006   6.700  15.103  10.653  0.2050  0.0777 -0.0370
  251loPI   C1A 4007   6.565  14.660  10.390 -0.0777 -0.0157  0.1760
  251loPI   C2A 4008   6.580  14.652   9.882  0.0358 -0.4245  0.1571
  251loPI   C3A 4009   6.504  14.829   9.473 -0.2079 -0.1660 -0.1452
  251loPI   C4A 4010   6.548  15.006   9.007 -0.0270 -0.2915  0.0988
  251loPI   C5A 4011   6.522  15.224   8.621  0.1499  0.1614  0.1486
  251loPI   C6A 4012   6.521  15.663   8.493  0.0042  0.2109 -0.0814
  251loPI   C1B 4013   6.646  15.243  10.232  0.1356 -0.2338 -0.0365
  251loPI   C2B 4014   6.556  15.193   9.830  0.0141  0.1853  0.0224
  251loPI   C3B 4015   6.598  15.304   9.358  0.1366 -0.1006  0.0919
  251loPI   C4B 4016   6.252  15.412   9.027  0.0260  0.2374 -0.0070
  252loPI    C1 4017  11.701   5.475  11.735  0.0908 -0.0655 -0.1208
  252loPI    C2 4018  12.036   5.635  11.883  0.0777 -0.0442 -0.1140
  252loPI    C3 4019  11.696   5.652  12.093  0.0486  0.0266 -0.1666
  252loPI   PO4 4020  11.722   5.518  11.473 -0.0844  0.0617  0.4049
  252loPI   GL1 4021  11.407   5.744  11.190  0.0035  0.1549 -0.4370
  252loPI   GL2 4022  11.155   5.894  11.268 -0.1936  0.4567 -0.0939
  252loPI   C1A 4023  11.509   5.530  10.715 -0.1454  0.0453 -0.0115
  252loPI   C2A 4024  11.516   5.447  10.364  0.3587  0.0518 -0.0396
  252loPI   C3A 4025  11.497   5.465   9.891  0.3478  0.2648  0.1158
  252loPI   C4A 4026  11.414   5.440   9.580  0.0293 -0.0806  0.0953
  252loPI   C5A 4027  11.406   5.422   9.146 -0.1189  0.0342  0.0114
  252loPI   C6A 4028  11.296   5.014   9.026  0.3557  0.1210 -0.0482
  252loPI   C1B 4029  11.132   5.834  10.794  0.6100 -0.1980  0.0724
  252loPI   C2B 4030  11.124   5.857  10.292  0.0049 -0.1061 -0.0640
  252loPI   C3B 4031  11.053   5.817   9.847  0.1808  0.1905 -0.2607
  252loPI   C4B 4032  11.038   5.813   9.475  0.4380 -0.2769  0.0914
  253loPI    C1 4033  13.302  11.159  11.142 -0.1431 -0.1545  0.4771
  253loPI    C2 4034  12.932  11.296  11.207 -0.1093  0.0082  0.3346
  253loPI    C3 4035  13.219  11.364  11.476 -0.0424  0.4105  0.1691
  253loPI   PO4 4036  13.446  11.223  10.825 -0.1012  0.0940  0.2774
  253loPI   GL1 4037  13.772  11.273  10.667 -0.0030  0.2650  0.1722
  253loPI   GL2 4038  13.886  11.052  10.573 -0.1037  0.2312 -0.1635
  253loPI   C1A 4039  13.767  11.502  10.316  0.0020  0.1440  0.3232
  253loPI   C2A 4040  13.876  11.549   9.874 -0.3460 -0.3430  0.2666
  253loPI   C3A 4041  14.198  11.559   9.595 -0.1839  0.3284 -0.1425
  253loPI   C4A 4042  14.299  11.353   9.251 -0.3585 -0.0556 -0.0007
  253loPI   C5A 4043  14.176  11.192   8.885 -0.1281 -0.0086  0.2233
  253loPI   C6A 4044  13.850  11.090   8.662  0.2082  0.1606 -0.1534
  253loPI   C1B 4045  13.648  10.934  10.217  0.1088  0.0758  0.0682
  253loPI   C2B 4046  13.719  10.935   9.759 -0.1192  0.1123 -0.2175
  253loPI   C3B 4047  13.813  11.220   9.507  0.0540  0.1811 -0.0007
  253loPI   C4B 4048  13.762  11.295   9.159  0.0948  0.1305 -0.0592
  254loPI    C1 4049  12.363   4.548  11.451  0.1175  0.0237  0.0323
  254loPI    C2 4050  12.226   4.599  11.823  0.1426  0.4656 -0.0145
  254loPI    C3 4051  12.582   4.428  11.763  0.0040  0.1102  0.1462
  254loPI   PO4 4052  12.228   4.744  11.330  0.1861 -0.1533  0.0029
  254loPI   GL1 4053  11.980   5.057  11.042 -0.1060 -0.1121  0.1504
  254loPI   GL2 4054  11.774   5.135  11.158 -0.1225 -0.0110  0.3044
  254loPI   C1A 4055  11.884   5.188  10.612 -0.2407  0.1822  0.2011
  254loPI   C2A 4056  11.820   5.106  10.175 -0.2355 -0.0591  0.3360
  254loPI   C3A 4057  11.853   5.084   9.762 -0.1073  0.2964  0.0668
  254loPI   C4A 4058  11.821   5.193   9.296 -0.2824 -0.0522  0.0862
  254loPI   C5A 4059  11.748   5.061   8.875  0.1484 -0.3060 -0.0686
  254loPI   C6A 4060  11.896   5.235   8.461 -0.2847  0.3859 -0.4194
  254loPI   C1B 4061  11.425   5.041  10.813  0.2569  0.5106  0.1658
  254loPI   C2B 4062  11.428   4.928  10.422 -0.2601  0.0377  0.2492
  254loPI   C3B 4063  11.382   4.977   9.995 -0.1787  0.0837 -0.0876
  254loPI   C4B 4064  11.353   4.964   9.528  0.2173  0.0238 -0.2640
  255loPI    C1 4065   2.039   0.390  11.504  0.1507 -0.1026 -0.0259
  255loPI    C2 4066   1.802   0.205  11.767  0.1082  0.0527  0.0464
  255loPI    C3 4067   2.090   0.450  11.896  0.0340  0.1941 -0.0533
  255loPI   PO4 4068   1.892   0.551  11.347  0.0577  0.1711 -0.2754
  255loPI   GL1 4069   1.759   0.731  10.933  0.3012  0.2568 -0.0582
  255loPI   GL2 4070   1.986   0.879  10.968 -0.2932  0.2375 -0.1811
  255loPI   C1A 4071   1.540   0.658  10.554  0.1550  0.2336  0.0312
  255loPI   C2A 4072   1.627   0.758  10.094  0.1658 -0.0985  0.3260
  255loPI   C3A 4073   1.523   0.651   9.697 -0.0406  0.1341  0.0603
  255loPI   C4A 4074   1.357   0.729   9.276  0.0663  0.3769 -0.0212
  255loPI   C5A 4075   1.471   1.043   8.908 -0.2781 -0.2466 -0.2873
  255loPI   C6A 4076   1.313   1.107   8.500  0.1486  0.0263 -0.1287
  255loPI   C1B 4077   2.039   0.884  10.535 -0.1034 -0.0470  0.1376
  255loPI   C2B 4078   2.115   0.883  10.066 -0.0762  0.0943 -0.0597
  255loPI   C3B 4079   1.970   0.875   9.636  0.3140  0.2384  0.4219
  255loPI   C4B 4080   2.027   0.804   9.264 -0.0305 -0.0601  0.0148
  256loPI    C1 4081  14.670  12.959  11.534 -0.0452  0.0526 -0.0051
  256loPI    C2 4082  15.065  12.990  11.474 -0.0250 -0.0579  0.0659
  256loPI    C3 4083  14.878  13.248  11.716  0.0360 -0.1179  0.1775
  256loPI   PO4 4084  14.566  12.959  11.240 -0.2368  0.1295  0.2296
  256loPI   GL1 4085  14.583  12.714  10.841 -0.3131 -0.0782  0.0649
  256loPI   GL2 4086  14.639  12.442  10.774 -0.2166 -0.0764 -0.1076
  256loPI   C1A 4087  14.379  12.973  10.531  0.0006 -0.0523 -0.0314
  256loPI   C2A 4088  14.341  13.032  10.156 -0.1456 -0.0417 -0.1236
  256loPI   C3A 4089  14.262  13.035   9.673 -0.2329 -0.2263 -0.0512
  256loPI   C4A 4090  14.079  12.963   9.286  0.0315  0.2832  0.0062
  256loPI   C5A 4091  13.848  13.205   9.226 -0.2539  0.0711 -0.0001
  256loPI   C6A 4092  13.626  13.382   8.820  0.1198 -0.1899  0.0733
  256loPI   C1B 4093  14.681  12.638  10.366 -0.5437  0.2123 -0.0075
  256loPI   C2B 4094  14.720  12.700   9.946  0.1645  0.1555  0.0632
  256loPI   C3B 4095  14.727  12.655   9.502  0.0181 -0.1852 -0.2139
  256loPI   C4B 4096  14.936  12.661   9.061  0.2625 -0.1766  0.1495
  257loPI    C1 4097  15.999   3.297  11.449 -0.0350  0.0305  0.1156
  257loPI    C2 4098  15.922   3.513  11.777  0.0701 -0.1227  0.2429
  257loPI    C3 4099  16.092   3.153  11.810  0.2332 -0.0697  0.0090
  257loPI   PO4 4100  15.805   3.323  11.256  0.1610  0.0006 -0.0661
  257loPI   GL1 4101  15.785   3.517  10.912 -0.2918 -0.0146 -0.3567
  257loPI   GL2 4102  15.747   3.891  10.960 -0.4246 -0.0175 -0.2043
  257loPI   C1A 4103  15.814   3.372  10.519 -0.1448  0.3336 -0.0066
  257loPI   C2A 4104  15.833   3.249  10.106  0.0017 -0.2857  0.0273
  257loPI   C3A 4105  15.766   3.206   9.665 -0.0986 -0.0455  0.2009
  257loPI   C4A 4106  15.653   3.231   9.303 -0.0325 -0.0853  0.1640
  257loPI   C5A 4107  15.632   3.429   8.898 -0.2139  0.0774  0.0579
  257loPI   C6A 4108  15.386   3.771   8.781 -0.1308 -0.0863 -0.2303
  257loPI   C1B 4109  15.959   3.853  10.615 -0.1241 -0.0046  0.0619
  257loPI   C2B 4110  15.870   3.819  10.180 -0.2448 -0.2261  0.1548
  257loPI   C3B 4111  15.915   3.728   9.697 -0.1976 -0.1716 -0.6550
  257loPI   C4B 4112  15.728   3.725   9.306  0.0204 -0.0624  0.2005
  258loPI    C1 4113  12.890  10.513  11.250 -0.2470 -0.0080 -0.0765
  258loPI    C2 4114  13.068  10.803  11.461 -0.1168  0.0053 -0.2025
  258loPI    C3 4115  12.927  10.478  11.647 -0.1283  0.0801 -0.0789
  258loPI   PO4 4116  12.771  10.602  11.097  0.0178 -0.0341 -0.1073
  258loPI   GL1 4117  12.492  10.628  10.706 -0.0328 -0.0909 -0.0209
  258loPI   GL2 4118  12.316  10.364  10.620 -0.0604 -0.0723  0.0415
  258loPI   C1A 4119  12.420  10.737  10.273  0.2692 -0.0693 -0.1430
  258loPI   C2A 4120  12.308  10.865   9.774  0.1831  0.0889 -0.1199
  258loPI   C3A 4121  12.327  11.178   9.589 -0.0814  0.0414 -0.0019
  258loPI   C4A 4122  12.293  11.402   9.283 -0.0085  0.2126  0.0039
  258loPI   C5A 4123  12.527  11.367   8.888  0.1014  0.0633 -0.1347
  258loPI   C6A 4124  12.438  11.451   8.482  0.0142  0.3296 -0.0856
  258loPI   C1B 4125  12.278  10.332  10.162  0.0872 -0.0926 -0.0866
  258loPI   C2B 4126  12.390  10.324   9.764  0.1732  0.2717  0.1186
  258loPI   C3B 4127  12.375  10.093   9.464  0.1763  0.3892  0.2532
  258loPI   C4B 4128  12.292  10.093   9.004  0.3501  0.1673  0.2857
  259loPI    C1 4129  10.204  16.409  11.640 -0.0658  0.0300 -0.1575
  259loPI    C2 4130  10.246  16.034  11.774 -0.0899 -0.0066 -0.2526
  259loPI    C3 4131  10.290  16.342  12.025 -0.1086 -0.0745 -0.1659
  259loPI   PO4 4132  10.185  16.356  11.322 -0.0462 -0.0190 -0.4793
  259loPI   GL1 4133  10.052  16.567  10.896  0.1578 -0.0280  0.0593
  259loPI   GL2 4134  10.032  16.820  10.959  0.1834  0.1910 -0.0662
  259loPI   C1A 4135  10.093  16.626  10.407 -0.0431  0.1412  0.1539
  259loPI   C2A 4136   9.989  16.597   9.969 -0.2022 -0.2402 -0.3137
  259loPI   C3A 4137  10.032  16.710   9.487 -0.0953 -0.1328 -0.2285
  259loPI   C4A 4138  10.028  16.633   9.062  0.1750  0.0117  0.0662
  259loPI   C5A 4139   9.904  16.398   8.717 -0.3957  0.1644 -0.1742
  259loPI   C6A 4140   9.696  16.575   8.421 -0.0910 -0.0044  0.0545
  259loPI   C1B 4141   9.834  16.983  10.621  0.0415  0.0515 -0.0684
  259loPI   C2B 4142   9.699  17.018  10.192  0.2316 -0.1134 -0.1056
  259loPI   C3B 4143   9.604  16.887   9.777  0.2866 -0.0632  0.0838
  259loPI   C4B 4144   9.509  17.021   9.365  0.0712  0.1027  0.1236
  260loPI    C1 4145  16.619  15.713  11.427 -0.0239 -0.2757 -0.0133
  260loPI    C2 4146  16.927  15.632  11.669  0.0827  0.1995  0.0185
  260loPI    C3 4147  16.557  15.662  11.819  0.1104  0.2334  0.0806
  260loPI   PO4 4148  16.772  15.457  11.196 -0.2452  0.0975  0.0449
  260loPI   GL1 4149  17.071  15.616  10.849  0.1286  0.0541  0.1474
  260loPI   GL2 4150  17.153  15.312  10.829  0.0233  0.0107 -0.1092
  260loPI   C1A 4151  17.124  15.616  10.344  0.1455 -0.1150 -0.3066
  260loPI   C2A 4152  17.109  15.556   9.917  0.1969  0.0074 -0.1838
  260loPI   C3A 4153  17.239  15.538   9.380  0.0193 -0.0866  0.0889
  260loPI   C4A 4154  17.353  15.629   8.873 -0.2957  0.3801 -0.1794
  260loPI   C5A 4155  17.429  15.305   8.699  0.0265  0.0755 -0.0561
  260loPI   C6A 4156  17.436  14.871   8.687  0.1353 -0.3616 -0.0550
  260loPI   C1B 4157  17.051  15.093  10.475 -0.2796  0.0021 -0.0615
  260loPI   C2B 4158  17.101  15.118  10.069  0.3585  0.0608  0.1020
  260loPI   C3B 4159  17.132  15.113   9.633 -0.0380 -0.1364  0.1091
  260loPI   C4B 4160  17.266  15.035   9.257  0.0393  0.1891  0.1767
  261loPI    C1 4161   8.809  10.704  11.358 -0.0009  0.1586  0.0503
  261loPI    C2 4162   9.163  10.859  11.255 -0.0070  0.2592  0.1788
  261loPI    C3 4163   9.103  10.729  11.629  0.0203 -0.1181  0.0564
  261loPI   PO4 4164   8.702  10.633  11.186 -0.0668 -0.0290  0.0687
  261loPI   GL1 4165   8.711  10.768  10.782  0.5244  0.3709 -0.1990
  261loPI   GL2 4166   8.953  10.980  10.774 -0.0475  0.0397  0.0232
  261loPI   C1A 4167   8.555  10.859  10.315  0.1963 -0.1771 -0.2960
  261loPI   C2A 4168   8.619  10.860   9.886 -0.0458  0.1629  0.3541
  261loPI   C3A 4169   8.670  10.774   9.479  0.2471 -0.1385  0.0984
  261loPI   C4A 4170   8.609  10.648   9.040 -0.2548  0.0144 -0.1609
  261loPI   C5A 4171   8.432  10.691   8.740 -0.1822 -0.1617 -0.1726
  261loPI   C6A 4172   8.529  11.053   8.470 -0.1322  0.1722 -0.0769
  261loPI   C1B 4173   9.131  10.989  10.345  0.1328 -0.1654 -0.0392
  261loPI   C2B 4174   9.169  10.996   9.908 -0.0353 -0.0416  0.2348
  261loPI   C3B 4175   9.132  10.988   9.465 -0.0694  0.1883 -0.1252
  261loPI   C4B 4176   9.009  10.943   8.976  0.0430  0.3161  0.1122
  262loPI    C1 4177  16.218   8.635  11.645  0.3083  0.2587  0.0212
  262loPI    C2 4178  16.487   8.637  11.940  0.1091  0.2721  0.2049
  262loPI    C3 4179  16.120   8.783  12.003 -0.0565 -0.0716  0.0656
  262loPI   PO4 4180  16.343   8.798  11.361  0.3200 -0.0815 -0.0884
  262loPI   GL1 4181  16.222   8.896  10.920  0.1312  0.0442  0.0938
  262loPI   GL2 4182  16.587   8.732  10.884 -0.0696  0.0214  0.1212
  262loPI   C1A 4183  16.062   8.766  10.557 -0.0815  0.2520 -0.3339
  262loPI   C2A 4184  16.096   8.640  10.104  0.0542  0.0358  0.2960
  262loPI   C3A 4185  16.143   8.556   9.624  0.0954 -0.0240 -0.1390
  262loPI   C4A 4186  16.169   8.599   9.223 -0.2029  0.1910  0.2330
  262loPI   C5A 4187  16.302   8.506   8.765 -0.0437  0.1187 -0.0829
  262loPI   C6A 4188  16.360   8.210   8.437 -0.1687 -0.0987 -0.0823
  262loPI   C1B 4189  16.516   8.486  10.400  0.1236 -0.0204  0.1516
  262loPI   C2B 4190  16.508   8.313   9.971 -0.0557  0.0254  0.2427
  262loPI   C3B 4191  16.620   8.283   9.486 -0.1567 -0.0173 -0.1327
  262loPI   C4B 4192  16.694   8.386   9.084  0.1526 -0.2146 -0.3030
  263loPI    C1 4193  11.765   9.267  11.498  0.0060  0.0617 -0.0567
  263loPI    C2 4194  11.495   8.991  11.603 -0.0694  0.1029 -0.1418
  263loPI    C3 4195  11.662   9.223  11.882 -0.0258 -0.0103 -0.0733
  263loPI   PO4 4196  11.960   9.213  11.336 -0.3818  0.0493  0.1896
  263loPI   GL1 4197  11.938   9.025  10.910  0.0415 -0.1078  0.0999
  263loPI   GL2 4198  12.041   9.414  10.816 -0.5034 -0.0874 -0.1595
  263loPI   C1A 4199  11.888   8.802  10.574 -0.1189 -0.1297  0.2667
  263loPI   C2A 4200  11.859   8.683  10.133 -0.0522  0.0233 -0.3387
  263loPI   C3A 4201  12.021   8.641   9.625 -0.0136  0.1369  0.0910
  263loPI   C4A 4202  11.936   8.562   9.158  0.2516  0.1257 -0.0890
  263loPI   C5A 4203  11.808   8.368   8.846  0.4363 -0.0563 -0.1292
  263loPI   C6A 4204  11.452   8.356   8.562  0.0726 -0.0973  0.1701
  263loPI   C1B 4205  12.138   9.310  10.444 -0.1500  0.1878 -0.2301
  263loPI   C2B 4206  12.036   9.252   9.984 -0.2615 -0.0064 -0.0122
  263loPI   C3B 4207  12.193   9.074   9.529 -0.1153  0.0971 -0.4101
  263loPI   C4B 4208  12.045   9.032   9.110  0.1076 -0.0742 -0.1274
  264loPI    C1 4209   5.335   4.691  11.433  0.0247 -0.2131  0.0662
  264loPI    C2 4210   4.963   4.559  11.500  0.0671 -0.2943  0.1446
  264loPI    C3 4211   5.207   4.636  11.808  0.0746 -0.1221  0.0969
  264loPI   PO4 4212   5.443   4.524  11.261  0.0351  0.0345  0.2941
  264loPI   GL1 4213   5.362   4.498  10.863  0.0379 -0.0929 -0.0061
  264loPI   GL2 4214   5.027   4.464  10.960  0.0546 -0.1695  0.0029
  264loPI   C1A 4215   5.231   4.553  10.405 -0.3454  0.0264 -0.1209
  264loPI   C2A 4216   5.208   4.530  10.038 -0.2053  0.0235  0.3434
  264loPI   C3A 4217   5.336   4.545   9.634  0.0785  0.2357 -0.3298
  264loPI   C4A 4218   5.357   4.494   9.178  0.1841  0.0414  0.0579
  264loPI   C5A 4219   5.176   4.296   8.684  0.0487  0.0930 -0.1906
  264loPI   C6A 4220   4.848   4.174   8.536  0.0433 -0.0480  0.1158
  264loPI   C1B 4221   4.805   4.335  10.514  0.0133 -0.1616  0.1253
  264loPI   C2B 4222   4.722   4.380  10.053  0.1406  0.0106 -0.0620
  264loPI   C3B 4223   4.783   4.336   9.610 -0.1516 -0.4128  0.0184
  264loPI   C4B 4224   4.949   4.263   9.102  0.0873 -0.1297 -0.1075
  265loPI    C1 4225   6.263   2.247  11.654 -0.3749  0.0802 -0.1142
  265loPI    C2 4226   6.482   2.391  11.956 -0.1539 -0.1171 -0.1781
  265loPI    C3 4227   6.278   2.050  12.001 -0.3590  0.0067 -0.1565
  265loPI   PO4 4228   6.406   2.276  11.452 -0.1202 -0.1338 -0.3323
  265loPI   GL1 4229   6.279   2.249  11.017 -0.1387  0.1252 -0.2563
  265loPI   GL2 4230   6.200   2.023  10.803  0.0990 -0.0406 -0.0340
  265loPI   C1A 4231   6.340   2.474  10.650 -0.2405  0.2168 -0.2758
  265loPI   C2A 4232   6.299   2.587  10.154 -0.0459 -0.1567  0.3113
  265loPI   C3A 4233   6.418   2.553   9.682 -0.2204  0.3274 -0.0828
  265loPI   C4A 4234   6.535   2.521   9.257 -0.0745 -0.1858  0.2319
  265loPI   C5A 4235   6.862   2.683   9.062  0.0338 -0.0122  0.0329
  265loPI   C6A 4236   7.262   2.858   9.128  0.1450 -0.4629 -0.3840
  265loPI   C1B 4237   6.279   1.992  10.348  0.0024 -0.0939  0.0502
  265loPI   C2B 4238   6.271   1.980   9.930 -0.0664 -0.1375 -0.2168
  265loPI   C3B 4239   6.331   2.038   9.486  0.0299  0.0607 -0.0455
  265loPI   C4B 4240   6.324   2.096   9.003  0.1122  0.1977  0.3224
  266loPI    C1 4241  17.140  11.201  11.248  0.0365 -0.0949  0.0500
  266loPI    C2 4242  17.229  11.374  11.598 -0.2429 -0.1318  0.1420
  266loPI    C3 4243  17.124  11.599  11.285 -0.3473 -0.1184  0.1863
  266loPI   PO4 4244  17.266  10.962  11.142  0.0456  0.0099  0.0573
  266loPI   GL1 4245  17.358  10.838  10.743  0.0607  0.1488  0.3809
  266loPI   GL2 4246  17.365  11.087  10.570 -0.3900 -0.3882  0.0352
  266loPI   C1A 4247  17.363  10.632  10.356  0.3484 -0.2514 -0.0233
  266loPI   C2A 4248  17.359  10.783   9.934  0.2678 -0.0291 -0.2346
  266loPI   C3A 4249  17.396  10.742   9.585  0.1860  0.2793  0.0350
  266loPI   C4A 4250  17.327  10.680   9.179  0.2224 -0.0241  0.0535
  266loPI   C5A 4251  17.287  10.469   8.761  0.0798 -0.3286  0.0961
  266loPI   C6A 4252  17.072  10.425   8.325  0.0319  0.1049  0.3440
  266loPI   C1B 4253  17.391  11.213  10.156  0.1373  0.0657  0.0443
  266loPI   C2B 4254  17.391  11.231   9.746  0.2138 -0.0758  0.2699
  266loPI   C3B 4255  17.400  11.228   9.367 -0.1451  0.0214  0.1266
  266loPI   C4B 4256  17.365  11.137   8.977  0.2249  0.0659  0.2288
  267loPI    C1 4257  15.869  14.832  11.409  0.0495 -0.1696  0.0523
  267loPI    C2 4258  16.002  15.169  11.580 -0.0556 -0.0654 -0.0687
  267loPI    C3 4259  15.916  14.850  11.806  0.1866 -0.0612  0.0322
  267loPI   PO4 4260  15.759  14.950  11.196  0.1638  0.2897  0.0399
  267loPI   GL1 4261  15.782  14.880  10.768  0.3390 -0.1645  0.6144
  267loPI   GL2 4262  15.942  15.201  10.814  0.1285  0.0292  0.3016
  267loPI   C1A 4263  15.672  14.759  10.353  0.1802  0.0810  0.2592
  267loPI   C2A 4264  15.752  14.907   9.923  0.1266  0.1472  0.4619
  267loPI   C3A 4265  15.769  15.043   9.513  0.0265 -0.1389 -0.0347
  267loPI   C4A 4266  15.603  14.949   9.055 -0.1637  0.2856  0.0378
  267loPI   C5A 4267  15.753  15.049   8.663  0.0914  0.2667 -0.1730
  267loPI   C6A 4268  15.711  15.406   8.324  0.0121  0.0622 -0.0956
  267loPI   C1B 4269  15.867  15.278  10.393  0.0072 -0.2945 -0.0459
  267loPI   C2B 4270  15.796  15.443   9.920 -0.1427  0.2421  0.4637
  267loPI   C3B 4271  15.770  15.524   9.408 -0.0819 -0.0481  0.2458
  267loPI   C4B 4272  15.737  15.566   8.944  0.0896 -0.2805 -0.1326
  268loPI    C1 4273  16.983   1.644  11.557  0.0852  0.0494  0.0539
  268loPI    C2 4274  16.938   1.593  11.951 -0.0659  0.2664  0.0665
  268loPI    C3 4275  17.117   1.922  11.811 -0.1167  0.2451 -0.0500
  268loPI   PO4 4276  17.068   1.477  11.467 -0.4306 -0.0557 -0.0041
  268loPI   GL1 4277  17.250   1.488  11.028  0.0566  0.0414 -0.2526
  268loPI   GL2 4278  17.026   1.114  10.939 -0.0678  0.0083 -0.0227
  268loPI   C1A 4279  17.306   1.470  10.556  0.0981 -0.0734  0.0271
  268loPI   C2A 4280  17.397   1.426  10.085 -0.0753 -0.0920 -0.2904
  268loPI   C3A 4281  17.274   1.352   9.705  0.0084  0.1299 -0.0577
  268loPI   C4A 4282  17.321   1.313   9.245  0.0734  0.1693  0.3649
  268loPI   C5A 4283  17.364   1.666   8.962 -0.1100 -0.2782 -0.0221
  268loPI   C6A 4284  17.391   2.044   8.790  0.1121 -0.2973  0.2028
  268loPI   C1B 4285  16.792   1.194  10.571  0.0213 -0.2425  0.0427
  268loPI   C2B 4286  16.867   1.239  10.126  0.1229 -0.0074  0.0665
  268loPI   C3B 4287  16.803   1.308   9.796 -0.0789  0.1633 -0.0275
  268loPI   C4B 4288  16.817   1.268   9.404  0.2992 -0.0147  0.1137
  269loPI    C1 4289   1.730   3.391  11.553  0.0641  0.0402  0.1920
  269loPI    C2 4290   1.771   3.144  11.865  0.1178 -0.2378 -0.0309
  269loPI    C3 4291   1.406   3.254  11.744  0.0827 -0.4099 -0.0842
  269loPI   PO4 4292   1.806   3.299  11.295  0.0303  0.2896  0.0236
  269loPI   GL1 4293   1.751   2.999  10.982 -0.0637  0.2272  0.3738
  269loPI   GL2 4294   1.992   2.715  10.937  0.1172  0.1441  0.1911
  269loPI   C1A 4295   1.902   3.221  10.629  0.0554  0.0884  0.0624
  269loPI   C2A 4296   1.903   3.232  10.227 -0.0678  0.0301 -0.1950
  269loPI   C3A 4297   1.867   3.227   9.807  0.1836 -0.0903 -0.1935
  269loPI   C4A 4298   1.866   3.242   9.342  0.1746  0.1137 -0.2370
  269loPI   C5A 4299   1.850   3.355   8.893  0.1795  0.0511  0.4309
  269loPI   C6A 4300   2.057   3.257   8.598 -0.1229  0.2381 -0.0950
  269loPI   C1B 4301   1.882   2.705  10.466  0.0850 -0.3091  0.4669
  269loPI   C2B 4302   1.870   2.636  10.042  0.2398 -0.3304 -0.1086
  269loPI   C3B 4303   1.803   2.756   9.644 -0.1550  0.2615 -0.1453
  269loPI   C4B 4304   1.835   2.671   9.241 -0.0211 -0.1944  0.0467
  270loPI    C1 4305   8.116  13.830  11.204  0.1399 -0.0993 -0.1176
  270loPI    C2 4306   8.454  13.795  10.993  0.1506 -0.2902 -0.0713
  270loPI    C3 4307   8.406  13.583  11.329  0.1011 -0.0485  0.0765
  270loPI   PO4 4308   7.971  13.843  11.043 -0.0038 -0.0050  0.1725
  270loPI   GL1 4309   7.857  13.842  10.658  0.0886  0.1839  0.0989
  270loPI   GL2 4310   8.028  14.082  10.442 -0.0232  0.1172  0.0914
  270loPI   C1A 4311   7.667  13.649  10.262 -0.1093 -0.1532 -0.0024
  270loPI   C2A 4312   7.607  13.298   9.990 -0.1720 -0.0368 -0.0360
  270loPI   C3A 4313   7.545  13.244   9.601 -0.3812  0.2614  0.0227
  270loPI   C4A 4314   7.655  13.272   9.262  0.1295  0.1656 -0.1012
  270loPI   C5A 4315   7.591  13.191   8.816  0.1925  0.1759 -0.3636
  270loPI   C6A 4316   7.298  13.127   8.564 -0.0460 -0.3347 -0.0891
  270loPI   C1B 4317   7.960  13.969  10.013  0.1351  0.1028 -0.1213
  270loPI   C2B 4318   7.821  13.870   9.644  0.0877 -0.2801 -0.0481
  270loPI   C3B 4319   8.081  14.017   9.267 -0.0853  0.0871 -0.1438
  270loPI   C4B 4320   8.383  14.259   9.141  0.1651  0.2845  0.0936
  271loPI    C1 4321  15.531   8.849  11.445 -0.0822 -0.0359  0.4325
  271loPI    C2 4322  15.821   8.602  11.320 -0.2253 -0.1218  0.2660
  271loPI    C3 4323  15.738   8.633  11.710 -0.1077 -0.2263  0.2995
  271loPI   PO4 4324  15.286   8.762  11.240  0.2102  0.1741  0.2868
  271loPI   GL1 4325  14.915   8.935  11.066  0.0166  0.1596 -0.2540
  271loPI   GL2 4326  14.910   8.587  10.922 -0.0335 -0.2716  0.4255
  271loPI   C1A 4327  15.125   9.013  10.671  0.1450  0.0223  0.1934
  271loPI   C2A 4328  15.124   8.884  10.238 -0.2411  0.0885 -0.0086
  271loPI   C3A 4329  15.142   8.848   9.812  0.2614 -0.1150 -0.2583
  271loPI   C4A 4330  15.290   8.690   9.345  0.1193 -0.0215 -0.1502
  271loPI   C5A 4331  15.088   8.757   8.921  0.1567 -0.3083  0.0156
  271loPI   C6A 4332  14.743   8.602   8.625 -0.3356 -0.0124  0.1813
  271loPI   C1B 4333  15.073   8.414  10.490 -0.1412 -0.0896  0.0687
  271loPI   C2B 4334  15.066   8.398  10.071 -0.2027 -0.0836  0.1242
  271loPI   C3B 4335  15.145   8.293   9.697 -0.0406 -0.3815  0.0076
  271loPI   C4B 4336  15.241   8.182   9.212  0.0609 -0.3232  0.0771
  272loPI    C1 4337   4.773  15.921  11.414  0.0287 -0.1211 -0.2454
  272loPI    C2 4338   4.696  16.266  11.226 -0.0773 -0.1671 -0.2870
  272loPI    C3 4339   4.395  16.043  11.368  0.0004 -0.1449 -0.0837
  272loPI   PO4 4340   4.877  15.813  11.151  0.2895  0.0870 -0.2384
  272loPI   GL1 4341   4.992  15.504  10.954 -0.2966 -0.0597  0.2849
  272loPI   GL2 4342   4.808  15.219  11.014 -0.2416  0.0317 -0.0706
  272loPI   C1A 4343   4.949  15.533  10.459 -0.2682 -0.0042 -0.0812
  272loPI   C2A 4344   4.857  15.432  10.046 -0.2411 -0.0689 -0.1387
  272loPI   C3A 4345   4.775  15.644   9.633  0.1569  0.1535 -0.0711
  272loPI   C4A 4346   4.797  15.790   9.128 -0.0025  0.0878  0.0172
  272loPI   C5A 4347   4.848  16.126   8.783 -0.3821 -0.0925 -0.4212
  272loPI   C6A 4348   4.744  16.272   8.375  0.1172  0.4929  0.0563
  272loPI   C1B 4349   4.782  15.021  10.625  0.0718  0.2804  0.2330
  272loPI   C2B 4350   4.819  14.964  10.208  0.1525  0.2377  0.2317
  272loPI   C3B 4351   4.743  14.992   9.767 -0.0806  0.0068 -0.2829
  272loPI   C4B 4352   4.622  15.205   9.366  0.1363 -0.0526  0.1429
  273loPI    C1 4353  14.698   6.063  11.486 -0.0130  0.0262  0.0471
  273loPI    C2 4354  14.593   5.761  11.726  0.0517 -0.1312 -0.1206
  273loPI    C3 4355  14.741   6.099  11.882  0.0287 -0.2058  0.0646
  273loPI   PO4 4356  14.481   6.069  11.330 -0.1665 -0.0133 -0.2494
  273loPI   GL1 4357  14.271   6.092  10.913  0.0407 -0.4514 -0.1793
  273loPI   GL2 4358  14.414   5.743  10.991  0.1517  0.1367 -0.0548
  273loPI   C1A 4359  14.286   6.190  10.538  0.0356 -0.0715  0.2457
  273loPI   C2A 4360  14.410   6.005  10.172 -0.0872 -0.2598  0.2513
  273loPI   C3A 4361  14.285   6.000   9.823  0.2768 -0.1439 -0.1361
  273loPI   C4A 4362  14.489   6.070   9.535 -0.1385  0.0923 -0.2965
  273loPI   C5A 4363  14.626   5.975   9.110 -0.1165 -0.2028 -0.2030
  273loPI   C6A 4364  15.025   5.997   8.872  0.2545 -0.1602  0.2172
  273loPI   C1B 4365  14.410   5.586  10.549  0.1510  0.1040 -0.1077
  273loPI   C2B 4366  14.335   5.463  10.019  0.0576 -0.2029 -0.1527
  273loPI   C3B 4367  14.159   5.532   9.524 -0.0156 -0.0411 -0.0033
  273loPI   C4B 4368  14.185   5.742   9.165  0.0423 -0.2653  0.0274
  274loPI    C1 4369   4.171   1.878  11.833 -0.1004  0.0765 -0.0327
  274loPI    C2 4370   4.328   1.513  11.878 -0.0584  0.0659 -0.2554
  274loPI    C3 4371   3.954   1.586  11.999 -0.0364 -0.0268 -0.1294
  274loPI   PO4 4372   4.247   1.936  11.570  0.1318 -0.0985  0.0779
  274loPI   GL1 4373   4.106   1.872  11.255 -0.1468  0.1473  0.1340
  274loPI   GL2 4374   4.043   1.595  11.059  0.2233  0.0080  0.2099
  274loPI   C1A 4375   4.018   2.090  10.815 -0.4862 -0.1088 -0.2753
  274loPI   C2A 4376   3.977   2.143  10.387 -0.2803 -0.0265 -0.2881
  274loPI   C3A 4377   3.963   2.212   9.969 -0.0195  0.0884  0.1419
  274loPI   C4A 4378   4.123   2.082   9.602  0.1559 -0.0393  0.1561
  274loPI   C5A 4379   4.035   2.104   9.172 -0.1582  0.1892 -0.1472
  274loPI   C6A 4380   4.087   2.052   8.742  0.0267 -0.2260  0.1532
  274loPI   C1B 4381   4.011   1.542  10.655  0.1524 -0.2954  0.1024
  274loPI   C2B 4382   3.964   1.631  10.203  0.1958  0.0468 -0.2788
  274loPI   C3B 4383   3.996   1.616   9.739 -0.3392  0.0236 -0.0479
  274loPI   C4B 4384   4.015   1.651   9.302 -0.2541  0.0496 -0.1843
  275loPI    C1 4385  14.685   0.726  12.060 -0.2254  0.0553 -0.0696
  275loPI    C2 4386  14.504   0.390  12.179 -0.1910  0.1408  0.2326
  275loPI    C3 4387  14.763   0.574  12.421  0.0175  0.2242 -0.0489
  275loPI   PO4 4388  14.778   0.650  11.796  0.1137  0.1652  0.1910
  275loPI   GL1 4389  14.703   0.634  11.423  0.3911  0.0269 -0.4425
  275loPI   GL2 4390  14.753   0.397  11.267  0.1285 -0.3066 -0.0039
  275loPI   C1A 4391  14.417   0.804  11.014 -0.1288  0.0632 -0.1455
  275loPI   C2A 4392  14.386   0.817  10.531 -0.0092 -0.2570  0.0737
  275loPI   C3A 4393  14.420   0.846  10.042  0.0755  0.1462 -0.1012
  275loPI   C4A 4394  14.492   0.770   9.598 -0.1636 -0.3625  0.0799
  275loPI   C5A 4395  14.477   0.526   9.193 -0.0293  0.0211 -0.1345
  275loPI   C6A 4396  14.359   0.325   8.732 -0.3965 -0.1728 -0.2896
  275loPI   C1B 4397  14.759   0.481  10.852 -0.0400 -0.2975  0.0526
  275loPI   C2B 4398  14.851   0.533  10.494 -0.0949  0.0268 -0.0745
  275loPI   C3B 4399  14.790   0.464  10.061 -0.1618  0.1514 -0.0011
  275loPI   C4B 4400  14.930   0.380   9.595  0.0499 -0.0728 -0.2538
  276loPI    C1 4401   7.109  16.101  11.542  0.1367  0.2133 -0.1299
  276loPI    C2 4402   7.480  16.098  11.692 -0.0754  0.3021  0.4214
  276loPI    C3 4403   7.219  15.813  11.797 -0.0549  0.0033 -0.2806
  276loPI   PO4 4404   7.058  16.389  11.525 -0.1054 -0.2700  0.3496
  276loPI   GL1 4405   7.230  16.678  11.065  0.0324  0.2026  0.5249
  276loPI   GL2 4406   6.922  16.694  10.989 -0.2248  0.2659 -0.1193
  276loPI   C1A 4407   7.282  16.476  10.642 -0.0437  0.1470 -0.2051
  276loPI   C2A 4408   7.310  16.483  10.222 -0.1456 -0.1038 -0.1349
  276loPI   C3A 4409   7.151  16.516   9.814 -0.1469  0.0309  0.1565
  276loPI   C4A 4410   7.228  16.509   9.361  0.1936  0.3137 -0.0193
  276loPI   C5A 4411   7.218  16.421   8.924  0.0404  0.0703  0.2652
  276loPI   C6A 4412   7.072  16.559   8.476  0.2739 -0.1148  0.1238
  276loPI   C1B 4413   6.891  16.795  10.532  0.1237  0.0988  0.1181
  276loPI   C2B 4414   6.876  16.862  10.052 -0.3068 -0.0148 -0.0741
  276loPI   C3B 4415   6.761  16.837   9.592 -0.2630 -0.1829  0.0067
  276loPI   C4B 4416   6.735  16.945   9.124  0.0090 -0.0130  0.1415
  277loPI    C1 4417   5.449   8.254  11.792 -0.0112 -0.0159 -0.2383
  277loPI    C2 4418   5.397   7.866  11.712 -0.1915 -0.0162 -0.1245
  277loPI    C3 4419   5.689   7.982  11.960 -0.2517 -0.0946 -0.0159
  277loPI   PO4 4420   5.478   8.345  11.469 -0.1831 -0.0619 -0.2246
  277loPI   GL1 4421   5.411   8.393  11.057 -0.0748  0.0008 -0.1683
  277loPI   GL2 4422   5.365   8.084  10.824  0.1321  0.2419 -0.0103
  277loPI   C1A 4423   5.412   8.553  10.557 -0.1306 -0.1738  0.2206
  277loPI   C2A 4424   5.586   8.535  10.176 -0.0790  0.1753  0.1188
  277loPI   C3A 4425   5.585   8.476   9.701 -0.0808 -0.5086 -0.0133
  277loPI   C4A 4426   5.458   8.672   9.363  0.3471  0.1363  0.0957
  277loPI   C5A 4427   5.320   8.779   8.864 -0.0275 -0.1906  0.2026
  277loPI   C6A 4428   5.578   8.942   8.433  0.0103 -0.0874  0.1409
  277loPI   C1B 4429   5.439   8.056  10.365 -0.1557  0.0590 -0.0545
  277loPI   C2B 4430   5.495   7.973   9.887  0.1695  0.0904  0.0638
  277loPI   C3B 4431   5.262   7.899   9.457  0.0536 -0.1675  0.0488
  277loPI   C4B 4432   5.362   7.866   9.056  0.0962 -0.0398  0.1005
  278loPI    C1 4433  16.966   7.571  11.924  0.1210  0.0964  0.0094
  278loPI    C2 4434  17.213   7.879  11.862 -0.0543  0.2153 -0.1094
  278loPI    C3 4435  17.011   7.851  12.206 -0.1032  0.2792 -0.1328
  278loPI   PO4 4436  16.955   7.455  11.645  0.1742 -0.3607 -0.0404
  278loPI   GL1 4437  17.000   7.393  11.264 -0.1894  0.1877  0.2214
  278loPI   GL2 4438  16.876   7.667  10.963 -0.0468 -0.0244 -0.1307
  278loPI   C1A 4439  16.953   7.117  10.836  0.3845  0.2122  0.1362
  278loPI   C2A 4440  16.856   7.049  10.447 -0.1619  0.0021  0.0485
  278loPI   C3A 4441  16.791   7.043   9.970  0.0683  0.0761  0.1805
  278loPI   C4A 4442  16.889   7.002   9.526  0.3648 -0.0406 -0.2346
  278loPI   C5A 4443  16.787   6.960   9.084  0.0942 -0.1316  0.2828
  278loPI   C6A 4444  16.818   6.952   8.669  0.1159 -0.0016 -0.3660
  278loPI   C1B 4445  16.860   7.638  10.461 -0.0325 -0.1770 -0.2126
  278loPI   C2B 4446  16.908   7.510  10.057  0.2929 -0.2946  0.1047
  278loPI   C3B 4447  16.968   7.545   9.666  0.2460 -0.0719  0.0779
  278loPI   C4B 4448  16.935   7.393   9.292  0.1356 -0.2304 -0.0283
  279loPI    C1 4449  13.003   4.450  11.486  0.2604 -0.1787 -0.0158
  279loPI    C2 4450  13.035   4.698  11.799 -0.1412 -0.0139 -0.1000
  279loPI    C3 4451  13.113   4.308  11.844  0.0447  0.0490  0.1441
  279loPI   PO4 4452  12.804   4.430  11.350 -0.3095 -0.0930  0.2332
  279loPI   GL1 4453  12.645   4.506  10.974  0.5497 -0.2211 -0.0613
  279loPI   GL2 4454  12.944   4.651  10.794  0.0550  0.3753  0.1372
  279loPI   C1A 4455  12.382   4.751  10.646 -0.2661  0.1492  0.2904
  279loPI   C2A 4456  12.308   4.885  10.227  0.0117 -0.0270 -0.1246
  279loPI   C3A 4457  12.224   4.756   9.861 -0.0399 -0.0551 -0.0690
  279loPI   C4A 4458  12.220   4.777   9.415 -0.1302 -0.0532  0.1187
  279loPI   C5A 4459  12.180   4.738   9.004  0.0923  0.3933  0.0694
  279loPI   C6A 4460  12.099   4.605   8.677 -0.1591  0.3684  0.0580
  279loPI   C1B 4461  12.748   4.550  10.411 -0.4346  0.0696  0.2972
  279loPI   C2B 4462  12.683   4.516   9.975 -0.0278 -0.0581  0.1302
  279loPI   C3B 4463  12.577   4.428   9.641  0.1338 -0.0868  0.1584
  279loPI   C4B 4464  12.578   4.482   9.165  0.0742 -0.1403 -0.2304
  280loPI    C1 4465   8.052  17.474  11.852 -0.1176  0.3072 -0.2960
  280loPI    C2 4466   8.109  17.867  11.904  0.1716  0.2352 -0.0384
  280loPI    C3 4467   8.169  17.614  12.208 -0.0723 -0.0049 -0.1852
  280loPI   PO4 4468   8.132  17.468  11.616  0.1873  0.1718 -0.4446
  280loPI   GL1 4469   8.247  17.475  11.155 -0.0031  0.1006 -0.1411
  280loPI   GL2 4470   7.998  17.224  11.237 -0.1838 -0.0503 -0.2951
  280loPI   C1A 4471   8.402  17.339  10.723 -0.1854  0.0067  0.0005
  280loPI   C2A 4472   8.371  17.354  10.299  0.3320  0.4848  0.1568
  280loPI   C3A 4473   8.358  17.432   9.873  0.1111  0.2339  0.0320
  280loPI   C4A 4474   8.209  17.493   9.477 -0.0626  0.0348  0.1640
  280loPI   C5A 4475   8.183  17.513   9.039 -0.1046 -0.0163 -0.1282
  280loPI   C6A 4476   7.982  17.366   8.686 -0.4332  0.2800 -0.1603
  280loPI   C1B 4477   7.959  17.183  10.881 -0.1108 -0.2791 -0.2960
  280loPI   C2B 4478   7.937  17.233  10.455  0.2166  0.0377 -0.1792
  280loPI   C3B 4479   7.897  17.238  10.022 -0.0831  0.0899 -0.0402
  280loPI   C4B 4480   7.812  17.234   9.595  0.3910  0.2518 -0.1540
  281loPI    C1 4481  11.907   1.378  11.824  0.2327  0.0932 -0.0094
  281loPI    C2 4482  11.950   1.186  12.173 -0.1124 -0.1547 -0.0976
  281loPI    C3 4483  11.659   1.456  12.128  0.0045 -0.0378 -0.1583
  281loPI   PO4 4484  11.834   1.337  11.637 -0.3080 -0.1125  0.0706
  281loPI   GL1 4485  12.032   1.387  11.209  0.1983  0.0634  0.2634
  281loPI   GL2 4486  11.819   1.202  11.168  0.1096 -0.0763  0.0178
  281loPI   C1A 4487  12.151   1.404  10.768 -0.1925  0.0654 -0.1136
  281loPI   C2A 4488  12.246   1.528  10.390 -0.0023 -0.1614 -0.0925
  281loPI   C3A 4489  12.247   1.462  10.010 -0.0000  0.2169 -0.3112
  281loPI   C4A 4490  12.350   1.436   9.586  0.1133  0.0311 -0.1006
  281loPI   C5A 4491  12.480   1.176   9.274 -0.3316  0.2258 -0.1891
  281loPI   C6A 4492  12.864   1.188   8.965 -0.1413 -0.0142  0.0011
  281loPI   C1B 4493  11.706   1.170  10.779  0.1258  0.1298 -0.1231
  281loPI   C2B 4494  11.753   1.342  10.407  0.2258 -0.0248 -0.1554
  281loPI   C3B 4495  11.771   1.319   9.920 -0.0885  0.0877 -0.0093
  281loPI   C4B 4496  11.869   1.246   9.535 -0.2663 -0.0157 -0.1390
  282loPI    C1 4497   2.636   7.813  11.287  0.1604 -0.0365 -0.1264
  282loPI    C2 4498   2.645   8.213  11.284  0.2789 -0.0374  0.0034
  282loPI    C3 4499   2.685   8.015  11.629  0.1143 -0.1594 -0.0466
  282loPI   PO4 4500   2.848   7.726  11.022 -0.0136  0.1908  0.0380
  282loPI   GL1 4501   2.942   7.720  10.601  0.0836 -0.0097 -0.1760
  282loPI   GL2 4502   3.166   7.510  10.695  0.1808 -0.2502  0.0185
  282loPI   C1A 4503   3.018   7.710  10.166 -0.3181 -0.0894  0.2743
  282loPI   C2A 4504   3.116   7.600   9.649  0.0507 -0.1198  0.0983
  282loPI   C3A 4505   3.074   7.597   9.305  0.1283 -0.0961 -0.0233
  282loPI   C4A 4506   3.045   7.458   8.867  0.1985  0.1148 -0.1395
  282loPI   C5A 4507   2.764   7.213   8.731  0.1666 -0.1011 -0.0274
  282loPI   C6A 4508   2.446   7.019   8.399 -0.1483 -0.1115 -0.0005
  282loPI   C1B 4509   3.410   7.378  10.342  0.1093 -0.0198  0.3065
  282loPI   C2B 4510   3.449   7.305   9.928 -0.0893  0.0588  0.1430
  282loPI   C3B 4511   3.460   7.147   9.570 -0.0010  0.3826  0.3631
  282loPI   C4B 4512   3.525   7.085   9.132 -0.0279 -0.0703  0.3112
  283loPI    C1 4513  12.330   1.108  11.638  0.0045 -0.0466 -0.0119
  283loPI    C2 4514  12.424   1.073  12.026 -0.1518  0.0267  0.0331
  283loPI    C3 4515  12.159   0.822  11.860 -0.2302  0.1168  0.0212
  283loPI   PO4 4516  12.419   1.326  11.549  0.0300 -0.4006 -0.3537
  283loPI   GL1 4517  12.545   1.621  11.128  0.1313  0.0212 -0.2618
  283loPI   GL2 4518  12.402   1.862  11.127 -0.0545  0.2660 -0.2680
  283loPI   C1A 4519  12.650   1.667  10.715  0.2693  0.2395  0.2120
  283loPI   C2A 4520  12.719   1.703  10.253 -0.2557  0.3206  0.1500
  283loPI   C3A 4521  12.794   1.672   9.746 -0.3639 -0.1601  0.0367
  283loPI   C4A 4522  12.808   1.625   9.228  0.2093  0.0138 -0.1191
  283loPI   C5A 4523  12.896   1.702   8.735 -0.1120  0.3576 -0.1106
  283loPI   C6A 4524  13.278   1.961   8.617  0.2428  0.0217 -0.1951
  283loPI   C1B 4525  12.356   2.038  10.672  0.1678  0.0781  0.2927
  283loPI   C2B 4526  12.305   1.962  10.233 -0.1877  0.1082  0.3544
  283loPI   C3B 4527  12.367   1.958   9.875 -0.1489  0.2676 -0.0656
  283loPI   C4B 4528  12.488   1.910   9.412  0.0517  0.0082  0.2950
  284loPI    C1 4529  10.891   9.046  11.568 -0.1245 -0.0153 -0.1092
  284loPI    C2 4530  10.680   9.253  11.837 -0.1417 -0.0332 -0.1088
  284loPI    C3 4531  10.741   8.861  11.889  0.2488  0.0507  0.1093
  284loPI   PO4 4532  10.720   9.119  11.327  0.0646  0.1829  0.1871
  284loPI   GL1 4533  10.768   9.041  10.941 -0.1490  0.2383  0.0308
  284loPI   GL2 4534  10.628   8.785  10.821  0.0133  0.1495 -0.2397
  284loPI   C1A 4535  10.687   9.206  10.528 -0.0737 -0.0141 -0.2276
  284loPI   C2A 4536  10.766   9.241  10.065  0.1756  0.2434 -0.0055
  284loPI   C3A 4537  10.729   9.022   9.604 -0.1872  0.1601 -0.0611
  284loPI   C4A 4538  10.715   9.030   9.189  0.3713 -0.0587  0.1543
  284loPI   C5A 4539  10.484   9.340   8.868  0.0397  0.0250 -0.0600
  284loPI   C6A 4540  10.681   9.766   8.698 -0.0479 -0.1683 -0.0972
  284loPI   C1B 4541  10.515   8.697  10.533  0.2680 -0.2976  0.1001
  284loPI   C2B 4542  10.524   8.618  10.136 -0.0863 -0.1670 -0.4567
  284loPI   C3B 4543  10.525   8.486   9.725 -0.2089  0.1171 -0.0760
  284loPI   C4B 4544  10.625   8.534   9.280 -0.0482 -0.0735  0.0675
  285loPI    C1 4545   0.949   1.799  11.528 -0.2053  0.1030 -0.0883
  285loPI    C2 4546   1.159   2.008  11.797 -0.0703 -0.1271 -0.0119
  285loPI    C3 4547   0.810   1.842  11.901 -0.2472  0.1745 -0.1120
  285loPI   PO4 4548   1.130   1.660  11.410  0.0152 -0.3923  0.2451
  285loPI   GL1 4549   1.289   1.783  11.030  0.0349  0.0075 -0.0680
  285loPI   GL2 4550   1.341   2.018  10.890  0.0700 -0.0515 -0.0742
  285loPI   C1A 4551   1.238   1.512  10.661  0.0641 -0.2360 -0.0981
  285loPI   C2A 4552   1.232   1.460  10.218  0.2955 -0.0713  0.1331
  285loPI   C3A 4553   1.140   1.489   9.895  0.1499 -0.1288 -0.2571
  285loPI   C4A 4554   1.260   1.524   9.471 -0.0986 -0.1053 -0.4733
  285loPI   C5A 4555   1.206   1.626   9.048 -0.2243 -0.0159 -0.0119
  285loPI   C6A 4556   1.153   1.953   8.689  0.3072 -0.0911 -0.0114
  285loPI   C1B 4557   1.326   2.057  10.521 -0.2486 -0.0977  0.0192
  285loPI   C2B 4558   1.304   2.036  10.044  0.1894  0.1298 -0.0179
  285loPI   C3B 4559   1.318   2.065   9.653 -0.3126 -0.2239 -0.3354
  285loPI   C4B 4560   1.254   2.062   9.204  0.0731 -0.0491 -0.0903
  286loPI    C1 4561  13.758  15.855  11.610  0.3153  0.0494  0.0592
  286loPI    C2 4562  13.944  15.616  11.871  0.2804 -0.0466 -0.0038
  286loPI    C3 4563  13.767  15.951  11.998  0.2436 -0.1047  0.0997
  286loPI   PO4 4564  13.976  15.917  11.402 -0.0064  0.3809 -0.2802
  286loPI   GL1 4565  14.276  15.615  11.110  0.0173  0.0319 -0.0564
  286loPI   GL2 4566  14.142  15.350  10.936  0.1703  0.0196 -0.5015
  286loPI   C1A 4567  14.393  15.782  10.730 -0.0234 -0.1925  0.1058
  286loPI   C2A 4568  14.507  15.892  10.438  0.1273  0.0722 -0.1933
  286loPI   C3A 4569  14.570  15.994   9.998  0.1293 -0.0490  0.2204
  286loPI   C4A 4570  14.500  16.034   9.571  0.0456  0.2017  0.0544
  286loPI   C5A 4571  14.394  15.876   9.230 -0.1827  0.2456  0.1383
  286loPI   C6A 4572  14.097  15.827   8.944 -0.0977 -0.1438  0.1943
  286loPI   C1B 4573  13.974  15.468  10.530  0.0105  0.0235 -0.0288
  286loPI   C2B 4574  14.083  15.734  10.176 -0.0878 -0.1236  0.0951
  286loPI   C3B 4575  14.097  15.795   9.777 -0.1042 -0.1201 -0.1577
  286loPI   C4B 4576  13.982  15.664   9.401 -0.2069 -0.1547 -0.1375
  287loPI    C1 4577  16.069   4.273  11.730  0.0969 -0.0145 -0.2040
  287loPI    C2 4578  16.199   3.942  11.912  0.1894  0.1424  0.0198
  287loPI    C3 4579  16.028   4.234  12.125 -0.1448  0.1229 -0.2140
  287loPI   PO4 4580  16.259   4.303  11.513 -0.1264 -0.0247 -0.1150
  287loPI   GL1 4581  16.132   4.298  11.119 -0.0978 -0.1805 -0.1333
  287loPI   GL2 4582  16.327   4.638  11.064 -0.0342 -0.1555 -0.2368
  287loPI   C1A 4583  15.947   4.349  10.714  0.3122  0.0070  0.0449
  287loPI   C2A 4584  15.904   4.343  10.280 -0.1129 -0.0381 -0.1638
  287loPI   C3A 4585  15.896   4.192   9.853  0.1816  0.0362  0.2024
  287loPI   C4A 4586  16.010   4.317   9.419 -0.2716  0.1786 -0.0247
  287loPI   C5A 4587  16.064   4.496   9.019 -0.1956 -0.0097 -0.0865
  287loPI   C6A 4588  15.900   4.815   8.774  0.0289 -0.3963 -0.0356
  287loPI   C1B 4589  16.430   4.416  10.644 -0.1551  0.0581 -0.3103
  287loPI   C2B 4590  16.429   4.514  10.236  0.3704  0.0999  0.1398
  287loPI   C3B 4591  16.476   4.479   9.767 -0.0156 -0.0565  0.2185
  287loPI   C4B 4592  16.701   4.440   9.353  0.1444  0.1346 -0.0458
  288loPI    C1 4593   3.660   8.913  11.684  0.1320  0.1273 -0.0283
  288loPI    C2 4594   3.577   9.061  12.045 -0.0573 -0.0360 -0.0034
  288loPI    C3 4595   3.750   8.703  12.012 -0.0040 -0.0039 -0.0737
  288loPI   PO4 4596   3.633   9.222  11.543  0.1212  0.0427  0.0050
  288loPI   GL1 4597   3.746   9.321  11.198  0.0982 -0.2897  0.3856
  288loPI   GL2 4598   3.448   9.381  11.018  0.7515  0.3475  0.1516
  288loPI   C1A 4599   3.843   9.355  10.708 -0.0155 -0.0198  0.1172
  288loPI   C2A 4600   3.765   9.370  10.345  0.1628 -0.2491  0.2436
  288loPI   C3A 4601   3.807   9.307   9.956  0.1032  0.2138  0.0419
  288loPI   C4A 4602   3.751   9.488   9.524 -0.0182  0.4536  0.2353
  288loPI   C5A 4603   3.857   9.595   9.126 -0.0396 -0.1279 -0.2036
  288loPI   C6A 4604   4.010   9.799   8.890  0.3520  0.1572  0.0527
  288loPI   C1B 4605   3.401   9.652  10.649 -0.3672  0.0253  0.0938
  288loPI   C2B 4606   3.351   9.644  10.245 -0.1516 -0.0987 -0.0762
  288loPI   C3B 4607   3.353   9.644   9.811 -0.3890 -0.3968 -0.1760
  288loPI   C4B 4608   3.450   9.857   9.307  0.2565  0.0703  0.1098
  289loPI    C1 4609  16.226  13.680  11.377  0.1186 -0.0059 -0.0177
  289loPI    C2 4610  16.434  13.910  11.630 -0.0364 -0.0110  0.1156
  289loPI    C3 4611  16.187  13.629  11.772 -0.0754 -0.0572 -0.0425
  289loPI   PO4 4612  16.383  13.747  11.150 -0.0868 -0.0102 -0.0559
  289loPI   GL1 4613  16.261  13.903  10.840 -0.0512  0.0922 -0.0906
  289loPI   GL2 4614  16.582  14.037  10.668  0.0485 -0.0145  0.1030
  289loPI   C1A 4615  16.141  14.005  10.386  0.0933  0.1180 -0.2321
  289loPI   C2A 4616  16.042  14.152   9.967 -0.2036  0.1541  0.1206
  289loPI   C3A 4617  16.180  14.284   9.550  0.0599  0.5180  0.2023
  289loPI   C4A 4618  16.157  14.218   9.105 -0.1013 -0.3124  0.0971
  289loPI   C5A 4619  15.940  14.096   8.747 -0.2569  0.1225  0.0619
  289loPI   C6A 4620  15.695  13.886   8.513 -0.2096  0.4469  0.0528
  289loPI   C1B 4621  16.572  14.249  10.203 -0.0289 -0.2320 -0.1283
  289loPI   C2B 4622  16.659  14.335   9.773  0.1635 -0.0283  0.1749
  289loPI   C3B 4623  16.608  14.375   9.368 -0.1188 -0.0859 -0.0746
  289loPI   C4B 4624  16.672  14.393   8.932  0.2519 -0.0307  0.0791
  290loPI    C1 4625  11.463  12.383  11.353  0.1009 -0.0355  0.0359
  290loPI    C2 4626  11.109  12.390  11.539  0.0088  0.3761 -0.1437
  290loPI    C3 4627  11.373  12.684  11.601  0.3302  0.0642  0.0008
  290loPI   PO4 4628  11.415  12.308  11.084  0.0216  0.1153  0.0385
  290loPI   GL1 4629  11.136  12.426  10.665  0.1852 -0.0381  0.0669
  290loPI   GL2 4630  11.338  12.664  10.656  0.0417 -0.3665 -0.0886
  290loPI   C1A 4631  10.938  12.642  10.303  0.1050 -0.1270 -0.0333
  290loPI   C2A 4632  10.892  12.643   9.863 -0.0932 -0.0884  0.0106
  290loPI   C3A 4633  10.962  12.595   9.418  0.3599  0.0596 -0.0954
  290loPI   C4A 4634  10.882  12.579   9.000 -0.1419  0.0875 -0.0710
  290loPI   C5A 4635  11.202  12.765   8.751 -0.1127  0.0413  0.0330
  290loPI   C6A 4636  11.662  12.689   8.745 -0.0816 -0.0372 -0.0613
  290loPI   C1B 4637  11.533  12.528  10.339  0.1517  0.4856 -0.1364
  290loPI   C2B 4638  11.578  12.605   9.975  0.0476 -0.2951 -0.2205
  290loPI   C3B 4639  11.907  12.634   9.635 -0.2296  0.1730 -0.4644
  290loPI   C4B 4640  12.221  12.949   9.523 -0.0099  0.1996  0.1239
  291loPI    C1 4641  14.296   7.835  11.556  0.0625 -0.1419  0.0428
  291loPI    C2 4642  14.241   7.444  11.489 -0.4100 -0.0879  0.0814
  291loPI    C3 4643  14.208   7.590  11.860  0.1234 -0.0608  0.1266
  291loPI   PO4 4644  14.080   7.974  11.436  0.2025  0.0365  0.3260
  291loPI   GL1 4645  14.130   8.152  10.955 -0.0697 -0.0500 -0.2068
  291loPI   GL2 4646  13.895   7.836  10.897  0.1455 -0.3240  0.1418
  291loPI   C1A 4647  14.257   7.987  10.461 -0.6500 -0.0483  0.0995
  291loPI   C2A 4648  14.137   7.906  10.069 -0.0158 -0.0452  0.2979
  291loPI   C3A 4649  14.108   7.876   9.625  0.2876  0.1020  0.1584
  291loPI   C4A 4650  14.131   7.867   9.189 -0.0731  0.1538 -0.1480
  291loPI   C5A 4651  14.348   7.745   8.782 -0.0303  0.1959  0.1566
  291loPI   C6A 4652  14.492   8.082   8.460  0.3337 -0.0682 -0.2224
  291loPI   C1B 4653  14.090   7.497  10.505  0.1720  0.2252  0.1527
  291loPI   C2B 4654  14.193   7.424  10.167  0.0405  0.0570 -0.1896
  291loPI   C3B 4655  13.983   7.356   9.771 -0.2614  0.0232 -0.0716
  291loPI   C4B 4656  13.985   7.443   9.332 -0.1611  0.1172 -0.1085
  292loPI    C1 4657   3.993   2.377  11.664  0.0078  0.0656 -0.0283
  292loPI    C2 4658   3.880   2.649  11.935 -0.1571 -0.0453  0.0159
  292loPI    C3 4659   4.073   2.318  12.052  0.2191  0.1424 -0.0590
  292loPI   PO4 4660   3.889   2.317  11.409 -0.0188  0.0862 -0.0446
  292loPI   GL1 4661   4.013   2.589  11.125  0.1011 -0.2768  0.2877
  292loPI   GL2 4662   3.997   2.879  11.058  0.2324 -0.0053  0.0466
  292loPI   C1A 4663   4.116   2.559  10.680  0.0062 -0.2748 -0.4308
  292loPI   C2A 4664   4.085   2.657  10.204  0.5307  0.1769 -0.1583
  292loPI   C3A 4665   4.182   2.616   9.801  0.0317 -0.1809 -0.2517
  292loPI   C4A 4666   4.104   2.528   9.331  0.1030  0.0028  0.0454
  292loPI   C5A 4667   3.873   2.646   8.981 -0.1448 -0.0317 -0.2057
  292loPI   C6A 4668   3.962   2.555   8.554 -0.1417 -0.0130 -0.1842
  292loPI   C1B 4669   4.141   3.125  10.658  0.1639  0.4332 -0.0342
  292loPI   C2B 4670   4.142   3.126  10.151  0.3707 -0.0827 -0.0397
  292loPI   C3B 4671   4.225   3.107   9.689 -0.1568 -0.1616  0.3840
  292loPI   C4B 4672   4.163   3.066   9.220 -0.0591  0.0537  0.1929
  293loPI    C1 4673  12.961  17.303  11.567 -0.1404  0.2021  0.1959
  293loPI    C2 4674  12.687  17.161  11.822 -0.1149 -0.3211 -0.0553
  293loPI    C3 4675  13.058  17.013  11.825  0.0615  0.1079  0.0166
  293loPI   PO4 4676  12.840  17.277  11.318  0.3462 -0.0467 -0.0570
  293loPI   GL1 4677  12.899  17.282  10.913  0.3315  0.3913  0.2348
  293loPI   GL2 4678  12.986  17.032  10.899  0.3146  0.3010  0.3036
  293loPI   C1A 4679  12.919  17.396  10.481  0.5360 -0.1330 -0.0477
  293loPI   C2A 4680  12.843  17.213  10.081 -0.0935  0.0162 -0.0839
  293loPI   C3A 4681  12.885  17.289   9.727  0.0035  0.0672 -0.1377
  293loPI   C4A 4682  12.987  17.299   9.320  0.0568 -0.0446  0.1739
  293loPI   C5A 4683  12.897  17.054   8.913 -0.1528 -0.1037  0.3621
  293loPI   C6A 4684  12.968  16.688   8.805 -0.0233 -0.4511  0.0288
  293loPI   C1B 4685  13.155  16.955  10.481 -0.1411 -0.0661  0.1177
  293loPI   C2B 4686  13.322  16.903  10.058 -0.1046  0.1079 -0.1126
  293loPI   C3B 4687  13.268  16.924   9.649  0.3245 -0.0707 -0.2972
  293loPI   C4B 4688  13.228  16.765   9.247  0.0877 -0.0594  0.5240
  294loPI    C1 4689   9.346   0.823  11.629 -0.1582  0.3473 -0.1950
  294loPI    C2 4690   9.555   0.887  11.964 -0.1858  0.1831 -0.1457
  294loPI    C3 4691   9.173   0.769  11.986 -0.1152 -0.0689 -0.2321
  294loPI   PO4 4692   9.468   1.069  11.468 -0.0137 -0.1307 -0.2337
  294loPI   GL1 4693   9.488   1.420  11.256 -0.1726 -0.2317 -0.2967
  294loPI   GL2 4694   9.664   1.520  11.324 -0.2486 -0.2464  0.2284
  294loPI   C1A 4695   9.546   1.271  10.818  0.0511  0.2212  0.0677
  294loPI   C2A 4696   9.410   1.284  10.337 -0.2510 -0.0137  0.0367
  294loPI   C3A 4697   9.416   1.278   9.859 -0.1349 -0.0031  0.2892
  294loPI   C4A 4698   9.426   1.301   9.455  0.4490  0.1988  0.5050
  294loPI   C5A 4699   9.326   1.460   9.047 -0.0903  0.0611  0.1400
  294loPI   C6A 4700   9.520   1.373   8.688 -0.2424 -0.1048  0.3745
  294loPI   C1B 4701   9.552   1.750  10.912 -0.1072  0.3624 -0.2471
  294loPI   C2B 4702   9.535   1.773  10.497 -0.3928  0.0942 -0.0254
  294loPI   C3B 4703   9.510   1.786  10.029  0.1585 -0.0835  0.2794
  294loPI   C4B 4704   9.497   1.834   9.628  0.1385  0.2390 -0.1785
  295loPI    C1 4705  15.624  13.013  11.541 -0.2765 -0.1629  0.0202
  295loPI    C2 4706  15.818  13.312  11.723 -0.1711  0.0067 -0.3610
  295loPI    C3 4707  15.814  12.947  11.887  0.0552  0.1166 -0.1023
  295loPI   PO4 4708  15.646  13.171  11.245 -0.0329  0.1731  0.0887
  295loPI   GL1 4709  15.729  13.034  10.781  0.1229 -0.1010 -0.0800
  295loPI   GL2 4710  15.508  13.171  10.580 -0.5006 -0.2222  0.0670
  295loPI   C1A 4711  15.862  12.954  10.281 -0.0224 -0.1575 -0.3420
  295loPI   C2A 4712  15.779  13.156   9.798 -0.0785 -0.0670 -0.0223
  295loPI   C3A 4713  15.845  13.004   9.406  0.1908 -0.0667  0.1608
  295loPI   C4A 4714  15.987  12.804   8.994 -0.1379 -0.4635  0.0896
  295loPI   C5A 4715  16.110  12.963   8.612  0.0949  0.5680  0.1592
  295loPI   C6A 4716  16.054  13.167   8.245  0.0001  0.0623 -0.0571
  295loPI   C1B 4717  15.447  13.331  10.162 -0.1896 -0.2631 -0.0285
  295loPI   C2B 4718  15.413  13.414   9.709 -0.3156  0.0100  0.1175
  295loPI   C3B 4719  15.377  13.699   9.274 -0.0446 -0.2407 -0.1697
  295loPI   C4B 4720  15.036  13.939   9.105  0.1021  0.1683  0.0138
  296loPI    C1 4721  10.728  11.701  11.299 -0.3122 -0.1515  0.0982
  296loPI    C2 4722  10.593  12.000  11.528 -0.0005 -0.0722  0.1825
  296loPI    C3 4723  10.681  11.646  11.693 -0.0738 -0.1137  0.1332
  296loPI   PO4 4724  10.679  11.629  11.114  0.2331 -0.0039  0.1128
  296loPI   GL1 4725  10.692  11.691  10.675  0.4137  0.3146 -0.0774
  296loPI   GL2 4726  10.867  11.943  10.683  0.2543 -0.0681  0.2676
  296loPI   C1A 4727  10.727  11.667  10.258  0.2166 -0.1534 -0.5595
  296loPI   C2A 4728  10.795  11.768   9.849 -0.0863  0.0067 -0.0635
  296loPI   C3A 4729  10.809  11.739   9.449  0.2452  0.0814  0.2917
  296loPI   C4A 4730  10.763  11.412   9.038 -0.1747  0.0423 -0.1055
  296loPI   C5A 4731  10.540  11.017   8.916 -0.3203  0.0986 -0.0924
  296loPI   C6A 4732  10.246  10.734   8.655  0.0197 -0.1297 -0.1623
  296loPI   C1B 4733  10.689  12.223  10.440 -0.1219  0.0868 -0.3689
  296loPI   C2B 4734  10.577  12.271  10.069  0.3336  0.0057  0.1219
  296loPI   C3B 4735  10.488  12.221   9.563 -0.1682 -0.1715 -0.1935
  296loPI   C4B 4736  10.427  12.522   9.190 -0.0054 -0.1177 -0.0239
  297loPI    C1 4737  11.810   4.983  11.710 -0.0132  0.2927 -0.0606
  297loPI    C2 4738  11.755   4.732  12.016  0.0464  0.0685 -0.2315
  297loPI    C3 4739  11.889   5.103  12.083  0.2434 -0.0409 -0.0030
  297loPI   PO4 4740  11.743   4.812  11.499 -0.3399  0.0660  0.0763
  297loPI   GL1 4741  11.617   4.658  11.085  0.4545  0.2925 -0.2777
  297loPI   GL2 4742  11.552   4.400  11.147  0.2068 -0.3085 -0.1690
  297loPI   C1A 4743  11.880   4.697  10.776 -0.0008  0.1976 -0.2872
  297loPI   C2A 4744  11.898   4.674  10.408 -0.1014 -0.1686 -0.0488
  297loPI   C3A 4745  11.813   4.594  10.053  0.1032 -0.0013 -0.3414
  297loPI   C4A 4746  11.738   4.608   9.680 -0.2193  0.0842 -0.1975
  297loPI   C5A 4747  11.710   4.711   9.242 -0.0280 -0.1296 -0.2652
  297loPI   C6A 4748  11.587   4.568   8.830  0.2618  0.0285  0.0163
  297loPI   C1B 4749  11.348   4.501  10.723 -0.0067 -0.1136  0.2196
  297loPI   C2B 4750  11.315   4.477  10.219 -0.2147  0.1206 -0.4768
  297loPI   C3B 4751  11.256   4.475   9.802 -0.1268 -0.1076  0.3693
  297loPI   C4B 4752  11.254   4.492   9.315  0.0850 -0.2394 -0.2475
  298loPI    C1 4753  11.953   8.319  11.488 -0.0302 -0.2397  0.1965
  298loPI    C2 4754  11.673   8.536  11.675 -0.0836 -0.1788  0.0475
  298loPI    C3 4755  11.920   8.303  11.886 -0.1590 -0.1294  0.1912
  298loPI   PO4 4756  11.845   8.284  11.222  0.3527 -0.1707 -0.0588
  298loPI   GL1 4757  11.934   8.059  10.857 -0.1420  0.3546 -0.0025
  298loPI   GL2 4758  11.725   7.747  10.740  0.0566  0.0382  0.0963
  298loPI   C1A 4759  11.875   8.230  10.476 -0.0736 -0.1613 -0.1553
  298loPI   C2A 4760  11.837   8.073  10.157  0.2261  0.0503  0.0264
  298loPI   C3A 4761  11.898   8.011   9.773  0.1520 -0.0086  0.2213
  298loPI   C4A 4762  11.745   8.053   9.312  0.1125  0.1232  0.4782
  298loPI   C5A 4763  11.973   7.914   8.989  0.2667  0.0187 -0.3239
  298loPI   C6A 4764  12.064   8.010   8.566  0.0283 -0.3338  0.0927
  298loPI   C1B 4765  11.819   7.553  10.259 -0.0610  0.0104  0.3984
  298loPI   C2B 4766  11.676   7.573   9.830  0.2103 -0.0030 -0.1658
  298loPI   C3B 4767  11.744   7.579   9.413  0.1861  0.1775 -0.1725
  298loPI   C4B 4768  11.722   7.406   8.982 -0.4687  0.1154  0.0237
  299loPI    C1 4769   2.080   9.654  11.234  0.0420 -0.2658 -0.1626
  299loPI    C2 4770   1.986   9.285  11.357  0.1268 -0.2651 -0.0948
  299loPI    C3 4771   2.163   9.541  11.609 -0.3045 -0.0385 -0.0125
  299loPI   PO4 4772   1.904   9.640  10.915  0.2050 -0.0518 -0.1815
  299loPI   GL1 4773   2.039   9.587  10.567 -0.4757 -0.4045 -0.3293
  299loPI   GL2 4774   2.102  10.029  10.567 -0.0221 -0.0721  0.3669
  299loPI   C1A 4775   1.905   9.718  10.188 -0.0192  0.1204  0.0407
  299loPI   C2A 4776   1.887   9.669   9.808  0.3811 -0.3186 -0.0634
  299loPI   C3A 4777   2.012   9.525   9.367 -0.2680  0.0442 -0.1749
  299loPI   C4A 4778   2.038   9.669   9.053 -0.0394  0.0706  0.0624
  299loPI   C5A 4779   2.145   9.833   8.695 -0.1216  0.1065 -0.0431
  299loPI   C6A 4780   2.420   9.757   8.343  0.3173 -0.1805 -0.0579
  299loPI   C1B 4781   2.160  10.164  10.170 -0.3088 -0.1511  0.2843
  299loPI   C2B 4782   2.153  10.113   9.707  0.0821  0.0948  0.0298
  299loPI   C3B 4783   2.156  10.198   9.230  0.2055 -0.3236  0.0936
  299loPI   C4B 4784   2.026  10.340   8.843 -0.1829 -0.1229  0.2692
  300loPI    C1 4785  11.191   5.616  11.748  0.2464  0.0118  0.0742
  300loPI    C2 4786  10.971   5.921  11.886  0.1687  0.0371 -0.1027
  300loPI    C3 4787  11.137   5.662  12.142 -0.1259 -0.0235  0.0316
  300loPI   PO4 4788  11.066   5.519  11.608  0.1369  0.0019  0.1259
  300loPI   GL1 4789  10.843   5.478  11.271  0.2146 -0.1326  0.1438
  300loPI   GL2 4790  11.051   5.389  11.074  0.1492 -0.1461 -0.0652
  300loPI   C1A 4791  10.665   5.648  10.885 -0.0392 -0.1842 -0.0524
  300loPI   C2A 4792  10.729   5.638  10.488  0.0088  0.1459  0.1536
  300loPI   C3A 4793  10.612   5.579  10.045  0.0242  0.0291 -0.1542
  300loPI   C4A 4794  10.545   5.644   9.570  0.1936  0.0960 -0.2717
  300loPI   C5A 4795  10.461   5.667   9.127 -0.0536 -0.2623 -0.2367
  300loPI   C6A 4796  10.390   5.644   8.723  0.1035  0.0990  0.1333
  300loPI   C1B 4797  11.059   5.322  10.709 -0.2928 -0.1742 -0.0725
  300loPI   C2B 4798  11.017   5.252  10.267  0.1442 -0.3542 -0.0920
  300loPI   C3B 4799  10.977   5.336   9.818  0.0966 -0.2973  0.1826
  300loPI   C4B 4800  10.917   5.306   9.415  0.0957 -0.1737  0.0273
  301loPI    C1 4801  16.977  13.433  10.908 -0.0278  0.0015  0.0312
  301loPI    C2 4802  16.644  13.274  11.064 -0.0341 -0.0398 -0.0235
  301loPI    C3 4803  16.626  13.480  10.722  0.0133 -0.1315 -0.0818
  301loPI   PO4 4804  17.238  13.309  10.773  0.1190 -0.2404  0.0733
  301loPI   GL1 4805  17.199  13.108  10.470 -0.2363  0.1361  0.0302
  301loPI   GL2 4806  16.976  13.330  10.330 -0.2072 -0.3081  0.2588
  301loPI   C1A 4807  17.116  12.987  10.025  0.0170 -0.0391 -0.5160
  301loPI   C2A 4808  17.261  12.977   9.644 -0.1771 -0.0180  0.0016
  301loPI   C3A 4809  17.255  13.223   9.343  0.2539 -0.0322 -0.2468
  301loPI   C4A 4810  17.269  13.222   8.970 -0.1315 -0.0646 -0.3001
  301loPI   C5A 4811  17.597  13.290   8.595  0.0964  0.2630  0.2109
  301loPI   C6A 4812  17.803  13.016   8.273 -0.1795 -0.2810  0.1857
  301loPI   C1B 4813  16.796  13.373   9.988  0.0278  0.3007  0.3551
  301loPI   C2B 4814  16.896  13.542   9.556 -0.3452  0.1078  0.2219
  301loPI   C3B 4815  16.866  13.576   9.178 -0.0615 -0.0034  0.0878
  301loPI   C4B 4816  16.869  13.455   8.786  0.0173 -0.1191  0.0777
  302loPI    C1 4817  12.694  11.744  11.145  0.1079  0.1563  0.0609
  302loPI    C2 4818  12.522  11.629  11.487 -0.0785 -0.1537 -0.1330
  302loPI    C3 4819  12.907  11.735  11.484 -0.1197  0.0201  0.2032
  302loPI   PO4 4820  12.580  11.624  10.916 -0.0480 -0.2794  0.2307
  302loPI   GL1 4821  12.407  11.627  10.624  0.3909 -0.3214  0.0271
  302loPI   GL2 4822  12.111  11.589  10.501 -0.4172 -0.1206  0.2447
  302loPI   C1A 4823  12.534  11.463  10.222  0.0845 -0.0044  0.0892
  302loPI   C2A 4824  12.558  11.580   9.829 -0.4208 -0.0260  0.1866
  302loPI   C3A 4825  12.770  11.352   9.459 -0.1350 -0.0931  0.2286
  302loPI   C4A 4826  12.978  11.220   9.114  0.3440 -0.0341 -0.1949
  302loPI   C5A 4827  12.925  11.051   8.585  0.0386 -0.0444  0.2671
  302loPI   C6A 4828  12.956  10.626   8.452  0.2515 -0.1556  0.0227
  302loPI   C1B 4829  12.088  11.672  10.027  0.2715  0.1241  0.1019
  302loPI   C2B 4830  12.104  11.792   9.590  0.0307  0.2200  0.2079
  302loPI   C3B 4831  12.003  12.181   9.251 -0.1767  0.0001 -0.0123
  302loPI   C4B 4832  11.989  12.498   9.099 -0.0648  0.0151  0.2615
  303loPI    C1 4833   9.333  17.519  11.728  0.1743 -0.0953 -0.0465
  303loPI    C2 4834   9.430  17.905  11.768  0.2331 -0.1204  0.0575
  303loPI    C3 4835   9.458  17.658  12.082 -0.1351 -0.1366  0.0824
  303loPI   PO4 4836   9.447  17.513  11.428  0.1830 -0.1486  0.4629
  303loPI   GL1 4837   9.349  17.624  11.007 -0.3259 -0.0220 -0.3694
  303loPI   GL2 4838   9.153  17.925  10.903 -0.0957  0.2410  0.0053
  303loPI   C1A 4839   9.627  17.481  10.660 -0.3467  0.0486 -0.1345
  303loPI   C2A 4840   9.790  17.503  10.313 -0.0076 -0.0148  0.0325
  303loPI   C3A 4841   9.648  17.523   9.902  0.2338  0.3550 -0.0485
  303loPI   C4A 4842   9.681  17.439   9.522  0.1839 -0.1693  0.1355
  303loPI   C5A 4843   9.697  17.480   9.165  0.0628 -0.4517 -0.0980
  303loPI   C6A 4844   9.470  17.422   8.728 -0.0945 -0.2462  0.0391
  303loPI   C1B 4845   9.174  17.807  10.574  0.0265 -0.1409  0.1409
  303loPI   C2B 4846   9.330  17.847  10.127 -0.0276 -0.2185  0.1589
  303loPI   C3B 4847   9.316  17.885   9.642  0.2638  0.2850  0.1701
  303loPI   C4B 4848   9.286  17.796   9.187 -0.0637 -0.1127  0.1794
  304loPI    C1 4849   7.830   0.740  11.690  0.0410 -0.0593 -0.2007
  304loPI    C2 4850   7.954   1.102  11.806 -0.0056 -0.0701 -0.1160
  304loPI    C3 4851   8.200   0.788  11.836  0.0547 -0.0358 -0.2429
  304loPI   PO4 4852   7.725   0.753  11.489 -0.2862  0.2671  0.1255
  304loPI   GL1 4853   7.585   0.634  11.146 -0.1240 -0.1796  0.2217
  304loPI   GL2 4854   7.948   0.613  10.965  0.0652 -0.0255 -0.0809
  304loPI   C1A 4855   7.588   0.874  10.755  0.1702 -0.0228 -0.0422
  304loPI   C2A 4856   7.612   1.039  10.340  0.1459  0.0781 -0.2539
  304loPI   C3A 4857   7.575   1.112   9.901 -0.0500  0.1738 -0.2224
  304loPI   C4A 4858   7.630   1.120   9.502  0.0987  0.1115 -0.1689
  304loPI   C5A 4859   7.637   1.189   9.068  0.1678 -0.1904  0.1296
  304loPI   C6A 4860   7.521   1.496   8.779 -0.1044  0.0844  0.1219
  304loPI   C1B 4861   8.029   0.638  10.464  0.0163 -0.2593 -0.1470
  304loPI   C2B 4862   7.946   0.647  10.038  0.2396  0.1583  0.1603
  304loPI   C3B 4863   7.983   0.673   9.635 -0.1424 -0.0423  0.1320
  304loPI   C4B 4864   7.968   0.738   9.193  0.2969 -0.1549 -0.0430
  305loPI    C1 4865  15.241   2.754  11.584 -0.0240 -0.0978  0.2152
  305loPI    C2 4866  14.940   2.773  11.847 -0.0494 -0.0640  0.1839
  305loPI    C3 4867  15.319   2.799  11.973 -0.0669  0.1317  0.1987
  305loPI   PO4 4868  15.160   2.627  11.376  0.2626  0.0453 -0.0893
  305loPI   GL1 4869  15.429   2.461  11.030 -0.1248 -0.0673 -0.1527
  305loPI   GL2 4870  15.781   2.525  11.041  0.1152  0.0373  0.1708
  305loPI   C1A 4871  15.251   2.447  10.648 -0.1949 -0.2386  0.0396
  305loPI   C2A 4872  15.284   2.482  10.247  0.3021 -0.0223 -0.1176
  305loPI   C3A 4873  15.173   2.549   9.810 -0.0501 -0.1218  0.1848
  305loPI   C4A 4874  15.122   2.493   9.340  0.2352  0.1305  0.0163
  305loPI   C5A 4875  15.259   2.492   8.884 -0.3110 -0.0638  0.1506
  305loPI   C6A 4876  15.051   2.708   8.572 -0.0306  0.3719 -0.0387
  305loPI   C1B 4877  15.683   2.670  10.665 -0.0400 -0.1078  0.2587
  305loPI   C2B 4878  15.766   2.750  10.310  0.1880 -0.1735 -0.0897
  305loPI   C3B 4879  15.733   2.778   9.848  0.0152  0.1455 -0.1531
  305loPI   C4B 4880  15.648   2.743   9.456 -0.0825  0.0386  0.3102
  306loPI    C1 4881   9.831  15.508  11.227  0.3298  0.0417 -0.0826
  306loPI    C2 4882   9.909  15.229  11.502 -0.2434 -0.1585 -0.1107
  306loPI    C3 4883   9.931  15.138  11.113 -0.3234 -0.1350 -0.1209
  306loPI   PO4 4884   9.604  15.631  11.268 -0.0109  0.0792  0.2382
  306loPI   GL1 4885   9.381  15.916  10.987 -0.1092  0.1656  0.0936
  306loPI   GL2 4886   9.554  15.878  10.801 -0.2344  0.3257 -0.0979
  306loPI   C1A 4887   9.106  16.156  10.642  0.0506  0.2344 -0.3580
  306loPI   C2A 4888   9.086  16.260  10.210  0.0549 -0.2411 -0.1838
  306loPI   C3A 4889   9.028  16.150   9.782 -0.1311 -0.0687 -0.1289
  306loPI   C4A 4890   9.059  16.273   9.346  0.1887 -0.0378 -0.1518
  306loPI   C5A 4891   8.965  16.471   8.861  0.1361 -0.1375 -0.2550
  306loPI   C6A 4892   8.865  16.654   8.443  0.1805 -0.1646  0.1166
  306loPI   C1B 4893   9.501  15.874  10.408 -0.0173  0.0041  0.1225
  306loPI   C2B 4894   9.468  15.797  10.009  0.0037  0.0128 -0.2110
  306loPI   C3B 4895   9.444  15.857   9.656 -0.1921 -0.2396  0.0691
  306loPI   C4B 4896   9.503  16.055   9.298  0.0992  0.0774  0.1341
  307loPI    C1 4897   7.991  16.021  11.594  0.1306  0.3317 -0.1915
  307loPI    C2 4898   8.371  15.899  11.576 -0.0106 -0.0812 -0.5262
  307loPI    C3 4899   8.141  15.790  11.884  0.1656  0.2564 -0.2693
  307loPI   PO4 4900   7.849  15.926  11.335 -0.3061  0.1555 -0.1720
  307loPI   GL1 4901   7.733  15.696  10.952 -0.1144 -0.3353  0.1957
  307loPI   GL2 4902   7.799  16.034  10.856 -0.1901 -0.3594 -0.0807
  307loPI   C1A 4903   7.586  15.708  10.449  0.3659 -0.1675 -0.0805
  307loPI   C2A 4904   7.600  15.705   9.955 -0.0604  0.1985  0.2213
  307loPI   C3A 4905   7.488  15.771   9.474  0.0270  0.0981 -0.1624
  307loPI   C4A 4906   7.636  15.767   8.995  0.1666  0.2353  0.2904
  307loPI   C5A 4907   7.314  15.834   8.737 -0.0808 -0.0653 -0.1739
  307loPI   C6A 4908   6.874  15.864   8.728  0.1599  0.1163  0.2051
  307loPI   C1B 4909   7.708  16.208  10.496 -0.2611  0.0566 -0.1488
  307loPI   C2B 4910   7.710  16.194  10.075 -0.0924  0.0840  0.0132
  307loPI   C3B 4911   7.592  16.218   9.707 -0.0170 -0.3128  0.1930
  307loPI   C4B 4912   7.713  16.218   9.273 -0.0152  0.0363  0.2398
  308loPI    C1 4913   0.547  12.543  11.136  0.1531  0.1610 -0.3391
  308loPI    C2 4914   0.647  12.849  11.374 -0.1120  0.1055 -0.1514
  308loPI    C3 4915   0.931  12.605  11.232  0.0462  0.1115  0.1460
  308loPI   PO4 4916   0.435  12.664  10.894  0.1134 -0.0398 -0.1025
  308loPI   GL1 4917   0.586  12.786  10.431 -0.1640  0.3348 -0.3432
  308loPI   GL2 4918   0.602  13.087  10.478 -0.0133  0.1486  0.1294
  308loPI   C1A 4919   0.962  12.715  10.159 -0.1736  0.3000  0.0819
  308loPI   C2A 4920   1.070  12.665   9.709 -0.0749 -0.0322 -0.1789
  308loPI   C3A 4921   1.054  12.688   9.204 -0.0258 -0.1593  0.1463
  308loPI   C4A 4922   0.928  12.724   8.879  0.0545 -0.0797  0.0381
  308loPI   C5A 4923   0.989  12.851   8.471 -0.1759  0.2960 -0.3193
  308loPI   C6A 4924   1.354  12.919   8.309  0.1227 -0.1377  0.4066
  308loPI   C1B 4925   0.712  13.089   9.991  0.2509 -0.3431 -0.1588
  308loPI   C2B 4926   0.678  12.937   9.611  0.0053 -0.1920  0.5368
  308loPI   C3B 4927   0.599  13.031   9.209  0.3638 -0.2475  0.1813
  308loPI   C4B 4928   0.531  13.059   8.736  0.2450  0.1904 -0.2263
  309loPI    C1 4929   1.041   3.232  11.396  0.0724 -0.0226 -0.1743
  309loPI    C2 4930   1.012   3.581  11.202 -0.1161  0.1050  0.0776
  309loPI    C3 4931   0.925   3.561  11.592 -0.0730 -0.2179  0.0736
  309loPI   PO4 4932   1.288   3.110  11.189 -0.0317  0.1538  0.0132
  309loPI   GL1 4933   1.277   3.118  10.786 -0.3356 -0.0614 -0.0612
  309loPI   GL2 4934   1.044   3.393  10.758 -0.2060 -0.0043 -0.0533
  309loPI   C1A 4935   1.481   2.976  10.441  0.1586  0.0573 -0.2979
  309loPI   C2A 4936   1.444   3.080  10.046  0.0397  0.1581  0.0477
  309loPI   C3A 4937   1.332   2.939   9.769 -0.3568 -0.2605 -0.2136
  309loPI   C4A 4938   1.414   3.044   9.382  0.1435  0.0477  0.1321
  309loPI   C5A 4939   1.540   2.992   8.959 -0.3477  0.1539 -0.1329
  309loPI   C6A 4940   1.480   3.141   8.549  0.0105  0.2859  0.0331
  309loPI   C1B 4941   1.037   3.351  10.237  0.3415 -0.0304 -0.0296
  309loPI   C2B 4942   1.037   3.300   9.801 -0.0575  0.2310  0.0391
  309loPI   C3B 4943   0.939   3.321   9.327 -0.1082 -0.0253 -0.0032
  309loPI   C4B 4944   1.261   3.402   9.073  0.1229 -0.0911  0.1216
  310loPI    C1 4945   7.234   2.501  11.817 -0.1089  0.0977  0.2498
  310loPI    C2 4946   7.205   2.144  11.640  0.2027  0.1550  0.0752
  310loPI    C3 4947   6.977   2.229  11.958 -0.0936 -0.0853 -0.0674
  310loPI   PO4 4948   7.266   2.648  11.576  0.1387  0.2977  0.3099
  310loPI   GL1 4949   7.196   2.630  11.095 -0.0729 -0.0551  0.1815
  310loPI   GL2 4950   7.154   2.949  11.034 -0.3865 -0.1352  0.2550
  310loPI   C1A 4951   7.222   2.285  10.774  0.1523 -0.0152 -0.1954
  310loPI   C2A 4952   7.324   2.401  10.387 -0.0208 -0.0602 -0.2058
  310loPI   C3A 4953   7.257   2.408  10.011 -0.0035  0.0334 -0.2705
  310loPI   C4A 4954   7.309   2.301   9.651 -0.0411  0.2023 -0.3333
  310loPI   C5A 4955   7.212   2.428   9.285 -0.2109  0.3743 -0.0376
  310loPI   C6A 4956   7.354   2.480   8.817 -0.0150 -0.0474  0.0322
  310loPI   C1B 4957   7.450   2.833  10.703 -0.0182 -0.0297  0.0421
  310loPI   C2B 4958   7.501   2.910  10.357  0.0066 -0.5310 -0.3810
  310loPI   C3B 4959   7.328   3.013   9.978 -0.1840  0.2859 -0.1315
  310loPI   C4B 4960   7.314   3.041   9.571  0.1856 -0.1669  0.0832
  311loPI    C1 4961   9.939   1.394  11.960  0.0941 -0.1250  0.2772
  311loPI    C2 4962   9.871   1.709  11.724  0.1485 -0.3119  0.0069
  311loPI    C3 4963  10.082   1.753  12.061 -0.1763  0.0141  0.1750
  311loPI   PO4 4964   9.882   1.192  11.746  0.0227 -0.2705  0.0218
  311loPI   GL1 4965   9.936   1.121  11.287 -0.1364  0.3682  0.1878
  311loPI   GL2 4966   9.825   0.943  11.081 -0.2316  0.3026  0.0366
  311loPI   C1A 4967  10.008   1.390  10.924  0.3705  0.3163 -0.0414
  311loPI   C2A 4968   9.949   1.426  10.454 -0.2916  0.1013 -0.3056
  311loPI   C3A 4969   9.876   1.388  10.004  0.1159 -0.1199 -0.0193
  311loPI   C4A 4970   9.874   1.549   9.626 -0.1304  0.3312  0.0178
  311loPI   C5A 4971   9.706   1.671   9.234 -0.0033  0.2207 -0.3399
  311loPI   C6A 4972   9.460   1.901   8.851  0.1018 -0.0171  0.0608
  311loPI   C1B 4973   9.861   0.907  10.639 -0.0915  0.0440 -0.2367
  311loPI   C2B 4974   9.891   0.953  10.297  0.0054 -0.1980 -0.0598
  311loPI   C3B 4975   9.905   0.944   9.821  0.1709  0.5689  0.3908
  311loPI   C4B 4976   9.831   1.040   9.445  0.0444 -0.0804  0.1514
  312loPI    C1 4977  13.133  16.143  11.720  0.0498  0.1347  0.1310
  312loPI    C2 4978  13.255  15.806  11.898  0.1245  0.0525 -0.0729
  312loPI    C3 4979  13.138  16.118  12.120 -0.0647 -0.1494  0.1169
  312loPI   PO4 4980  13.238  16.028  11.425  0.3011 -0.1481 -0.1543
  312loPI   GL1 4981  13.524  15.870  11.142  0.3588 -0.1310  0.2986
  312loPI   GL2 4982  13.818  15.786  10.929  0.2349 -0.3289  0.1743
  312loPI   C1A 4983  13.352  16.055  10.804 -0.0458 -0.4244 -0.0404
  312loPI   C2A 4984  13.245  16.030  10.424  0.3058 -0.0635  0.0463
  312loPI   C3A 4985  13.178  15.963  10.012  0.0558  0.0589  0.4625
  312loPI   C4A 4986  13.138  15.770   9.552  0.0760  0.2234  0.0075
  312loPI   C5A 4987  13.069  15.716   9.178 -0.0304 -0.1529 -0.3038
  312loPI   C6A 4988  12.963  15.598   8.797 -0.0376  0.0138 -0.0597
  312loPI   C1B 4989  13.853  15.963  10.591 -0.0490 -0.1177  0.1006
  312loPI   C2B 4990  14.157  16.247  10.280 -0.0838  0.1054 -0.0138
  312loPI   C3B 4991  14.059  16.329   9.827 -0.2462  0.2454 -0.1069
  312loPI   C4B 4992  14.059  16.193   9.480  0.1543 -0.0100 -0.0899
  313loPI    C1 4993   7.602   3.296  11.527  0.0398 -0.0394  0.0096
  313loPI    C2 4994   7.225   3.164  11.515 -0.0430  0.1910  0.0260
  313loPI    C3 4995   7.484   3.007  11.776 -0.1328  0.0462  0.0289
  313loPI   PO4 4996   7.617   3.419  11.314  0.2598  0.1677  0.1368
  313loPI   GL1 4997   7.275   3.591  11.124  0.1235  0.3366  0.0860
  313loPI   GL2 4998   7.095   3.690  10.880 -0.1477  0.0857  0.2888
  313loPI   C1A 4999   7.363   3.367  10.688 -0.1829  0.0903  0.0637
  313loPI   C2A 5000   7.553   3.453  10.263 -0.5548 -0.2090  0.0127
  313loPI   C3A 5001   7.449   3.444   9.881  0.2019  0.0042  0.2767
  313loPI   C4A 5002   7.419   3.590   9.453 -0.2136 -0.0951  0.1919
  313loPI   C5A 5003   7.333   3.534   9.036  0.4123  0.2308  0.2720
  313loPI   C6A 5004   7.195   3.455   8.617  0.2322 -0.1509 -0.1106
  313loPI   C1B 5005   7.122   3.791  10.431 -0.0203 -0.0722 -0.2407
  313loPI   C2B 5006   7.113   3.843  10.086 -0.3752 -0.0102 -0.1543
  313loPI   C3B 5007   7.018   3.718   9.616 -0.1249 -0.2618 -0.2875
  313loPI   C4B 5008   6.878   3.747   9.135  0.1066 -0.0265 -0.1766
  314loPI    C1 5009  15.873   2.703  11.648  0.0900 -0.3053 -0.1205
  314loPI    C2 5010  15.636   2.400  11.538 -0.5393  0.0281  0.2590
  314loPI    C3 5011  15.812   2.395  11.897 -0.1173 -0.1241  0.0568
  314loPI   PO4 5012  16.037   2.763  11.482  0.0795 -0.1912 -0.1113
  314loPI   GL1 5013  16.182   2.815  11.072 -0.4904 -0.0060 -0.1105
  314loPI   GL2 5014  16.012   3.002  10.941  0.0723  0.0588  0.0177
  314loPI   C1A 5015  16.154   2.498  10.740 -0.0510  0.0326 -0.1516
  314loPI   C2A 5016  16.118   2.372  10.420 -0.0425 -0.0464 -0.2191
  314loPI   C3A 5017  16.120   2.331   9.987  0.2495 -0.1511  0.0618
  314loPI   C4A 5018  16.022   2.407   9.575  0.1664 -0.2724 -0.0194
  314loPI   C5A 5019  15.905   2.249   9.160  0.3203  0.1426  0.0242
  314loPI   C6A 5020  16.013   1.868   8.834 -0.0551 -0.0436 -0.1718
  314loPI   C1B 5021  16.190   3.021  10.502  0.0714 -0.0629  0.3194
  314loPI   C2B 5022  16.201   2.874  10.024 -0.0080  0.0867 -0.3058
  314loPI   C3B 5023  16.182   2.875   9.600  0.1374  0.1327  0.1127
  314loPI   C4B 5024  16.023   2.953   9.207 -0.1351 -0.1663  0.0480
  315loPI    C1 5025  14.981  15.905  11.610 -0.0279  0.1042 -0.2933
  315loPI    C2 5026  14.830  16.254  11.734  0.1791  0.1715 -0.2254
  315loPI    C3 5027  15.138  16.089  11.929 -0.0236 -0.1334 -0.1568
  315loPI   PO4 5028  15.018  15.936  11.387 -0.2314 -0.3730 -0.1408
  315loPI   GL1 5029  15.353  15.968  11.060  0.0898  0.3157 -0.1279
  315loPI   GL2 5030  15.335  15.773  10.875 -0.2361  0.0192 -0.1245
  315loPI   C1A 5031  15.046  16.190  10.744  0.2685 -0.0796 -0.3521
  315loPI   C2A 5032  14.987  16.118  10.361 -0.2166  0.0309  0.0151
  315loPI   C3A 5033  15.033  16.138   9.895  0.1468 -0.0782  0.4186
  315loPI   C4A 5034  14.984  16.169   9.474  0.2167  0.0703 -0.1560
  315loPI   C5A 5035  14.714  16.307   9.133 -0.0080  0.4766 -0.0631
  315loPI   C6A 5036  14.728  16.771   9.010 -0.4740 -0.2243  0.1373
  315loPI   C1B 5037  15.503  15.734  10.533 -0.0341 -0.0729 -0.0866
  315loPI   C2B 5038  15.405  15.801  10.051 -0.0269 -0.1849 -0.1024
  315loPI   C3B 5039  15.406  15.798   9.658  0.2088  0.1163  0.1409
  315loPI   C4B 5040  15.238  15.786   9.290 -0.1986  0.0302 -0.1820
  316loPI    C1 5041  16.619   1.965  11.703 -0.0495  0.1585 -0.1637
  316loPI    C2 5042  16.346   2.197  11.881 -0.0452  0.0681 -0.0380
  316loPI    C3 5043  16.503   1.886  12.077 -0.2337 -0.1909 -0.2908
  316loPI   PO4 5044  16.434   1.929  11.474  0.2872  0.0896  0.0863
  316loPI   GL1 5045  16.308   1.762  11.082  0.3049  0.1858  0.0090
  316loPI   GL2 5046  16.005   2.055  10.976 -0.4321 -0.0412 -0.1343
  316loPI   C1A 5047  16.406   1.517  10.767  0.3225  0.2151  0.2906
  316loPI   C2A 5048  16.468   1.588  10.300  0.0752 -0.1445 -0.0559
  316loPI   C3A 5049  16.376   1.518  10.009 -0.1716  0.1819  0.1162
  316loPI   C4A 5050  16.304   1.565   9.583 -0.1673  0.0224  0.3564
  316loPI   C5A 5051  16.340   1.583   9.145  0.2443 -0.0984  0.1068
  316loPI   C6A 5052  16.486   1.406   8.744  0.0824 -0.2404 -0.0394
  316loPI   C1B 5053  16.064   1.863  10.577 -0.2451  0.3349 -0.1646
  316loPI   C2B 5054  16.061   1.849  10.198  0.2374  0.6045  0.0762
  316loPI   C3B 5055  15.948   1.927   9.769 -0.0468 -0.1242 -0.1771
  316loPI   C4B 5056  15.823   1.782   9.324  0.0801  0.0608 -0.1147
  317loPI    C1 5057   1.739  11.263  11.338 -0.1415  0.0088 -0.0789
  317loPI    C2 5058   1.928  10.927  11.447  0.1628  0.1305 -0.2196
  317loPI    C3 5059   1.701  11.124  11.711  0.0311 -0.1510 -0.1191
  317loPI   PO4 5060   1.627  11.149  11.064 -0.0116 -0.0928 -0.1532
  317loPI   GL1 5061   1.552  11.111  10.674  0.2995 -0.1045 -0.0829
  317loPI   GL2 5062   1.883  10.958  10.649  0.1162 -0.1515 -0.0367
  317loPI   C1A 5063   1.806  11.397  10.438  0.3344 -0.2713 -0.1203
  317loPI   C2A 5064   1.782  11.329   9.967 -0.0864  0.0896 -0.1352
  317loPI   C3A 5065   1.816  11.468   9.499  0.0790  0.2935  0.0527
  317loPI   C4A 5066   1.746  11.832   9.296 -0.0964  0.1205 -0.0202
  317loPI   C5A 5067   1.962  11.841   8.922  0.1038 -0.0722  0.0703
  317loPI   C6A 5068   2.052  11.681   8.418  0.1527  0.1669 -0.1400
  317loPI   C1B 5069   1.580  10.882  10.240  0.2082 -0.1068 -0.0506
  317loPI   C2B 5070   1.545  10.873   9.791 -0.1080 -0.0324 -0.2869
  317loPI   C3B 5071   1.535  10.937   9.384 -0.1046  0.0878  0.2346
  317loPI   C4B 5072   1.491  10.990   8.948  0.0495 -0.0328  0.0083
  318loPI    C1 5073  10.905   0.845  12.058 -0.0400  0.1022 -0.1221
  318loPI    C2 5074  10.613   1.104  12.148 -0.3435 -0.2933  0.0613
  318loPI    C3 5075  10.837   0.945  12.439 -0.0592 -0.1287 -0.0635
  318loPI   PO4 5076  10.801   0.873  11.781 -0.2272  0.1103  0.2283
  318loPI   GL1 5077  10.845   0.873  11.375 -0.2483  0.1091  0.2639
  318loPI   GL2 5078  10.642   1.118  11.304  0.1354  0.1624  0.0347
  318loPI   C1A 5079  10.812   0.657  11.061 -0.0430  0.1785 -0.1108
  318loPI   C2A 5080  10.653   0.694  10.609 -0.2877  0.0954  0.1586
  318loPI   C3A 5081  10.722   0.858  10.223 -0.0419  0.1280 -0.2130
  318loPI   C4A 5082  10.853   0.903   9.851 -0.0834 -0.0500 -0.0605
  318loPI   C5A 5083  10.756   0.881   9.431  0.2551  0.1530 -0.0339
  318loPI   C6A 5084  10.626   0.667   9.093  0.1914  0.2219  0.2474
  318loPI   C1B 5085  10.713   1.184  10.868 -0.2927  0.2655 -0.1431
  318loPI   C2B 5086  10.719   1.357  10.441 -0.0686  0.3742  0.1456
  318loPI   C3B 5087  10.790   1.359  10.063 -0.0232  0.0944  0.0427
  318loPI   C4B 5088  10.789   1.386   9.623 -0.0344  0.1079 -0.1040
  319loPI    C1 5089   9.785   3.106  11.808 -0.0186 -0.1866 -0.0593
  319loPI    C2 5090   9.392   3.182  11.822  0.0170 -0.0148  0.0382
  319loPI    C3 5091   9.551   2.907  12.065 -0.0501 -0.1220 -0.0379
  319loPI   PO4 5092   9.825   3.312  11.493 -0.0120 -0.0731  0.0815
  319loPI   GL1 5093   9.987   3.501  11.052  0.2128  0.1055  0.0367
  319loPI   GL2 5094   9.814   3.234  11.026  0.0516 -0.2601  0.2139
  319loPI   C1A 5095  10.252   3.594  10.666  0.0577  0.3313 -0.0320
  319loPI   C2A 5096  10.240   3.633  10.274 -0.1620 -0.0202 -0.0459
  319loPI   C3A 5097  10.226   3.605   9.873  0.0451 -0.2699 -0.1782
  319loPI   C4A 5098  10.193   3.616   9.464  0.0878 -0.0257 -0.1216
  319loPI   C5A 5099  10.083   3.665   9.055  0.0546  0.1289 -0.2123
  319loPI   C6A 5100   9.746   3.612   8.852  0.1596  0.2297  0.3728
  319loPI   C1B 5101   9.824   3.414  10.545 -0.0506 -0.1305 -0.0847
  319loPI   C2B 5102   9.785   3.344  10.143 -0.0806 -0.0631  0.2055
  319loPI   C3B 5103   9.759   3.405   9.659 -0.0147  0.1197  0.0454
  319loPI   C4B 5104   9.763   3.304   9.233 -0.2017 -0.0475  0.1041
  320loPI    C1 5105  15.894  17.490  11.842  0.1685 -0.2511 -0.0897
  320loPI    C2 5106  15.758  17.143  11.696  0.1057 -0.1945 -0.1664
  320loPI    C3 5107  15.585  17.306  12.018  0.3144 -0.3749  0.0406
  320loPI   PO4 5108  16.015  17.493  11.510 -0.0549 -0.0464 -0.1835
  320loPI   GL1 5109  15.928  17.689  11.221 -0.3885 -0.0844  0.2216
  320loPI   GL2 5110  15.926  17.951  11.065  0.1331 -0.0221 -0.0160
  320loPI   C1A 5111  16.130  17.636  10.757 -0.0016  0.0736 -0.1008
  320loPI   C2A 5112  16.091  17.659  10.346  0.0088 -0.0912  0.0657
  320loPI   C3A 5113  16.105  17.680   9.981 -0.3716  0.1045  0.0577
  320loPI   C4A 5114  16.192  17.664   9.636 -0.2320 -0.0537  0.0643
  320loPI   C5A 5115  16.154  17.524   9.306 -0.1073 -0.1991  0.2461
  320loPI   C6A 5116  15.732  17.492   9.110  0.4130 -0.2231  0.3072
  320loPI   C1B 5117  15.750  18.026  10.724 -0.0472 -0.1942  0.0423
  320loPI   C2B 5118  15.707  18.021  10.345  0.1061 -0.2475  0.1508
  320loPI   C3B 5119  15.686  17.978   9.910  0.0299 -0.2772  0.1003
  320loPI   C4B 5120  15.731  17.882   9.449 -0.0358 -0.3077  0.1509
  321loPI    C1 5121  12.650   5.829  11.660 -0.2216  0.1060 -0.0062
  321loPI    C2 5122  12.499   5.655  11.987 -0.1194  0.1120  0.0447
  321loPI    C3 5123  12.783   5.934  12.023  0.0486 -0.0438 -0.0592
  321loPI   PO4 5124  12.541   5.545  11.511 -0.1252  0.0577  0.0434
  321loPI   GL1 5125  12.444   5.576  11.090  0.0534 -0.1887  0.0414
  321loPI   GL2 5126  12.375   5.904  11.059  0.0717 -0.0493  0.1732
  321loPI   C1A 5127  12.447   5.486  10.722  0.0215 -0.0425  0.1163
  321loPI   C2A 5128  12.331   5.350  10.384  0.2472  0.0314 -0.2259
  321loPI   C3A 5129  12.428   5.285   9.985 -0.1882 -0.0330 -0.1432
  321loPI   C4A 5130  12.331   5.277   9.594 -0.0580 -0.2025 -0.0841
  321loPI   C5A 5131  12.259   5.225   9.149 -0.2907 -0.3684  0.0461
  321loPI   C6A 5132  12.209   5.633   8.832  0.0897 -0.0985 -0.1897
  321loPI   C1B 5133  12.367   5.995  10.677  0.3119 -0.1991  0.0340
  321loPI   C2B 5134  12.400   5.821  10.265  0.0792 -0.1479  0.4650
  321loPI   C3B 5135  12.487   5.796   9.767  0.0722  0.1809 -0.3884
  321loPI   C4B 5136  12.283   5.810   9.415  0.0542  0.1212 -0.1983
  322loPI    C1 5137  15.099   5.711  11.890  0.1559 -0.0576 -0.0062
  322loPI    C2 5138  15.329   6.002  12.039 -0.0626  0.0817  0.0625
  322loPI    C3 5139  15.405   5.620  12.131  0.0936  0.1322  0.1461
  322loPI   PO4 5140  15.081   5.760  11.598 -0.0200  0.0496  0.1931
  322loPI   GL1 5141  15.124   5.880  11.221 -0.2593 -0.1823  0.0477
  322loPI   GL2 5142  14.865   5.858  11.000  0.1844  0.1562  0.1486
  322loPI   C1A 5143  15.367   6.019  10.794 -0.0065 -0.0390 -0.0556
  322loPI   C2A 5144  15.316   5.950  10.374  0.2561  0.0274  0.1849
  322loPI   C3A 5145  15.310   5.867   9.857 -0.0687  0.1744  0.2625
  322loPI   C4A 5146  15.078   5.926   9.433 -0.0031  0.2335 -0.1137
  322loPI   C5A 5147  14.918   6.366   9.306 -0.1531  0.0502  0.0734
  322loPI   C6A 5148  14.666   6.597   9.056  0.1467  0.0516 -0.0657
  322loPI   C1B 5149  14.823   5.742  10.539 -0.2696 -0.2059 -0.0360
  322loPI   C2B 5150  14.820   5.704  10.114 -0.0429  0.0970 -0.0907
  322loPI   C3B 5151  14.777   5.703   9.711 -0.1985  0.1052 -0.1099
  322loPI   C4B 5152  14.622   5.585   9.424  0.0470 -0.2342 -0.1764
  323loPI    C1 5153   4.785   8.107  10.966  0.1116  0.2670 -0.2832
  323loPI    C2 5154   4.702   7.828  11.240 -0.0770  0.3537 -0.2505
  323loPI    C3 5155   5.054   8.018  11.248  0.1114  0.0179 -0.3588
  323loPI   PO4 5156   4.598   8.209  10.937  0.2827  0.0933  0.1004
  323loPI   GL1 5157   4.385   8.305  10.608 -0.1053 -0.0173 -0.3350
  323loPI   GL2 5158   4.192   8.379  10.742  0.0950 -0.1353 -0.1980
  323loPI   C1A 5159   4.532   8.230  10.149 -0.1522 -0.1925 -0.4195
  323loPI   C2A 5160   4.521   8.294   9.683 -0.0589  0.4831  0.0655
  323loPI   C3A 5161   4.456   8.329   9.199  0.0588 -0.1336  0.0929
  323loPI   C4A 5162   4.123   8.292   8.958  0.1949  0.0518 -0.0903
  323loPI   C5A 5163   4.010   8.303   8.527 -0.2408 -0.0202  0.0557
  323loPI   C6A 5164   3.836   7.980   8.256  0.1329  0.1508 -0.0690
  323loPI   C1B 5165   4.052   8.553  10.390 -0.3475  0.2629 -0.1889
  323loPI   C2B 5166   4.155   8.505   9.986  0.0874  0.2537  0.1476
  323loPI   C3B 5167   4.128   8.535   9.485  0.0168  0.1165 -0.0775
  323loPI   C4B 5168   4.120   8.758   9.154  0.0790 -0.1561  0.0902
  324loPI    C1 5169   5.272   5.151  11.723  0.0381  0.0929 -0.1891
  324loPI    C2 5170   5.082   5.087  12.070  0.0451 -0.1176 -0.2231
  324loPI    C3 5171   5.266   5.436  12.004 -0.0152 -0.0508 -0.0428
  324loPI   PO4 5172   5.075   5.134  11.518 -0.0971 -0.3068  0.5501
  324loPI   GL1 5173   5.186   4.977  11.060  0.2363  0.2508  0.0026
  324loPI   GL2 5174   4.870   4.913  11.070  0.1985  0.2246 -0.2210
  324loPI   C1A 5175   5.288   5.028  10.691  0.1341 -0.0020 -0.0491
  324loPI   C2A 5176   5.345   5.039  10.260 -0.2790  0.0451 -0.1583
  324loPI   C3A 5177   5.332   5.042   9.825  0.2026 -0.0457  0.0599
  324loPI   C4A 5178   5.480   5.032   9.415  0.0460  0.0203 -0.2179
  324loPI   C5A 5179   5.513   5.009   8.955  0.0937  0.0937  0.1656
  324loPI   C6A 5180   5.510   5.313   8.702 -0.0527 -0.0506  0.0216
  324loPI   C1B 5181   4.841   4.830  10.635  0.2223  0.5267 -0.0553
  324loPI   C2B 5182   4.792   4.878  10.233 -0.2112 -0.2114 -0.1015
  324loPI   C3B 5183   4.839   4.830   9.809  0.2843 -0.0688 -0.1114
  324loPI   C4B 5184   4.968   4.798   9.402  0.0596 -0.2570  0.1466
  325loPI    C1 5185  12.011  13.962  11.192  0.0276 -0.1736 -0.0828
  325loPI    C2 5186  11.649  13.913  11.356 -0.0763  0.3981 -0.1216
  325loPI    C3 5187  11.965  13.996  11.588  0.0534 -0.1722 -0.0798
  325loPI   PO4 5188  12.026  13.704  11.034 -0.2752  0.0801  0.0817
  325loPI   GL1 5189  12.309  13.622  10.664 -0.2830  0.0722  0.0022
  325loPI   GL2 5190  12.187  13.949  10.612 -0.1311 -0.0009  0.1310
  325loPI   C1A 5191  12.362  13.586  10.193  0.1140 -0.1828 -0.0444
  325loPI   C2A 5192  12.121  13.753   9.797 -0.5426  0.2253 -0.0828
  325loPI   C3A 5193  11.670  13.800   9.802  0.5529  0.4508 -0.1138
  325loPI   C4A 5194  11.296  13.852   9.747 -0.2481  0.0689  0.2424
  325loPI   C5A 5195  11.080  13.636   9.420  0.1937  0.1535  0.2195
  325loPI   C6A 5196  11.077  13.525   9.040  0.1472  0.4930  0.2181
  325loPI   C1B 5197  12.001  14.039  10.244  0.1981 -0.3282  0.3464
  325loPI   C2B 5198  12.005  14.256   9.834 -0.3583  0.2803  0.0580
  325loPI   C3B 5199  11.999  14.713   9.671 -0.0793  0.2598  0.0291
  325loPI   C4B 5200  11.910  15.078   9.852  0.0659  0.1229 -0.0114
  326loPI    C1 5201   1.116  16.902  11.841  0.3099 -0.3875 -0.3023
  326loPI    C2 5202   1.341  17.088  12.114 -0.4136  0.0706  0.0149
  326loPI    C3 5203   1.332  16.688  12.101  0.1152  0.0421  0.2334
  326loPI   PO4 5204   1.191  17.007  11.636 -0.1795 -0.3770  0.0615
  326loPI   GL1 5205   1.199  16.956  11.145  0.0561 -0.0245  0.1513
  326loPI   GL2 5206   1.468  16.653  11.052  0.2065 -0.0326 -0.2211
  326loPI   C1A 5207   1.349  17.139  10.667  0.2090  0.3649  0.0672
  326loPI   C2A 5208   1.331  17.172  10.231  0.1578  0.0513  0.2813
  326loPI   C3A 5209   1.395  17.101   9.784  0.1748 -0.0588  0.1933
  326loPI   C4A 5210   1.237  17.223   9.330 -0.0128  0.0820 -0.0677
  326loPI   C5A 5211   1.417  17.297   8.981  0.1843  0.0301  0.2895
  326loPI   C6A 5212   1.729  17.109   8.712  0.1187 -0.1036  0.1938
  326loPI   C1B 5213   1.305  16.520  10.696 -0.0345  0.0872  0.2646
  326loPI   C2B 5214   1.193  16.519  10.283  0.1082  0.0101  0.2473
  326loPI   C3B 5215   1.226  16.622   9.950 -0.1255  0.1737 -0.0793
  326loPI   C4B 5216   1.348  16.661   9.522  0.0751 -0.2117 -0.0184
  327loPI    C1 5217   3.318   0.072  11.957 -0.1311 -0.1043  0.3993
  327loPI    C2 5218   3.619  -0.179  12.038  0.1617  0.1510  0.1315
  327loPI    C3 5219   3.502   0.090  12.311  0.3502  0.2217  0.1435
  327loPI   PO4 5220   3.437   0.100  11.628 -0.3535  0.2998  0.0474
  327loPI   GL1 5221   3.363   0.003  11.206 -0.1928 -0.2545 -0.0005
  327loPI   GL2 5222   3.254   0.270  11.034  0.0070  0.0252 -0.1610
  327loPI   C1A 5223   3.303  -0.101  10.757  0.4047 -0.2837 -0.3290
  327loPI   C2A 5224   3.224  -0.059  10.292  0.1164  0.0862 -0.1304
  327loPI   C3A 5225   3.185  -0.056   9.782 -0.0759  0.1332 -0.2106
  327loPI   C4A 5226   3.233  -0.121   9.382 -0.0935  0.1991  0.1975
  327loPI   C5A 5227   3.485  -0.403   9.031 -0.2619  0.0435  0.0612
  327loPI   C6A 5228   3.894  -0.497   8.926  0.1533  0.1213 -0.1726
  327loPI   C1B 5229   3.280   0.391  10.597 -0.3902 -0.0321 -0.2358
  327loPI   C2B 5230   3.340   0.434  10.139  0.2493  0.1577 -0.0384
  327loPI   C3B 5231   3.284   0.454   9.745 -0.0973  0.0471  0.1958
  327loPI   C4B 5232   3.135   0.349   9.331  0.4316  0.0558 -0.0535
  328loPI    C1 5233  14.687   7.531  11.814 -0.1127 -0.1578 -0.0551
  328loPI    C2 5234  14.549   7.244  12.055 -0.0707 -0.0733  0.0705
  328loPI    C3 5235  14.585   7.619  12.191 -0.1349 -0.0062 -0.0955
  328loPI   PO4 5236  14.721   7.473  11.650 -0.1059 -0.0510  0.0130
  328loPI   GL1 5237  14.651   7.631  11.240  0.0578  0.3015 -0.2447
  328loPI   GL2 5238  14.589   8.047  11.116 -0.0298  0.3199 -0.3107
  328loPI   C1A 5239  14.580   7.681  10.730  0.1372 -0.1254  0.4674
  328loPI   C2A 5240  14.622   7.696  10.281 -0.0584 -0.2913  0.0138
  328loPI   C3A 5241  14.565   7.642   9.893  0.0355 -0.2089 -0.1207
  328loPI   C4A 5242  14.489   7.590   9.531  0.1177  0.0573  0.0834
  328loPI   C5A 5243  14.634   7.512   9.119 -0.2226 -0.3022 -0.2899
  328loPI   C6A 5244  14.723   7.279   8.823 -0.0227 -0.0306  0.2010
  328loPI   C1B 5245  14.602   8.237  10.742  0.1934  0.2241 -0.1606
  328loPI   C2B 5246  14.670   8.185  10.276  0.0785 -0.1761 -0.0938
  328loPI   C3B 5247  14.642   8.110   9.752  0.2006  0.1773  0.2912
  328loPI   C4B 5248  14.767   8.028   9.367  0.4175 -0.0528  0.4671
  329loPI    C1 5249   5.022   9.475  11.705  0.0564  0.2410  0.3582
  329loPI    C2 5250   4.644   9.600  11.663 -0.0136 -0.0613  0.0397
  329loPI    C3 5251   4.887   9.780  11.926 -0.4046  0.0737  0.3173
  329loPI   PO4 5252   5.030   9.315  11.452 -0.2775  0.0361  0.0685
  329loPI   GL1 5253   4.797   9.154  11.218 -0.0855 -0.3796  0.0296
  329loPI   GL2 5254   4.993   9.055  10.983  0.2075 -0.1194 -0.2783
  329loPI   C1A 5255   4.602   9.309  10.818  0.0171  0.0195 -0.0523
  329loPI   C2A 5256   4.641   9.248  10.336 -0.0466 -0.1137 -0.1797
  329loPI   C3A 5257   4.699   9.181   9.935  0.1682 -0.0977  0.0781
  329loPI   C4A 5258   4.705   9.318   9.449  0.2885 -0.0379 -0.2141
  329loPI   C5A 5259   4.909   9.228   8.911  0.1320 -0.0416  0.1136
  329loPI   C6A 5260   5.052   8.930   8.431 -0.2076 -0.2405  0.0552
  329loPI   C1B 5261   5.007   8.863  10.501  0.2397 -0.0018 -0.0746
  329loPI   C2B 5262   5.077   8.902  10.046  0.4163  0.0020  0.1375
  329loPI   C3B 5263   5.121   8.978   9.598  0.1838 -0.0941 -0.2743
  329loPI   C4B 5264   5.015   8.911   9.233  0.1436 -0.2314 -0.0055
  330loPI    C1 5265   3.884  11.429  11.508 -0.0523 -0.0970  0.0863
  330loPI    C2 5266   3.542  11.584  11.646  0.0243  0.1969 -0.0436
  330loPI    C3 5267   3.833  11.826  11.518  0.2433 -0.0535 -0.0282
  330loPI   PO4 5268   3.814  11.275  11.322 -0.0805 -0.1887 -0.0067
  330loPI   GL1 5269   4.086  11.203  11.027  0.0327 -0.0946 -0.4186
  330loPI   GL2 5270   4.010  10.988  10.889 -0.2513  0.1987 -0.0311
  330loPI   C1A 5271   4.093  11.486  10.642  0.2547  0.0386  0.1731
  330loPI   C2A 5272   3.994  11.552  10.225  0.0704  0.2615 -0.0230
  330loPI   C3A 5273   4.138  11.463   9.921 -0.1722 -0.5030 -0.3334
  330loPI   C4A 5274   4.114  11.612   9.528 -0.1710  0.1515  0.1055
  330loPI   C5A 5275   3.969  11.489   9.078  0.0308 -0.1258  0.3617
  330loPI   C6A 5276   3.931  11.325   8.698  0.0064  0.1936 -0.3309
  330loPI   C1B 5277   4.053  11.001  10.466 -0.0389 -0.1828  0.0296
  330loPI   C2B 5278   4.037  10.989  10.033  0.3310 -0.4738 -0.3432
  330loPI   C3B 5279   4.002  11.107   9.569  0.1673  0.0825  0.1321
  330loPI   C4B 5280   3.997  11.008   9.079 -0.3818  0.2120 -0.1350
  331loPI    C1 5281   2.660  15.142  11.613 -0.0441 -0.2348  0.0093
  331loPI    C2 5282   2.771  15.345  11.939  0.0098  0.0180 -0.1634
  331loPI    C3 5283   2.406  15.182  11.919 -0.0241  0.0734 -0.0113
  331loPI   PO4 5284   2.766  15.260  11.406  0.0039 -0.1729  0.2884
  331loPI   GL1 5285   3.069  15.456  11.158  0.1248  0.0490  0.0335
  331loPI   GL2 5286   3.139  15.837  11.046 -0.0269  0.0484 -0.0187
  331loPI   C1A 5287   2.925  15.312  10.752  0.3093  0.0788 -0.0531
  331loPI   C2A 5288   2.880  15.342  10.329  0.0988 -0.0975 -0.0660
  331loPI   C3A 5289   2.870  15.387   9.925  0.2324 -0.0738 -0.0976
  331loPI   C4A 5290   2.940  15.383   9.525  0.2024 -0.1543  0.1032
  331loPI   C5A 5291   3.009  15.517   9.077  0.2008  0.2386  0.0305
  331loPI   C6A 5292   2.762  15.531   8.673  0.3327  0.0974  0.1520
  331loPI   C1B 5293   3.014  15.763  10.686 -0.0109  0.0823  0.2358
  331loPI   C2B 5294   2.923  15.841  10.342  0.2156 -0.0019  0.2460
  331loPI   C3B 5295   2.955  15.935   9.906  0.1410 -0.2744  0.1847
  331loPI   C4B 5296   2.998  15.938   9.414 -0.1325  0.0447 -0.1887
  332loPI    C1 5297  16.417   3.506  11.942 -0.1461 -0.1500 -0.0410
  332loPI    C2 5298  16.676   3.213  11.856  0.1175 -0.0610  0.4120
  332loPI    C3 5299  16.440   3.183  12.177 -0.1679  0.0325  0.2158
  332loPI   PO4 5300  16.407   3.577  11.629 -0.2867 -0.1374  0.1931
  332loPI   GL1 5301  16.536   3.573  11.271 -0.0025  0.0890 -0.0992
  332loPI   GL2 5302  16.286   3.478  11.093 -0.0237  0.1470 -0.1825
  332loPI   C1A 5303  16.784   3.619  10.856  0.2599 -0.1122  0.0896
  332loPI   C2A 5304  16.787   3.578  10.446  0.0203 -0.0055 -0.1688
  332loPI   C3A 5305  16.758   3.704   9.982 -0.1159 -0.3691 -0.0186
  332loPI   C4A 5306  16.757   3.547   9.592  0.5044 -0.3558  0.0248
  332loPI   C5A 5307  16.661   3.601   9.177 -0.2156  0.0811 -0.0185
  332loPI   C6A 5308  16.838   3.623   8.843  0.3444 -0.0989 -0.0573
  332loPI   C1B 5309  16.344   3.528  10.676 -0.1185  0.0053  0.0993
  332loPI   C2B 5310  16.285   3.545  10.286  0.0323  0.3948  0.0255
  332loPI   C3B 5311  16.239   3.412   9.829  0.2884  0.2122 -0.0098
  332loPI   C4B 5312  16.218   3.442   9.361  0.0337  0.0416  0.0307
  333loPI    C1 5313  11.144  10.598  10.996  0.3875  0.0824 -0.2166
  333loPI    C2 5314  11.049  10.376  11.315  0.2852 -0.0348 -0.3273
  333loPI    C3 5315  11.354  10.634  11.334  0.2918 -0.0551 -0.1415
  333loPI   PO4 5316  10.766  10.608  10.898 -0.0542 -0.0099 -0.1143
  333loPI   GL1 5317  10.395  10.648  10.619 -0.0990 -0.0700  0.1340
  333loPI   GL2 5318  10.630  10.751  10.327 -0.1314 -0.0365 -0.1875
  333loPI   C1A 5319  10.125  10.513  10.281  0.1900  0.0797  0.1912
  333loPI   C2A 5320  10.342  10.657   9.892  0.0842 -0.1278  0.1848
  333loPI   C3A 5321  10.548  10.646   9.491 -0.0235 -0.0269  0.2888
  333loPI   C4A 5322  10.250  10.501   9.119  0.1338 -0.1283 -0.0346
  333loPI   C5A 5323   9.817  10.433   9.240 -0.0549  0.0505 -0.2087
  333loPI   C6A 5324   9.568  10.703   9.471 -0.0080  0.0439  0.0911
  333loPI   C1B 5325  10.861  10.905   9.996  0.0813 -0.0844 -0.1832
  333loPI   C2B 5326  11.015  10.709   9.709  0.0390  0.3106  0.1486
  333loPI   C3B 5327  11.015  10.572   9.385 -0.1228  0.1208 -0.0833
  333loPI   C4B 5328  10.825  10.577   8.992 -0.0094  0.0024  0.0189
  334loPI    C1 5329   7.918  16.475  11.431  0.0319  0.0772 -0.0690
  334loPI    C2 5330   8.005  16.847  11.550  0.2214 -0.0053  0.0553
  334loPI    C3 5331   8.053  16.540  11.802 -0.1313 -0.0922  0.0217
  334loPI   PO4 5332   7.973  16.427  11.230 -0.0438 -0.0479  0.1914
  334loPI   GL1 5333   8.176  16.723  10.983  0.1242  0.0087 -0.0310
  334loPI   GL2 5334   8.511  16.910  10.967  0.0175  0.0413 -0.1724
  334loPI   C1A 5335   8.113  16.824  10.597 -0.0453  0.0064 -0.1203
  334loPI   C2A 5336   8.236  16.839  10.136 -0.1411  0.4037 -0.2783
  334loPI   C3A 5337   8.216  16.940   9.737  0.4657  0.2694  0.2654
  334loPI   C4A 5338   8.118  16.889   9.347 -0.1126  0.1799 -0.0854
  334loPI   C5A 5339   7.812  17.096   9.109 -0.0162 -0.0903 -0.0751
  334loPI   C6A 5340   7.459  17.250   8.873 -0.6753 -0.0898  0.0803
  334loPI   C1B 5341   8.776  16.969  10.760  0.0038 -0.0372  0.3012
  334loPI   C2B 5342   8.769  17.044  10.398  0.1848  0.2144 -0.2041
  334loPI   C3B 5343   8.679  17.075   9.910 -0.0916 -0.2594 -0.1918
  334loPI   C4B 5344   8.721  17.119   9.548 -0.1326  0.0200  0.1550
  335loPI    C1 5345  15.946   9.115  11.401  0.2341 -0.1135  0.0256
  335loPI    C2 5346  15.830   9.140  11.783  0.2091  0.0474  0.0082
  335loPI    C3 5347  16.219   9.161  11.689  0.2152  0.0103  0.0246
  335loPI   PO4 5348  15.865   9.211  11.169 -0.2119 -0.0360  0.0810
  335loPI   GL1 5349  15.841   9.222  10.739  0.0698 -0.2517 -0.2449
  335loPI   GL2 5350  15.774   9.589  10.687 -0.2590 -0.0098 -0.1373
  335loPI   C1A 5351  15.836   9.225  10.308 -0.0138  0.2973 -0.0539
  335loPI   C2A 5352  15.900   9.045   9.865 -0.0509 -0.3203  0.1627
  335loPI   C3A 5353  15.734   8.915   9.506 -0.1609 -0.4682 -0.0400
  335loPI   C4A 5354  15.757   8.832   9.096  0.0640  0.2521  0.0986
  335loPI   C5A 5355  15.639   8.909   8.734 -0.0241 -0.0579  0.1138
  335loPI   C6A 5356  15.447   9.107   8.480  0.1349  0.0720 -0.2350
  335loPI   C1B 5357  15.683   9.734  10.314 -0.3537  0.1352  0.0748
  335loPI   C2B 5358  15.780   9.493   9.916  0.0135 -0.0337  0.1358
  335loPI   C3B 5359  15.819   9.398   9.475 -0.0378 -0.2189 -0.2599
  335loPI   C4B 5360  16.181   9.091   9.435 -0.3955 -0.1164 -0.0865
  336loPI    C1 5361   2.204   7.074  11.346 -0.0548  0.2292  0.0822
  336loPI    C2 5362   2.416   7.385  11.482 -0.0989  0.1840  0.2569
  336loPI    C3 5363   2.307   7.093  11.732  0.0545 -0.0384  0.0682
  336loPI   PO4 5364   2.297   6.986  11.112 -0.2748  0.1694  0.1708
  336loPI   GL1 5365   2.348   7.050  10.641  0.0644  0.3981  0.2453
  336loPI   GL2 5366   2.530   7.382  10.521  0.0316  0.0325  0.1882
  336loPI   C1A 5367   2.553   6.821  10.245  0.1319  0.1585  0.0561
  336loPI   C2A 5368   2.432   6.813   9.778 -0.2645 -0.2918  0.1458
  336loPI   C3A 5369   2.516   6.874   9.336  0.0387 -0.1494 -0.3929
  336loPI   C4A 5370   2.403   6.835   8.911 -0.0158 -0.0137 -0.2618
  336loPI   C5A 5371   2.612   6.652   8.703 -0.1645  0.2855  0.0670
  336loPI   C6A 5372   2.933   6.618   8.537 -0.2168  0.1291 -0.1293
  336loPI   C1B 5373   2.558   7.470  10.188  0.1055  0.2053  0.2844
  336loPI   C2B 5374   2.477   7.314   9.782 -0.0653  0.1563 -0.0161
  336loPI   C3B 5375   2.611   7.360   9.472  0.0540  0.0053  0.1044
  336loPI   C4B 5376   2.533   7.486   9.046  0.1157 -0.0419  0.2741
  337loPI    C1 5377   5.789   2.622  11.508  0.0529  0.1078 -0.0129
  337loPI    C2 5378   6.102   2.708  11.741  0.1208 -0.1112 -0.0213
  337loPI    C3 5379   5.737   2.835  11.842  0.2059  0.1164  0.0061
  337loPI   PO4 5380   5.904   2.406  11.363 -0.0937 -0.1438  0.2051
  337loPI   GL1 5381   5.789   2.354  10.969 -0.0808 -0.0928 -0.1889
  337loPI   GL2 5382   5.584   2.095  10.889 -0.2204  0.2720  0.1188
  337loPI   C1A 5383   5.900   2.320  10.486  0.0218 -0.0760  0.1419
  337loPI   C2A 5384   5.802   2.293  10.052  0.1312 -0.0588 -0.0054
  337loPI   C3A 5385   5.914   2.340   9.514  0.3995  0.2791 -0.2291
  337loPI   C4A 5386   5.861   2.393   9.078  0.0754  0.1229 -0.3944
  337loPI   C5A 5387   5.659   2.783   8.941  0.1220 -0.1039 -0.1196
  337loPI   C6A 5388   5.446   3.112   9.116 -0.0813 -0.0903  0.2192
  337loPI   C1B 5389   5.405   2.156  10.533  0.0246  0.2030  0.2635
  337loPI   C2B 5390   5.356   2.147  10.089 -0.1219  0.0088  0.1827
  337loPI   C3B 5391   5.319   2.161   9.629 -0.0291  0.0495  0.1823
  337loPI   C4B 5392   5.407   2.196   9.196 -0.2961 -0.0760  0.0301
  338loPI    C1 5393  14.206  14.699  11.528 -0.0570 -0.1006  0.0301
  338loPI    C2 5394  14.216  14.307  11.608  0.0378 -0.1326 -0.1336
  338loPI    C3 5395  14.448  14.559  11.814  0.1216 -0.1872 -0.1607
  338loPI   PO4 5396  14.221  14.739  11.231  0.0740  0.2350 -0.1228
  338loPI   GL1 5397  14.395  14.710  10.882 -0.1747 -0.1948 -0.0980
  338loPI   GL2 5398  14.138  14.899  10.701 -0.3973  0.0107 -0.2313
  338loPI   C1A 5399  14.185  14.510  10.461 -0.1335  0.1253 -0.0309
  338loPI   C2A 5400  14.014  14.594  10.065 -0.0582  0.1612 -0.1688
  338loPI   C3A 5401  14.010  14.544   9.626 -0.3938 -0.3243 -0.0744
  338loPI   C4A 5402  13.908  14.690   9.240  0.2977  0.1180 -0.3588
  338loPI   C5A 5403  13.703  14.907   8.895 -0.2295  0.1449  0.0825
  338loPI   C6A 5404  13.357  15.240   8.859  0.4638  0.0683 -0.0602
  338loPI   C1B 5405  14.275  15.005  10.283  0.1088 -0.1844  0.0251
  338loPI   C2B 5406  14.045  15.191   9.958 -0.1080 -0.1288  0.0877
  338loPI   C3B 5407  13.827  15.382   9.881 -0.0542 -0.2941  0.1762
  338loPI   C4B 5408  13.577  15.611   9.634 -0.7071 -0.1977  0.0803
  339loPI    C1 5409   6.048  10.747  11.310  0.0911  0.0008  0.1019
  339loPI    C2 5410   5.765  10.978  11.473  0.1637 -0.0061  0.2384
  339loPI    C3 5411   5.873  10.636  11.652 -0.0512 -0.2246 -0.0415
  339loPI   PO4 5412   6.095  10.711  11.102  0.3151  0.0728  0.1204
  339loPI   GL1 5413   5.742  10.545  10.784 -0.1906  0.4716  0.2954
  339loPI   GL2 5414   5.962  10.599  10.556  0.0004  0.4948  0.2191
  339loPI   C1A 5415   5.496  10.433  10.437  0.4549 -0.0164  0.3191
  339loPI   C2A 5416   5.265  10.430  10.084  0.3018  0.1794  0.0094
  339loPI   C3A 5417   5.322  10.494   9.647 -0.0447 -0.1353  0.1114
  339loPI   C4A 5418   5.302  10.571   9.152 -0.0781 -0.0719 -0.2081
  339loPI   C5A 5419   5.280  10.773   8.736  0.1009 -0.1379  0.2638
  339loPI   C6A 5420   5.402  10.910   8.388  0.1805  0.3140  0.3174
  339loPI   C1B 5421   5.855  10.717  10.203  0.3856 -0.0563 -0.2380
  339loPI   C2B 5422   5.789  10.666   9.822  0.1922 -0.1536 -0.2598
  339loPI   C3B 5423   5.816  10.591   9.394  0.1065 -0.0477 -0.1637
  339loPI   C4B 5424   5.789  10.765   8.992 -0.2819 -0.0914  0.0192
  340loPI    C1 5425   6.711   9.086  11.197 -0.3531  0.0315 -0.0349
  340loPI    C2 5426   6.913   8.770  11.337 -0.3119  0.0264 -0.1051
  340loPI    C3 5427   6.667   8.973  11.579 -0.0434  0.1764  0.0472
  340loPI   PO4 5428   6.927   9.066  10.920  0.0437  0.0807 -0.0055
  340loPI   GL1 5429   7.187   9.261  10.605 -0.1719  0.1925 -0.1304
  340loPI   GL2 5430   6.981   9.134  10.381  0.1111 -0.0180  0.1176
  340loPI   C1A 5431   7.102   9.659  10.334  0.0020  0.0073  0.2508
  340loPI   C2A 5432   7.161   9.680   9.891 -0.2786  0.0051 -0.1071
  340loPI   C3A 5433   7.096   9.613   9.415  0.1264  0.3739  0.0065
  340loPI   C4A 5434   7.039   9.584   8.984  0.0860  0.1178  0.1357
  340loPI   C5A 5435   6.791   9.620   8.570  0.1134 -0.0796 -0.1980
  340loPI   C6A 5436   6.655   9.695   8.163 -0.0154 -0.0009 -0.1987
  340loPI   C1B 5437   7.095   9.114  10.011 -0.1871 -0.4799  0.3465
  340loPI   C2B 5438   6.985   9.092   9.488 -0.2033  0.0621 -0.0900
  340loPI   C3B 5439   6.911   8.979   9.060 -0.0889 -0.3979  0.1279
  340loPI   C4B 5440   6.959   9.178   8.645  0.1892  0.1472  0.0380
  341loPI    C1 5441  17.295   6.104  11.662  0.0545 -0.2071 -0.0070
  341loPI    C2 5442  17.101   5.911  11.953 -0.1542 -0.0344 -0.0290
  341loPI    C3 5443  17.337   6.221  12.042 -0.0876 -0.0854 -0.0275
  341loPI   PO4 5444  17.338   5.857  11.472 -0.0983  0.0266 -0.1151
  341loPI   GL1 5445  17.344   5.816  11.076  0.4011 -0.2470  0.2554
  341loPI   GL2 5446  17.625   5.797  10.889 -0.1387 -0.0579  0.2438
  341loPI   C1A 5447  17.103   5.682  10.709  0.0376 -0.1694 -0.2842
  341loPI   C2A 5448  17.083   5.618  10.357 -0.0350 -0.3117 -0.1374
  341loPI   C3A 5449  17.148   5.672  10.011  0.1868  0.1282  0.3225
  341loPI   C4A 5450  17.116   5.642   9.488 -0.0669 -0.0638 -0.0094
  341loPI   C5A 5451  16.866   5.863   9.145 -0.2919  0.0059 -0.1508
  341loPI   C6A 5452  16.913   5.901   8.661  0.1345 -0.2197 -0.0208
  341loPI   C1B 5453  17.613   5.853  10.449  0.0187 -0.0699 -0.1984
  341loPI   C2B 5454  17.583   5.768  10.031  0.1088 -0.0694 -0.0520
  341loPI   C3B 5455  17.563   5.846   9.662 -0.2051 -0.0724  0.0219
  341loPI   C4B 5456  17.546   5.759   9.213  0.0074  0.2618 -0.1572
  342loPI    C1 5457   0.551   5.659  11.728 -0.0201  0.1629 -0.0660
  342loPI    C2 5458   0.922   5.750  11.850 -0.1070  0.2146  0.1653
  342loPI    C3 5459   0.632   5.691  12.119 -0.1745 -0.2331  0.0032
  342loPI   PO4 5460   0.646   5.533  11.379 -0.4160  0.0894  0.0370
  342loPI   GL1 5461   0.522   5.619  11.008 -0.2060 -0.1089 -0.1889
  342loPI   GL2 5462   0.686   5.262  10.887  0.0008  0.2665  0.0536
  342loPI   C1A 5463   0.470   5.505  10.527 -0.0898 -0.0248 -0.2415
  342loPI   C2A 5464   0.479   5.473  10.079 -0.0659 -0.0534 -0.0491
  342loPI   C3A 5465   0.420   5.578   9.611 -0.0437  0.1034  0.4536
  342loPI   C4A 5466   0.544   5.601   9.152  0.0547 -0.3465  0.0301
  342loPI   C5A 5467   0.750   5.395   8.847  0.1984  0.1808  0.0558
  342loPI   C6A 5468   0.774   5.351   8.388  0.1101 -0.0354 -0.2794
  342loPI   C1B 5469   0.834   5.211  10.541 -0.1501  0.3272 -0.0867
  342loPI   C2B 5470   0.838   5.094  10.202 -0.4160 -0.0140  0.0593
  342loPI   C3B 5471   0.897   5.232   9.695 -0.3172 -0.2119 -0.0725
  342loPI   C4B 5472   0.802   5.151   9.286 -0.0122 -0.1158 -0.2384
  343loPI    C1 5473  11.322   7.837  11.424  0.1391  0.0623 -0.0877
  343loPI    C2 5474  11.719   7.788  11.407  0.1378  0.0554 -0.1000
  343loPI    C3 5475  11.560   8.034  11.679  0.1399 -0.0686  0.0146
  343loPI   PO4 5476  11.265   7.803  11.153  0.1574 -0.1090 -0.0875
  343loPI   GL1 5477  11.278   8.034  10.874  0.3150 -0.0660  0.1276
  343loPI   GL2 5478  11.491   8.406  10.846 -0.1154 -0.2332  0.1332
  343loPI   C1A 5479  11.327   8.054  10.416 -0.2224 -0.1332  0.0058
  343loPI   C2A 5480  11.374   7.990   9.924  0.0388 -0.1561  0.2409
  343loPI   C3A 5481  11.334   7.946   9.516  0.2555  0.3315 -0.3581
  343loPI   C4A 5482  11.271   7.936   9.075 -0.2373 -0.0508 -0.0967
  343loPI   C5A 5483  11.517   7.866   8.810 -0.0377 -0.1135 -0.1983
  343loPI   C6A 5484  11.648   7.647   8.524  0.0782  0.0485  0.0191
  343loPI   C1B 5485  11.448   8.531  10.471  0.0338 -0.0944  0.2344
  343loPI   C2B 5486  11.459   8.476  10.019 -0.0480 -0.1961  0.1429
  343loPI   C3B 5487  11.545   8.370   9.625  0.1040  0.0207 -0.3635
  343loPI   C4B 5488  11.398   8.398   9.185 -0.0271  0.0760 -0.2237
  344loPI    C1 5489   6.836   0.570  11.251  0.0943 -0.0853 -0.0505
  344loPI    C2 5490   6.781   0.465  11.633 -0.2290  0.1625 -0.0253
  344loPI    C3 5491   6.657   0.224  11.340  0.2569 -0.1531  0.0179
  344loPI   PO4 5492   6.717   0.846  11.257 -0.1164  0.1136  0.1878
  344loPI   GL1 5493   6.510   1.107  11.004 -0.2309 -0.0196  0.1122
  344loPI   GL2 5494   6.257   1.030  10.921 -0.3904  0.3112  0.1076
  344loPI   C1A 5495   6.703   1.119  10.608 -0.0614  0.0866 -0.2395
  344loPI   C2A 5496   6.628   1.220  10.267 -0.0347  0.3059  0.2436
  344loPI   C3A 5497   6.664   1.158   9.838 -0.0418  0.4008  0.0707
  344loPI   C4A 5498   6.738   1.203   9.424 -0.2359 -0.1874  0.0262
  344loPI   C5A 5499   6.773   1.205   9.046  0.2507  0.3779  0.2714
  344loPI   C6A 5500   6.643   1.066   8.621 -0.1423  0.1275  0.0539
  344loPI   C1B 5501   6.129   1.007  10.555  0.2478  0.0698  0.0297
  344loPI   C2B 5502   6.072   0.983  10.200 -0.0039 -0.3710 -0.5407
  344loPI   C3B 5503   6.197   0.966   9.819 -0.1958  0.0525  0.1280
  344loPI   C4B 5504   6.189   1.043   9.371 -0.0953 -0.1020 -0.0450
  345loPI    C1 5505   5.875   4.609  11.570 -0.3410 -0.0364 -0.0068
  345loPI    C2 5506   5.720   4.887  11.812 -0.0258  0.0326  0.1207
  345loPI    C3 5507   5.856   4.543  11.964 -0.0887 -0.0438  0.0055
  345loPI   PO4 5508   5.982   4.710  11.400 -0.2051 -0.0955 -0.1906
  345loPI   GL1 5509   5.920   4.434  11.088  0.2220  0.3353 -0.0325
  345loPI   GL2 5510   5.745   4.163  10.909 -0.1337 -0.1127 -0.1368
  345loPI   C1A 5511   6.132   4.478  10.673  0.1505  0.1340  0.2146
  345loPI   C2A 5512   6.121   4.479  10.271  0.2206 -0.2338 -0.0311
  345loPI   C3A 5513   6.234   4.467   9.936  0.1169  0.0197  0.1845
  345loPI   C4A 5514   6.314   4.586   9.446  0.2059  0.0339  0.0411
  345loPI   C5A 5515   6.354   4.586   9.046  0.2181 -0.3557  0.3354
  345loPI   C6A 5516   6.377   4.732   8.559 -0.0770 -0.3302 -0.2047
  345loPI   C1B 5517   5.710   4.236  10.484  0.0174 -0.2972 -0.0851
  345loPI   C2B 5518   5.634   4.249  10.070  0.3119  0.0306  0.2993
  345loPI   C3B 5519   5.729   4.181   9.601  0.1583  0.1981  0.1748
  345loPI   C4B 5520   5.912   4.268   9.219  0.2606  0.1228 -0.1009
  346loPI    C1 5521   3.301  10.273  11.616  0.0761 -0.0233 -0.1048
  346loPI    C2 5522   3.117   9.933  11.719  0.0971  0.0008  0.0138
  346loPI    C3 5523   2.941  10.286  11.790  0.0116  0.0111 -0.2399
  346loPI   PO4 5524   3.377  10.282  11.319  0.1649  0.3095 -0.2731
  346loPI   GL1 5525   3.297  10.499  10.986 -0.0369 -0.1501 -0.1983
  346loPI   GL2 5526   3.145  10.640  10.866 -0.0990 -0.0212  0.0951
  346loPI   C1A 5527   3.445  10.213  10.697  0.2167 -0.1021  0.0695
  346loPI   C2A 5528   3.444  10.120  10.239  0.0730  0.1442 -0.3098
  346loPI   C3A 5529   3.431  10.300   9.824  0.1322 -0.1035  0.1954
  346loPI   C4A 5530   3.415  10.359   9.461 -0.2904 -0.0374 -0.0965
  346loPI   C5A 5531   3.339  10.379   9.039 -0.0151  0.2626 -0.2502
  346loPI   C6A 5532   3.116  10.153   8.726  0.3030 -0.0631  0.0437
  346loPI   C1B 5533   3.043  10.422  10.493 -0.2289  0.1066  0.0207
  346loPI   C2B 5534   3.071  10.462  10.077  0.3220  0.1214  0.0433
  346loPI   C3B 5535   3.034  10.583   9.703 -0.0404 -0.0613  0.0437
  346loPI   C4B 5536   3.075  10.688   9.296  0.0754 -0.4436 -0.1054
  347loPI    C1 5537  11.485  10.056  11.278 -0.0367 -0.1676 -0.0500
  347loPI    C2 5538  11.249   9.756  11.158 -0.1105 -0.1373  0.0177
  347loPI    C3 5539  11.175   9.943  11.504 -0.2307  0.1411 -0.1553
  347loPI   PO4 5540  11.452  10.233  11.042  0.1690  0.0788  0.2076
  347loPI   GL1 5541  11.450   9.991  10.755 -0.1074  0.4097  0.1564
  347loPI   GL2 5542  11.594   9.718  10.810  0.0828  0.1153 -0.2886
  347loPI   C1A 5543  11.335  10.015  10.399 -0.1504  0.0074 -0.0732
  347loPI   C2A 5544  11.417   9.982  10.076 -0.3744  0.0941  0.1490
  347loPI   C3A 5545  11.273   9.893   9.688 -0.0708  0.0180  0.2644
  347loPI   C4A 5546  11.317   9.685   9.332  0.0764  0.0314 -0.0767
  347loPI   C5A 5547  11.300   9.814   8.940  0.1130  0.0333 -0.0829
  347loPI   C6A 5548  11.514   9.755   8.539  0.1537 -0.3388 -0.1208
  347loPI   C1B 5549  11.639   9.551  10.236  0.4105  0.1782  0.5296
  347loPI   C2B 5550  11.693   9.660   9.878  0.0806 -0.0095 -0.1112
  347loPI   C3B 5551  11.744   9.422   9.465  0.2151 -0.3053 -0.2242
  347loPI   C4B 5552  11.699   9.465   9.028  0.1259 -0.0393 -0.0914
  348loPI    C1 5553   9.889   2.571  11.909  0.2855 -0.0347  0.3148
  348loPI    C2 5554   9.599   2.388  12.116  0.2005  0.1143  0.3289
  348loPI    C3 5555   9.885   2.172  11.939 -0.1623 -0.0670 -0.0532
  348loPI   PO4 5556   9.801   2.613  11.725  0.0832 -0.2146 -0.0749
  348loPI   GL1 5557   9.938   2.832  11.272  0.1257  0.1551  0.0222
  348loPI   GL2 5558   9.766   2.578  11.211  0.2318 -0.2135 -0.0817
  348loPI   C1A 5559   9.819   2.773  10.805 -0.0277 -0.4377  0.1244
  348loPI   C2A 5560   9.693   2.709  10.344 -0.0812 -0.2554  0.3239
  348loPI   C3A 5561   9.694   2.873   9.960 -0.0613  0.0208  0.1126
  348loPI   C4A 5562   9.644   2.814   9.524  0.1057 -0.0074  0.3096
  348loPI   C5A 5563   9.573   2.792   9.159 -0.1198 -0.3045  0.4912
  348loPI   C6A 5564   9.449   2.434   8.950  0.0697  0.0122  0.2594
  348loPI   C1B 5565   9.562   2.313  10.826 -0.0811 -0.0789  0.1002
  348loPI   C2B 5566   9.637   2.234  10.298 -0.0399 -0.1765  0.2671
  348loPI   C3B 5567   9.591   2.341   9.843 -0.0955 -0.1837 -0.1651
  348loPI   C4B 5568   9.615   2.354   9.436  0.1684  0.2280 -0.1730
  349loPI    C1 5569   3.011  16.655  11.630  0.0753  0.2991 -0.0147
  349loPI    C2 5570   2.726  16.466  11.838  0.3530 -0.0625  0.0472
  349loPI    C3 5571   2.911  16.784  11.995  0.1384  0.0396  0.0966
  349loPI   PO4 5572   2.938  16.671  11.417  0.1150 -0.0531 -0.0958
  349loPI   GL1 5573   3.069  16.844  11.089 -0.0708  0.1389  0.0191
  349loPI   GL2 5574   3.357  17.012  11.148  0.3797  0.0481 -0.0565
  349loPI   C1A 5575   3.175  16.954  10.702 -0.1434 -0.1545  0.3523
  349loPI   C2A 5576   3.074  17.003  10.170  0.0743  0.1448  0.0408
  349loPI   C3A 5577   3.173  16.919   9.642 -0.2150  0.1897  0.2838
  349loPI   C4A 5578   3.135  16.857   9.277 -0.0610 -0.1697 -0.0782
  349loPI   C5A 5579   3.281  16.626   8.866  0.1170 -0.0613  0.1268
  349loPI   C6A 5580   3.498  16.800   8.604 -0.1580 -0.2264  0.1134
  349loPI   C1B 5581   3.636  17.071  10.789  0.1364  0.0424 -0.5210
  349loPI   C2B 5582   3.589  17.153  10.418  0.3545 -0.1206  0.0944
  349loPI   C3B 5583   3.612  17.224   9.979  0.1175  0.0901  0.0699
  349loPI   C4B 5584   3.647  17.179   9.517  0.0631  0.5337  0.1766
  350loPI    C1 5585   2.824   9.013  11.429 -0.0335 -0.1903 -0.0337
  350loPI    C2 5586   3.168   9.050  11.630 -0.1476  0.0485  0.1217
  350loPI    C3 5587   2.821   9.042  11.828 -0.2633  0.3119 -0.0651
  350loPI   PO4 5588   2.959   9.120  11.094  0.1953 -0.1017 -0.3176
  350loPI   GL1 5589   3.216   9.001  10.854 -0.0857  0.1219 -0.0031
  350loPI   GL2 5590   3.257   8.618  10.775 -0.0518 -0.0473  0.0325
  350loPI   C1A 5591   3.269   9.208  10.440 -0.0177 -0.1210  0.1625
  350loPI   C2A 5592   3.334   9.175  10.027  0.0999  0.2358  0.0027
  350loPI   C3A 5593   3.329   9.177   9.603  0.1127 -0.2299  0.2562
  350loPI   C4A 5594   3.333   9.252   9.185  0.1102  0.0106  0.0055
  350loPI   C5A 5595   3.290   8.952   8.910 -0.0992 -0.2327 -0.4719
  350loPI   C6A 5596   3.162   8.509   8.785 -0.1788  0.0734  0.6139
  350loPI   C1B 5597   3.181   8.706  10.455 -0.0315  0.3691  0.0862
  350loPI   C2B 5598   3.201   8.663  10.002  0.0993 -0.2083 -0.1239
  350loPI   C3B 5599   3.186   8.705   9.575  0.1181  0.1830  0.0738
  350loPI   C4B 5600   3.275   8.576   9.223 -0.3685 -0.1068  0.2628
  351loPI    C1 5601  13.862  13.163  11.421  0.0537  0.1792  0.0505
  351loPI    C2 5602  14.209  13.259  11.595  0.0603 -0.0315  0.1578
  351loPI    C3 5603  14.144  12.884  11.471 -0.1380  0.0013  0.1587
  351loPI   PO4 5604  13.833  13.369  11.229  0.0419 -0.1750  0.1351
  351loPI   GL1 5605  13.925  13.493  10.900  0.2095  0.1177 -0.3038
  351loPI   GL2 5606  14.134  13.788  10.916 -0.1441  0.1888  0.1439
  351loPI   C1A 5607  13.873  13.202  10.547 -0.1104 -0.1087  0.2006
  351loPI   C2A 5608  13.903  13.191  10.061 -0.0111 -0.0184 -0.0623
  351loPI   C3A 5609  13.854  13.386   9.727  0.2289  0.2265  0.0058
  351loPI   C4A 5610  13.391  13.267   9.536  0.1631 -0.0664  0.0740
  351loPI   C5A 5611  13.270  13.278   9.243 -0.1902  0.1121 -0.0795
  351loPI   C6A 5612  13.044  13.531   8.909 -0.6317  0.4075 -0.0516
  351loPI   C1B 5613  14.261  14.065  10.721  0.0101 -0.0773  0.0615
  351loPI   C2B 5614  14.204  14.074  10.276 -0.0638  0.1942  0.1861
  351loPI   C3B 5615  14.160  14.090   9.813  0.0410  0.0643 -0.2841
  351loPI   C4B 5616  14.224  14.127   9.396 -0.2744  0.0443  0.1490
  352loPI    C1 5617   6.345   0.225  11.813  0.1134 -0.0692  0.1970
  352loPI    C2 5618   6.118   0.333  12.125  0.0740  0.2710  0.0541
  352loPI    C3 5619   6.326   0.609  11.923 -0.0364  0.0818 -0.3280
  352loPI   PO4 5620   6.192   0.088  11.617 -0.0183  0.0119 -0.0586
  352loPI   GL1 5621   6.096   0.099  11.165  0.0288 -0.1451  0.1758
  352loPI   GL2 5622   6.306  -0.030  11.017 -0.1566 -0.3032 -0.1463
  352loPI   C1A 5623   5.901   0.025  10.717 -0.0098 -0.0451  0.3570
  352loPI   C2A 5624   5.887  -0.032  10.309  0.1282  0.0688 -0.0811
  352loPI   C3A 5625   6.083  -0.049   9.919  0.2564  0.0083  0.3704
  352loPI   C4A 5626   6.018   0.027   9.488  0.4809 -0.0860 -0.0944
  352loPI   C5A 5627   6.004   0.035   8.951 -0.2112 -0.0886 -0.0279
  352loPI   C6A 5628   5.764  -0.212   8.633 -0.1857 -0.2200 -0.0106
  352loPI   C1B 5629   6.358   0.108  10.532 -0.2811  0.1609 -0.0221
  352loPI   C2B 5630   6.551   0.124  10.133  0.4415  0.2650  0.0466
  352loPI   C3B 5631   6.539   0.201   9.688 -0.0144  0.0214 -0.4175
  352loPI   C4B 5632   6.480   0.188   9.290  0.1225 -0.1908 -0.0004
  353loPI    C1 5633   3.422  15.041  11.447  0.0001  0.1061  0.0112
  353loPI    C2 5634   3.161  15.203  11.703 -0.2336  0.0788 -0.2062
  353loPI    C3 5635   3.441  15.431  11.532 -0.1499  0.1200 -0.0163
  353loPI   PO4 5636   3.301  14.789  11.357  0.0383  0.3985 -0.0522
  353loPI   GL1 5637   3.019  14.869  11.013  0.0891 -0.1480  0.0195
  353loPI   GL2 5638   3.272  15.029  10.942  0.1441  0.0702  0.0360
  353loPI   C1A 5639   3.225  14.582  10.702  0.1765  0.0346  0.0600
  353loPI   C2A 5640   3.267  14.461  10.296  0.1386 -0.2374  0.1507
  353loPI   C3A 5641   3.267  14.474   9.842  0.2064 -0.3034  0.3661
  353loPI   C4A 5642   3.243  14.586   9.353 -0.1989 -0.4539  0.0543
  353loPI   C5A 5643   3.576  14.645   9.041 -0.0238  0.1115 -0.1130
  353loPI   C6A 5644   3.908  14.919   8.843  0.1111 -0.1032  0.0488
  353loPI   C1B 5645   3.293  15.058  10.522  0.0790  0.0266  0.1033
  353loPI   C2B 5646   3.384  14.893  10.042 -0.0513 -0.1824 -0.2481
  353loPI   C3B 5647   3.249  15.014   9.677  0.0567 -0.0646  0.2187
  353loPI   C4B 5648   3.416  15.166   9.227 -0.1666 -0.0567  0.0692
  354loPI    C1 5649   2.873  13.017  11.456  0.2309  0.1294  0.0639
  354loPI    C2 5650   2.826  13.386  11.309 -0.2834  0.0464  0.0014
  354loPI    C3 5651   2.650  13.284  11.654 -0.1191 -0.1326  0.0341
  354loPI   PO4 5652   3.150  12.927  11.292  0.1086  0.2686 -0.2107
  354loPI   GL1 5653   3.264  12.834  10.899  0.1599 -0.0889 -0.0579
  354loPI   GL2 5654   2.999  13.110  10.827  0.0762  0.1141 -0.1228
  354loPI   C1A 5655   3.356  12.648  10.585  0.1459  0.3381 -0.3944
  354loPI   C2A 5656   3.256  12.669  10.282 -0.0013 -0.2334 -0.1075
  354loPI   C3A 5657   3.376  12.658   9.838  0.2022 -0.4258  0.1092
  354loPI   C4A 5658   3.395  12.770   9.349 -0.0712 -0.2671 -0.3230
  354loPI   C5A 5659   3.681  12.798   8.912  0.0280 -0.1196 -0.1597
  354loPI   C6A 5660   3.926  12.809   8.475 -0.1591  0.1446 -0.2741
  354loPI   C1B 5661   2.891  12.890  10.447  0.0515 -0.1179 -0.2184
  354loPI   C2B 5662   2.905  12.997   9.965  0.2103  0.1034 -0.1215
  354loPI   C3B 5663   3.018  12.999   9.600  0.2334 -0.3025  0.4492
  354loPI   C4B 5664   3.104  13.122   9.187  0.1669  0.2895 -0.2056
  355loPI    C1 5665   2.756  12.467  11.569  0.0485  0.1158 -0.1021
  355loPI    C2 5666   2.469  12.361  11.311  0.2143 -0.1142 -0.1950
  355loPI    C3 5667   2.397  12.355  11.705  0.0582 -0.0641 -0.2221
  355loPI   PO4 5668   2.950  12.459  11.371 -0.3450 -0.0597 -0.0121
  355loPI   GL1 5669   2.988  12.365  11.027 -0.2743 -0.0022  0.2628
  355loPI   GL2 5670   3.196  12.328  10.937  0.1352  0.2280 -0.1120
  355loPI   C1A 5671   2.854  12.409  10.611  0.1850  0.3360  0.3022
  355loPI   C2A 5672   2.864  12.341  10.216 -0.0874 -0.0261  0.1713
  355loPI   C3A 5673   2.865  12.468   9.809  0.0514  0.1065 -0.1219
  355loPI   C4A 5674   2.977  12.523   9.394  0.2479 -0.3407  0.1294
  355loPI   C5A 5675   2.742  12.723   9.146 -0.2012  0.0459 -0.0980
  355loPI   C6A 5676   2.479  12.768   8.736 -0.3763 -0.2770 -0.0788
  355loPI   C1B 5677   3.282  12.151  10.546 -0.0177  0.1648  0.3034
  355loPI   C2B 5678   3.304  12.165  10.027 -0.1830  0.1367  0.2252
  355loPI   C3B 5679   3.323  12.168   9.666 -0.0154  0.0765  0.1414
  355loPI   C4B 5680   3.348  12.261   9.236  0.0829 -0.0492  0.1054
  356loPI    C1 5681   9.885  11.556  11.191 -0.0157 -0.2569 -0.1093
  356loPI    C2 5682  10.220  11.682  11.369  0.0469 -0.0224 -0.3859
  356loPI    C3 5683  10.056  11.334  11.477  0.1608  0.0453  0.0250
  356loPI   PO4 5684   9.895  11.592  10.895 -0.1362 -0.0743 -0.1230
  356loPI   GL1 5685  10.136  11.746  10.752 -0.1264 -0.0293  0.0959
  356loPI   GL2 5686  10.009  12.032  10.658 -0.2170 -0.0648  0.0954
  356loPI   C1A 5687  10.112  11.495  10.339 -0.0630  0.1102 -0.2390
  356loPI   C2A 5688   9.985  11.466   9.969  0.0822 -0.0797 -0.1109
  356loPI   C3A 5689   9.871  11.556   9.504 -0.0323 -0.1645  0.1100
  356loPI   C4A 5690   9.776  11.850   9.149 -0.0336 -0.3779 -0.2061
  356loPI   C5A 5691   9.596  12.072   8.843  0.0972 -0.1947  0.0674
  356loPI   C6A 5692   9.588  12.409   8.521  0.1523 -0.4574  0.2902
  356loPI   C1B 5693  10.222  12.006  10.312 -0.0218 -0.0311  0.2464
  356loPI   C2B 5694  10.211  11.907   9.935  0.2157  0.1011 -0.0314
  356loPI   C3B 5695  10.366  11.568   9.528 -0.0463 -0.0255 -0.2710
  356loPI   C4B 5696  10.218  11.270   9.269  0.0323  0.1289 -0.1029
  357loPI    C1 5697  12.983  15.135  11.548  0.0128  0.1575  0.1269
  357loPI    C2 5698  13.023  15.351  11.882  0.0643 -0.0173  0.2355
  357loPI    C3 5699  13.209  14.999  11.849 -0.2017 -0.1525  0.1519
  357loPI   PO4 5700  12.984  15.284  11.291 -0.0078 -0.3132  0.2971
  357loPI   GL1 5701  13.006  15.744  11.079  0.4139  0.1940 -0.1581
  357loPI   GL2 5702  12.927  15.543  10.894  0.0849 -0.2349  0.0202
  357loPI   C1A 5703  12.870  16.064  10.908 -0.2705 -0.2477 -0.0054
  357loPI   C2A 5704  12.705  16.219  10.591 -0.1191 -0.0755  0.0196
  357loPI   C3A 5705  12.771  16.202  10.245  0.1716  0.1834  0.0063
  357loPI   C4A 5706  12.786  16.241   9.824  0.1567 -0.1167 -0.2289
  357loPI   C5A 5707  12.726  16.033   9.511  0.0482  0.1182  0.0299
  357loPI   C6A 5708  12.644  15.880   9.066  0.3941  0.0161  0.5012
  357loPI   C1B 5709  12.907  15.665  10.406  0.0461  0.1222 -0.0490
  357loPI   C2B 5710  12.725  15.749  10.064  0.0528 -0.2029 -0.0252
  357loPI   C3B 5711  12.749  15.571   9.685  0.4544  0.0383 -0.1368
  357loPI   C4B 5712  12.721  15.358   9.269  0.0179 -0.0858 -0.1717
  358loPI    C1 5713   4.095  16.916  11.625  0.1148 -0.1421 -0.1080
  358loPI    C2 5714   3.817  16.961  11.908  0.1594  0.1979 -0.1132
  358loPI    C3 5715   4.203  16.936  12.009  0.1315 -0.3023 -0.1039
  358loPI   PO4 5716   3.904  16.798  11.372  0.0430  0.0558 -0.0723
  358loPI   GL1 5717   3.881  16.625  11.001 -0.1992  0.1718  0.0829
  358loPI   GL2 5718   3.443  16.600  10.842  0.2322  0.0750  0.3905
  358loPI   C1A 5719   4.042  16.816  10.666  0.1414 -0.0205  0.3713
  358loPI   C2A 5720   3.946  16.855  10.215  0.0932 -0.4310 -0.0802
  358loPI   C3A 5721   4.047  16.824   9.839 -0.1170  0.2823  0.2317
  358loPI   C4A 5722   4.075  16.842   9.424 -0.2877 -0.1397  0.1972
  358loPI   C5A 5723   4.276  16.711   9.007  0.0402  0.1659 -0.1043
  358loPI   C6A 5724   4.428  16.630   8.559 -0.2649 -0.4822  0.1968
  358loPI   C1B 5725   3.522  16.655  10.366 -0.2929 -0.1990  0.2429
  358loPI   C2B 5726   3.539  16.712   9.996 -0.1513  0.1557 -0.1815
  358loPI   C3B 5727   3.588  16.597   9.612  0.1634 -0.0054 -0.0181
  358loPI   C4B 5728   3.658  16.676   9.233 -0.2559  0.1314 -0.0074
  359loPI    C1 5729   2.757   2.354  11.375  0.3062 -0.0414  0.0668
  359loPI    C2 5730   2.879   1.976  11.330 -0.0479 -0.1482 -0.0197
  359loPI    C3 5731   2.749   2.103  11.686 -0.0370 -0.1408 -0.0184
  359loPI   PO4 5732   2.536   2.394  11.299  0.0678  0.2509  0.1011
  359loPI   GL1 5733   2.442   2.580  10.994  0.2077  0.2990  0.1562
  359loPI   GL2 5734   2.824   2.668  10.964  0.3418  0.3182 -0.0161
  359loPI   C1A 5735   2.324   2.460  10.630 -0.1130  0.3202  0.1874
  359loPI   C2A 5736   2.285   2.381  10.171 -0.0751  0.1570  0.0630
  359loPI   C3A 5737   2.203   2.383   9.736 -0.2902  0.0489 -0.1402
  359loPI   C4A 5738   2.224   2.258   9.226 -0.0204  0.1364 -0.1895
  359loPI   C5A 5739   2.453   2.544   9.020  0.0062 -0.2377  0.1560
  359loPI   C6A 5740   2.337   2.763   8.537 -0.4471 -0.0674  0.2096
  359loPI   C1B 5741   2.755   2.668  10.561  0.2200  0.2529  0.3197
  359loPI   C2B 5742   2.762   2.549  10.153 -0.0009  0.0795  0.1287
  359loPI   C3B 5743   2.679   2.610   9.807  0.1816  0.1028 -0.1524
  359loPI   C4B 5744   2.636   2.486   9.432  0.2856 -0.2781  0.1236
  360loPI    C1 5745  13.370  16.624  11.693 -0.3180  0.1432  0.0019
  360loPI    C2 5746  13.294  16.647  12.085 -0.3619  0.0240  0.0005
  360loPI    C3 5747  13.565  16.387  11.948 -0.2292  0.1784 -0.0330
  360loPI   PO4 5748  13.240  16.581  11.574 -0.0769 -0.3382 -0.1630
  360loPI   GL1 5749  13.113  16.422  11.220 -0.0568  0.0193 -0.1532
  360loPI   GL2 5750  13.423  16.532  11.090  0.2587 -0.2301 -0.1968
  360loPI   C1A 5751  12.806  16.579  11.019  0.2914 -0.1022 -0.3538
  360loPI   C2A 5752  12.694  16.680  10.571 -0.1493 -0.3024  0.0058
  360loPI   C3A 5753  12.771  16.723  10.161  0.0645 -0.1101  0.0210
  360loPI   C4A 5754  12.831  16.806   9.839  0.0509  0.2643 -0.0495
  360loPI   C5A 5755  12.752  16.765   9.427 -0.0390  0.4206  0.3830
  360loPI   C6A 5756  12.534  16.667   9.027 -0.1508 -0.0893  0.0294
  360loPI   C1B 5757  13.185  16.498  10.619 -0.0049 -0.1347  0.1540
  360loPI   C2B 5758  13.244  16.436  10.103 -0.2650  0.2220 -0.1898
  360loPI   C3B 5759  13.201  16.448   9.631 -0.1317  0.1919  0.2890
  360loPI   C4B 5760  13.099  16.219   9.233  0.0323  0.3464 -0.1922
  361loPI    C1 5761   0.104  12.412  11.227  0.0374 -0.1009  0.0684
  361loPI    C2 5762   0.167  12.076  11.436 -0.2272 -0.0389  0.2530
  361loPI    C3 5763   0.048  12.409  11.623  0.0570  0.1685  0.0748
  361loPI   PO4 5764  -0.011  12.326  10.980  0.1276 -0.2692  0.2775
  361loPI   GL1 5765  -0.016  12.460  10.536  0.0248 -0.0427 -0.1084
  361loPI   GL2 5766   0.277  12.450  10.461  0.0298  0.1875 -0.2810
  361loPI   C1A 5767  -0.199  12.641  10.268  0.2173 -0.1745  0.1215
  361loPI   C2A 5768   0.047  12.672   9.869 -0.2918 -0.0806 -0.1075
  361loPI   C3A 5769   0.155  12.765   9.481  0.2144  0.2064  0.1412
  361loPI   C4A 5770   0.072  12.828   9.046 -0.2645 -0.0927  0.0420
  361loPI   C5A 5771   0.081  12.732   8.690  0.0116  0.1902  0.2078
  361loPI   C6A 5772   0.408  12.636   8.460 -0.1064  0.1978 -0.0455
  361loPI   C1B 5773   0.532  12.347  10.166 -0.1442  0.2129  0.2296
  361loPI   C2B 5774   0.599  12.464   9.729  0.0482 -0.2726 -0.2761
  361loPI   C3B 5775   0.550  12.529   9.286 -0.3193 -0.0784  0.0354
  361loPI   C4B 5776   0.467  12.468   8.912 -0.0649 -0.0258 -0.0668
  362loPI    C1 5777   8.963   2.986  11.785  0.0637  0.0332  0.1967
  362loPI    C2 5778   8.687   3.117  12.044  0.1678  0.1367  0.2562
  362loPI    C3 5779   9.056   3.029  12.172  0.1505 -0.0436  0.1847
  362loPI   PO4 5780   8.934   3.123  11.513 -0.0188  0.1365 -0.0983
  362loPI   GL1 5781   9.368   3.286  11.271 -0.2930  0.0336  0.0626
  362loPI   GL2 5782   9.295   3.549  11.043 -0.0827 -0.0651 -0.1401
  362loPI   C1A 5783   9.376   3.145  10.710 -0.1971  0.0785  0.1176
  362loPI   C2A 5784   9.362   3.089  10.300  0.4120 -0.2973 -0.1527
  362loPI   C3A 5785   9.287   3.176   9.947 -0.3137  0.0593 -0.0505
  362loPI   C4A 5786   9.255   3.251   9.556  0.1585  0.0453 -0.1683
  362loPI   C5A 5787   9.273   3.224   9.032  0.0338 -0.0660  0.6827
  362loPI   C6A 5788   9.214   3.557   8.754 -0.0548 -0.0602 -0.1075
  362loPI   C1B 5789   9.443   3.715  10.644  0.0883  0.0890  0.1777
  362loPI   C2B 5790   9.394   3.771  10.233  0.0287  0.1224 -0.1633
  362loPI   C3B 5791   9.392   3.695   9.853  0.0603  0.0935  0.3713
  362loPI   C4B 5792   9.282   3.686   9.344 -0.1748 -0.0982  0.0883
  363loPI    C1 5793  10.377  13.021  10.983  0.0682  0.0568  0.0260
  363loPI    C2 5794  10.494  13.371  11.138 -0.0203  0.0531  0.1018
  363loPI    C3 5795  10.694  13.036  11.227  0.0113  0.0715  0.0996
  363loPI   PO4 5796  10.349  13.013  10.733 -0.0329  0.3042  0.0568
  363loPI   GL1 5797  10.462  12.803  10.357 -0.2449  0.0027 -0.1975
  363loPI   GL2 5798  10.245  12.511  10.410  0.1181  0.2251  0.0067
  363loPI   C1A 5799  10.509  12.985  10.037  0.0660  0.3778  0.1125
  363loPI   C2A 5800  10.472  12.810   9.676  0.3615  0.1323 -0.0505
  363loPI   C3A 5801  10.249  12.927   9.343  0.1330  0.0376 -0.1164
  363loPI   C4A 5802  10.038  12.788   9.080  0.0671 -0.0766  0.3486
  363loPI   C5A 5803   9.624  12.732   8.995 -0.1145 -0.1706  0.0800
  363loPI   C6A 5804   9.269  12.446   9.032  0.0634 -0.1129 -0.1330
  363loPI   C1B 5805  10.134  12.417   9.966 -0.0276  0.0045  0.1840
  363loPI   C2B 5806  10.083  12.460   9.569 -0.2021  0.0044 -0.0868
  363loPI   C3B 5807   9.784  12.362   9.236  0.0975 -0.0856  0.1096
  363loPI   C4B 5808   9.994  12.352   8.909 -0.4061 -0.0441 -0.1213
  364loPI    C1 5809  10.450  14.306  11.238 -0.1057 -0.1019 -0.1069
  364loPI    C2 5810  10.603  13.940  11.289 -0.2332 -0.1405  0.0037
  364loPI    C3 5811  10.554  14.182  11.604  0.1247  0.0839 -0.1068
  364loPI   PO4 5812  10.305  14.272  10.962 -0.1067 -0.0063  0.2060
  364loPI   GL1 5813  10.424  14.284  10.579  0.1983 -0.1334 -0.1874
  364loPI   GL2 5814  10.415  13.983  10.410  0.1390 -0.0069  0.0438
  364loPI   C1A 5815  10.801  14.241  10.305 -0.2836  0.2736 -0.3594
  364loPI   C2A 5816  10.937  14.253   9.876 -0.1341  0.0426 -0.4206
  364loPI   C3A 5817  11.057  14.201   9.447  0.0686  0.1813 -0.0620
  364loPI   C4A 5818  11.166  14.558   9.171 -0.3440  0.0301 -0.0912
  364loPI   C5A 5819  11.101  14.887   8.925 -0.0854 -0.1550 -0.1133
  364loPI   C6A 5820  10.692  14.925   8.706  0.1544 -0.2312  0.0253
  364loPI   C1B 5821  10.413  14.247  10.016 -0.1175  0.0409  0.1431
  364loPI   C2B 5822  10.531  14.230   9.610 -0.1663 -0.2889  0.0708
  364loPI   C3B 5823  10.340  14.313   9.252 -0.3727  0.2514 -0.0712
  364loPI   C4B 5824  10.659  14.508   9.027 -0.1281 -0.0416  0.3386
  365loPI    C1 5825   6.165  13.027  11.638 -0.2541  0.1380 -0.1644
  365loPI    C2 5826   6.024  12.780  11.920 -0.0078  0.0689 -0.0992
  365loPI    C3 5827   5.896  13.158  11.903 -0.3424 -0.0442 -0.1622
  365loPI   PO4 5828   6.254  12.841  11.462  0.1519 -0.0337 -0.0917
  365loPI   GL1 5829   6.040  12.767  11.099  0.1614 -0.1138 -0.2271
  365loPI   GL2 5830   5.793  13.000  11.117 -0.0186 -0.0957 -0.0284
  365loPI   C1A 5831   6.198  12.728  10.680  0.1224 -0.0614  0.1685
  365loPI   C2A 5832   6.253  12.693  10.261 -0.2337 -0.1540 -0.0977
  365loPI   C3A 5833   6.272  12.701   9.844  0.3762  0.1173  0.0602
  365loPI   C4A 5834   6.123  12.710   9.452 -0.3242 -0.2030  0.1532
  365loPI   C5A 5835   5.935  12.985   9.075 -0.0271  0.0355 -0.1712
  365loPI   C6A 5836   5.625  13.061   8.861 -0.0753 -0.1278  0.2015
  365loPI   C1B 5837   5.828  13.024  10.669 -0.0155 -0.5807  0.0512
  365loPI   C2B 5838   5.803  12.950  10.233  0.0566  0.0132  0.1339
  365loPI   C3B 5839   5.753  13.072   9.759 -0.1176  0.2417 -0.1466
  365loPI   C4B 5840   5.593  13.218   9.410  0.1094 -0.1581 -0.5386
  366loPI    C1 5841   1.776  15.513  11.350  0.0708  0.2201 -0.2017
  366loPI    C2 5842   1.947  15.711  11.652  0.0953  0.1721 -0.1840
  366loPI    C3 5843   2.029  15.324  11.595 -0.2666  0.0591  0.0301
  366loPI   PO4 5844   1.831  15.649  11.113  0.2592 -0.1083  0.0652
  366loPI   GL1 5845   1.960  15.477  10.765 -0.1120 -0.1811 -0.1331
  366loPI   GL2 5846   2.275  15.241  10.695  0.0417  0.4818 -0.0804
  366loPI   C1A 5847   1.911  15.369  10.347  0.0785 -0.0662 -0.0367
  366loPI   C2A 5848   2.000  15.526   9.978  0.2561  0.4566  0.0761
  366loPI   C3A 5849   2.043  15.441   9.578  0.0213 -0.2693 -0.0009
  366loPI   C4A 5850   1.963  15.459   9.167 -0.0888 -0.0603  0.0472
  366loPI   C5A 5851   2.218  15.656   8.818  0.0278 -0.0383  0.4156
  366loPI   C6A 5852   2.326  15.364   8.599  0.1162 -0.1636  0.0858
  366loPI   C1B 5853   2.375  15.208  10.156  0.0532  0.2062  0.0296
  366loPI   C2B 5854   2.448  15.134   9.707  0.0989 -0.1010  0.1257
  366loPI   C3B 5855   2.337  15.138   9.320  0.3092 -0.0699 -0.2901
  366loPI   C4B 5856   2.089  14.999   8.893 -0.0781  0.0240 -0.3247
  367loPI    C1 5857   5.488  16.618  11.338 -0.1455 -0.1419 -0.0613
  367loPI    C2 5858   5.726  16.860  11.551 -0.1015 -0.0352 -0.2297
  367loPI    C3 5859   5.395  16.707  11.717 -0.1235  0.1307 -0.1179
  367loPI   PO4 5860   5.605  16.488  11.217 -0.0138 -0.1159 -0.0582
  367loPI   GL1 5861   5.451  16.355  10.848 -0.1340  0.2208 -0.0395
  367loPI   GL2 5862   5.117  16.248  10.813  0.1070 -0.0955 -0.0153
  367loPI   C1A 5863   5.369  16.235  10.339 -0.0921  0.2322  0.2386
  367loPI   C2A 5864   5.340  16.306   9.743 -0.3214  0.0484 -0.0428
  367loPI   C3A 5865   5.298  16.388   9.396 -0.0047  0.2972  0.1055
  367loPI   C4A 5866   5.302  16.446   9.043 -0.0231 -0.2487 -0.0448
  367loPI   C5A 5867   5.713  16.587   8.880 -0.2668  0.1250 -0.0816
  367loPI   C6A 5868   6.165  16.582   8.698 -0.0658  0.0775 -0.0304
  367loPI   C1B 5869   4.889  16.090  10.455  0.3836 -0.2835  0.0347
  367loPI   C2B 5870   4.834  15.894  10.149  0.4127 -0.2063  0.2502
  367loPI   C3B 5871   4.848  16.140   9.828  0.0124 -0.0730 -0.2630
  367loPI   C4B 5872   4.808  16.183   9.415  0.1176  0.0058  0.2497
  368loPI    C1 5873  12.581  14.742  11.501 -0.0424  0.0621  0.0826
  368loPI    C2 5874  12.649  14.955  11.833 -0.1667  0.1482  0.0537
  368loPI    C3 5875  12.585  14.561  11.858 -0.0970  0.1410  0.1235
  368loPI   PO4 5876  12.518  15.042  11.290  0.0049 -0.0986 -0.2643
  368loPI   GL1 5877  12.557  15.238  10.919 -0.0621  0.4591  0.0092
  368loPI   GL2 5878  12.594  14.855  10.800  0.1992  0.1143 -0.0996
  368loPI   C1A 5879  12.565  15.348  10.471  0.1804 -0.2299  0.0366
  368loPI   C2A 5880  12.563  15.303  10.067  0.2537 -0.4086 -0.1106
  368loPI   C3A 5881  12.305  15.216   9.623 -0.1766 -0.1385  0.1191
  368loPI   C4A 5882  12.316  14.789   9.330 -0.0152  0.1510  0.0888
  368loPI   C5A 5883  12.090  14.822   8.901 -0.1748 -0.0905 -0.0750
  368loPI   C6A 5884  11.645  14.735   8.724 -0.1012 -0.1087  0.0080
  368loPI   C1B 5885  12.737  14.852  10.367 -0.2898  0.0886 -0.1873
  368loPI   C2B 5886  12.793  14.850  10.033  0.4682 -0.1420  0.1397
  368loPI   C3B 5887  12.720  14.936   9.631  0.3090  0.2581 -0.2096
  368loPI   C4B 5888  12.796  14.778   9.232  0.0899 -0.0578  0.1500
  369loPI    C1 5889   8.054   3.124  11.647 -0.0408 -0.1100  0.1258
  369loPI    C2 5890   8.268   2.859  11.856 -0.0669 -0.3037 -0.0901
  369loPI    C3 5891   8.215   3.229  11.998 -0.0662 -0.4250  0.2343
  369loPI   PO4 5892   8.107   3.204  11.379  0.1047  0.0422 -0.0760
  369loPI   GL1 5893   7.917   3.168  10.977  0.1279  0.1981  0.0491
  369loPI   GL2 5894   8.330   3.185  10.917  0.0183 -0.1619 -0.0590
  369loPI   C1A 5895   7.874   3.071  10.616 -0.2296  0.1522 -0.0113
  369loPI   C2A 5896   7.897   3.123  10.165  0.0815 -0.0213  0.1348
  369loPI   C3A 5897   7.915   3.105   9.735 -0.2128  0.1217 -0.0465
  369loPI   C4A 5898   7.857   3.161   9.345  0.0627 -0.3993  0.1554
  369loPI   C5A 5899   7.829   3.557   9.006  0.0925 -0.0636  0.2021
  369loPI   C6A 5900   7.843   3.377   8.579  0.0350 -0.1876 -0.0600
  369loPI   C1B 5901   8.349   3.304  10.438  0.0891  0.1382  0.2413
  369loPI   C2B 5902   8.303   3.338  10.057 -0.2372  0.0648  0.4062
  369loPI   C3B 5903   8.339   3.348   9.620 -0.1660  0.2235 -0.1968
  369loPI   C4B 5904   8.309   3.265   9.101  0.0540 -0.1311 -0.2859
  370loPI    C1 5905   4.793  16.589  11.601  0.0406  0.0026  0.0499
  370loPI    C2 5906   4.984  16.423  11.910 -0.0405  0.1306  0.1700
  370loPI    C3 5907   4.674  16.235  11.743  0.0205  0.0486  0.1487
  370loPI   PO4 5908   4.945  16.655  11.425 -0.2020 -0.0728  0.1228
  370loPI   GL1 5909   5.158  16.741  10.991 -0.0176 -0.0906  0.3511
  370loPI   GL2 5910   4.947  17.026  10.983 -0.1578 -0.4036  0.1118
  370loPI   C1A 5911   5.000  16.626  10.515 -0.2571 -0.3943 -0.1588
  370loPI   C2A 5912   5.061  16.594  10.076 -0.0388  0.3703 -0.0960
  370loPI   C3A 5913   4.922  16.693   9.676 -0.1862 -0.0762 -0.1516
  370loPI   C4A 5914   4.889  16.673   9.322 -0.3608  0.1374 -0.2058
  370loPI   C5A 5915   4.750  16.554   8.925 -0.2150  0.1739 -0.0848
  370loPI   C6A 5916   5.009  16.656   8.570  0.1924 -0.2763 -0.2064
  370loPI   C1B 5917   4.975  17.099  10.546  0.1181 -0.5465 -0.0908
  370loPI   C2B 5918   4.945  17.145  10.174 -0.1106  0.2100 -0.3956
  370loPI   C3B 5919   4.991  17.211   9.786 -0.0786 -0.1786 -0.1448
  370loPI   C4B 5920   5.065  17.277   9.296  0.3220  0.2994 -0.2503
  371loPI    C1 5921   9.687   6.251  11.554  0.0224  0.1012  0.0197
  371loPI    C2 5922   9.536   6.459  11.860  0.1085  0.0530  0.0953
  371loPI    C3 5923   9.870   6.244  11.910 -0.0024 -0.1364  0.0298
  371loPI   PO4 5924   9.489   6.335  11.327 -0.0815 -0.2425  0.1555
  371loPI   GL1 5925   9.540   6.420  10.872 -0.2610  0.0829  0.2104
  371loPI   GL2 5926   9.446   6.619  10.843 -0.0000 -0.1732  0.0211
  371loPI   C1A 5927   9.813   6.317  10.563 -0.0097  0.2855 -0.1239
  371loPI   C2A 5928   9.684   6.236  10.195 -0.1339 -0.0467  0.0033
  371loPI   C3A 5929   9.839   6.266   9.753 -0.0933  0.1400 -0.4601
  371loPI   C4A 5930   9.720   6.313   9.345 -0.1687  0.0405 -0.0153
  371loPI   C5A 5931   9.895   6.451   8.790  0.3450  0.2687  0.0335
  371loPI   C6A 5932  10.121   6.412   8.564  0.1520 -0.0290 -0.3187
  371loPI   C1B 5933   9.358   6.593  10.384  0.4152  0.1282  0.3968
  371loPI   C2B 5934   9.384   6.548   9.943 -0.0553  0.0958  0.0855
  371loPI   C3B 5935   9.334   6.598   9.543 -0.0224  0.0739 -0.1507
  371loPI   C4B 5936   9.208   6.665   9.116 -0.1820 -0.0595  0.2654
  372loPI    C1 5937  17.332  13.731  11.391  0.0015 -0.0098 -0.1598
  372loPI    C2 5938  17.712  13.742  11.517 -0.0798 -0.2584  0.1168
  372loPI    C3 5939  17.415  13.687  11.780 -0.3303  0.1866 -0.0627
  372loPI   PO4 5940  17.347  13.784  11.068 -0.0583 -0.2209  0.0731
  372loPI   GL1 5941  17.299  13.733  10.642 -0.0382 -0.0097  0.1181
  372loPI   GL2 5942  17.036  13.815  10.584  0.2793  0.0410  0.1905
  372loPI   C1A 5943  17.448  14.072  10.382 -0.3429 -0.0670 -0.0217
  372loPI   C2A 5944  17.549  14.146   9.960 -0.0477  0.2117  0.0150
  372loPI   C3A 5945  17.597  14.161   9.501  0.1235  0.0865  0.3648
  372loPI   C4A 5946  17.511  14.218   9.110 -0.0738 -0.0437 -0.0423
  372loPI   C5A 5947  17.589  14.170   8.811  0.1051 -0.0334  0.1036
  372loPI   C6A 5948  17.808  14.148   8.402  0.1057  0.0388 -0.0651
  372loPI   C1B 5949  16.996  13.876  10.161  0.1121 -0.1596  0.2633
  372loPI   C2B 5950  17.063  14.032   9.697  0.3818 -0.2413 -0.2026
  372loPI   C3B 5951  17.059  13.999   9.225 -0.0796 -0.2702  0.3019
  372loPI   C4B 5952  16.951  14.010   8.829 -0.0410  0.1109 -0.0220
  373loPI    C1 5953   1.357  11.570  11.343 -0.0051  0.2383  0.1159
  373loPI    C2 5954   0.957  11.568  11.362 -0.0212 -0.0302 -0.1688
  373loPI    C3 5955   1.173  11.627  11.694 -0.2951 -0.0170  0.0104
  373loPI   PO4 5956   1.375  11.739  11.157 -0.1621 -0.0661 -0.0191
  373loPI   GL1 5957   1.531  11.762  10.735  0.1856  0.1946 -0.0394
  373loPI   GL2 5958   1.368  12.013  10.656 -0.0332  0.0855  0.0549
  373loPI   C1A 5959   1.545  11.787  10.187  0.0123 -0.1035  0.0440
  373loPI   C2A 5960   1.781  11.911   9.997  0.0671 -0.2365  0.2299
  373loPI   C3A 5961   1.940  12.117   9.639 -0.0073  0.1438 -0.1563
  373loPI   C4A 5962   1.981  12.259   9.260  0.2102 -0.0090 -0.1102
  373loPI   C5A 5963   1.962  12.489   8.832  0.1416 -0.0176 -0.1534
  373loPI   C6A 5964   1.519  12.458   8.573 -0.3202  0.1032  0.0325
  373loPI   C1B 5965   1.097  12.162  10.491  0.1127 -0.1274 -0.3605
  373loPI   C2B 5966   0.956  12.279   9.979 -0.2947 -0.2187 -0.0740
  373loPI   C3B 5967   0.972  12.258   9.545 -0.1047 -0.1083 -0.1012
  373loPI   C4B 5968   0.936  12.211   9.102 -0.1290 -0.1351 -0.0711
  374loPI    C1 5969   8.712  10.286  11.524  0.0443  0.3812  0.0249
  374loPI    C2 5970   8.390  10.170  11.731  0.1045  0.2312  0.0359
  374loPI    C3 5971   8.435  10.554  11.630 -0.0089  0.2766  0.1547
  374loPI   PO4 5972   8.711  10.040  11.360  0.2295  0.0397  0.1324
  374loPI   GL1 5973   8.827  10.190  10.928  0.1911 -0.2945 -0.0831
  374loPI   GL2 5974   9.057  10.100  10.716 -0.0769 -0.2539 -0.0101
  374loPI   C1A 5975   8.550  10.312  10.629 -0.0250  0.0648 -0.3049
  374loPI   C2A 5976   8.551  10.336  10.263 -0.2524 -0.2688  0.0429
  374loPI   C3A 5977   8.611  10.352   9.816 -0.1281 -0.1112 -0.0622
  374loPI   C4A 5978   8.497  10.308   9.394 -0.0167 -0.0256 -0.1521
  374loPI   C5A 5979   8.591  10.092   9.046 -0.1950 -0.1855  0.0404
  374loPI   C6A 5980   8.589   9.778   8.742  0.4154 -0.2912 -0.1381
  374loPI   C1B 5981   8.987  10.074  10.241 -0.0402 -0.1206 -0.3794
  374loPI   C2B 5982   8.970  10.052   9.796 -0.0983  0.1388 -0.1248
  374loPI   C3B 5983   9.051   9.896   9.375  0.2212  0.3094  0.1344
  374loPI   C4B 5984   9.022   9.837   8.938  0.2306 -0.1341 -0.0106
  375loPI    C1 5985   0.322  13.134  11.123 -0.0660  0.2466 -0.1049
  375loPI    C2 5986  -0.007  13.293  11.286  0.0084  0.1024  0.1926
  375loPI    C3 5987   0.100  12.918  11.375  0.2315  0.1336  0.0654
  375loPI   PO4 5988   0.343  13.180  10.847 -0.1250 -0.0025 -0.3880
  375loPI   GL1 5989   0.174  13.461  10.577  0.1183 -0.2105 -0.0857
  375loPI   GL2 5990   0.278  13.744  10.542 -0.0222  0.0538  0.3547
  375loPI   C1A 5991  -0.105  13.583  10.181  0.1037 -0.0703 -0.0164
  375loPI   C2A 5992  -0.230  13.575   9.822  0.1847 -0.2598 -0.0764
  375loPI   C3A 5993  -0.205  13.702   9.464 -0.0928 -0.1837  0.1431
  375loPI   C4A 5994  -0.092  13.663   9.028 -0.0627 -0.2197 -0.3163
  375loPI   C5A 5995  -0.232  13.654   8.592 -0.0032  0.0214  0.3168
  375loPI   C6A 5996  -0.581  13.504   8.292 -0.1543  0.1502  0.1425
  375loPI   C1B 5997   0.358  13.789  10.139 -0.3521 -0.4361 -0.0877
  375loPI   C2B 5998   0.412  13.856   9.733  0.0821 -0.0032 -0.1829
  375loPI   C3B 5999   0.373  13.883   9.234  0.1257  0.2259 -0.1919
  375loPI   C4B 6000   0.511  13.916   8.849  0.2731 -0.1763 -0.0860
  376loPI    C1 6001   6.910  10.589  11.313  0.0579 -0.1676 -0.0717
  376loPI    C2 6002   6.515  10.559  11.263  0.0311  0.1233 -0.0504
  376loPI    C3 6003   6.704  10.307  11.509 -0.0701 -0.3073 -0.3997
  376loPI   PO4 6004   7.021  10.588  11.179 -0.1599 -0.2946  0.1519
  376loPI   GL1 6005   6.998  10.673  10.728 -0.0178 -0.0765  0.2412
  376loPI   GL2 6006   6.922  10.900  10.722  0.1726 -0.1083  0.2120
  376loPI   C1A 6007   7.267  10.662  10.440 -0.1781 -0.2633  0.0053
  376loPI   C2A 6008   7.246  10.692  10.005  0.1299  0.2412  0.0356
  376loPI   C3A 6009   7.176  10.731   9.603 -0.1786  0.2505 -0.2660
  376loPI   C4A 6010   7.266  10.735   9.230 -0.0072 -0.0190 -0.0037
  376loPI   C5A 6011   7.117  10.635   8.931  0.0869 -0.0061 -0.0382
  376loPI   C6A 6012   6.871  10.566   8.550  0.1937 -0.0422 -0.0057
  376loPI   C1B 6013   6.898  10.976  10.298  0.2209  0.0019 -0.2060
  376loPI   C2B 6014   6.803  10.969   9.905  0.3581  0.0549  0.0657
  376loPI   C3B 6015   6.801  11.046   9.494  0.1657 -0.1447 -0.1446
  376loPI   C4B 6016   6.762  11.047   9.106 -0.1559 -0.1935  0.2366
  377loPI    C1 6017   6.469  15.730  11.322  0.2872 -0.1656 -0.0261
  377loPI    C2 6018   6.732  15.769  11.621  0.0837 -0.0598  0.1418
  377loPI    C3 6019   6.341  15.746  11.701  0.0167  0.1081 -0.1252
  377loPI   PO4 6020   6.516  15.935  11.174 -0.0281  0.2968 -0.1394
  377loPI   GL1 6021   6.864  16.100  11.097 -0.0035 -0.4421 -0.0460
  377loPI   GL2 6022   7.146  16.113  10.899 -0.1050  0.1018  0.0927
  377loPI   C1A 6023   6.755  16.311  10.669  0.2465 -0.2174  0.0314
  377loPI   C2A 6024   6.832  16.379  10.176 -0.1728  0.1927 -0.0251
  377loPI   C3A 6025   6.676  16.326   9.701 -0.0169 -0.1075 -0.4468
  377loPI   C4A 6026   6.691  16.392   9.292  0.2044  0.1701 -0.1209
  377loPI   C5A 6027   6.752  16.322   8.829  0.0373  0.0708 -0.1600
  377loPI   C6A 6028   6.590  16.175   8.411  0.1047 -0.1356 -0.1598
  377loPI   C1B 6029   7.150  15.969  10.430 -0.2792  0.0018  0.2977
  377loPI   C2B 6030   7.197  16.056  10.046  0.1055 -0.0641 -0.0053
  377loPI   C3B 6031   7.079  16.009   9.714 -0.1196  0.0984  0.2394
  377loPI   C4B 6032   7.134  16.025   9.195  0.0725 -0.0245  0.1258
  378loPI    C1 6033   2.957   6.345  11.474  0.0093  0.1074 -0.2380
  378loPI    C2 6034   3.067   6.630  11.732 -0.3593 -0.0276  0.0788
  378loPI    C3 6035   3.021   6.253  11.858  0.0758 -0.2264 -0.3257
  378loPI   PO4 6036   3.139   6.337  11.301 -0.2527 -0.3782  0.2529
  378loPI   GL1 6037   3.403   6.229  10.842 -0.2065 -0.3225  0.1757
  378loPI   GL2 6038   3.231   6.510  10.688  0.1635  0.0777 -0.2279
  378loPI   C1A 6039   3.366   6.162  10.338  0.0462 -0.2821 -0.2336
  378loPI   C2A 6040   3.275   6.127   9.971 -0.0509 -0.4459 -0.3748
  378loPI   C3A 6041   3.366   6.146   9.593  0.0081  0.1152  0.2817
  378loPI   C4A 6042   3.218   6.157   9.107  0.2141 -0.1046 -0.0034
  378loPI   C5A 6043   3.467   5.787   8.820  0.0224 -0.1204 -0.0789
  378loPI   C6A 6044   3.451   5.398   8.502  0.2040  0.2854  0.1770
  378loPI   C1B 6045   3.391   6.721  10.297  0.0282  0.3398  0.1991
  378loPI   C2B 6046   3.342   6.625   9.812 -0.2293  0.3172  0.1711
  378loPI   C3B 6047   3.334   6.693   9.332  0.0335 -0.0043 -0.0987
  378loPI   C4B 6048   3.506   6.625   8.999 -0.1017  0.1152  0.1527
  379loPI    C1 6049  16.126   0.829  11.307  0.2091 -0.0489 -0.1689
  379loPI    C2 6050  16.349   0.848  11.638 -0.0699 -0.0778  0.0246
  379loPI    C3 6051  16.180   0.502  11.530  0.0243 -0.0698 -0.1530
  379loPI   PO4 6052  16.167   1.190  11.278 -0.2063 -0.1524 -0.0361
  379loPI   GL1 6053  15.998   1.388  10.879 -0.2902  0.2662  0.0236
  379loPI   GL2 6054  15.777   1.612  10.930  0.0537 -0.1699  0.0369
  379loPI   C1A 6055  15.990   1.400  10.417  0.2779  0.0917  0.2114
  379loPI   C2A 6056  15.872   1.435   9.899 -0.0276 -0.2385  0.1149
  379loPI   C3A 6057  15.823   1.294   9.413 -0.1545  0.1591 -0.1024
  379loPI   C4A 6058  15.865   1.396   8.989  0.1325 -0.0119  0.2945
  379loPI   C5A 6059  15.620   1.535   8.729  0.1512 -0.2153  0.3064
  379loPI   C6A 6060  15.266   1.767   8.543 -0.3136 -0.0059 -0.0112
  379loPI   C1B 6061  15.526   1.655  10.568  0.1889 -0.0092 -0.0263
  379loPI   C2B 6062  15.448   1.634   9.982 -0.2241  0.2208  0.2338
  379loPI   C3B 6063  15.472   1.682   9.650 -0.1859  0.0627  0.1004
  379loPI   C4B 6064  15.359   1.611   9.201  0.0897  0.2627  0.0557
  380loPI    C1 6065   4.555  17.045  11.693  0.0356  0.0335  0.0601
  380loPI    C2 6066   4.950  17.085  11.738  0.0619 -0.1665  0.0147
  380loPI    C3 6067   4.722  16.987  12.052  0.0478 -0.0532  0.0403
  380loPI   PO4 6068   4.591  16.966  11.349 -0.1944  0.0900 -0.0300
  380loPI   GL1 6069   4.339  16.937  11.157 -0.1563 -0.0592  0.1586
  380loPI   GL2 6070   4.091  17.098  11.027 -0.2116  0.0407 -0.1189
  380loPI   C1A 6071   4.506  17.000  10.716  0.0082 -0.0498 -0.0608
  380loPI   C2A 6072   4.428  16.978  10.343  0.2665  0.1535 -0.0383
  380loPI   C3A 6073   4.524  16.933   9.946  0.0590 -0.0762 -0.0677
  380loPI   C4A 6074   4.564  17.072   9.513 -0.4913  0.1840 -0.0072
  380loPI   C5A 6075   4.634  17.077   9.057  0.2184  0.3475 -0.0010
  380loPI   C6A 6076   4.783  17.381   8.828  0.2343 -0.0229 -0.0048
  380loPI   C1B 6077   4.127  17.326  10.642 -0.2248  0.2283 -0.1326
  380loPI   C2B 6078   4.061  17.369  10.158  0.0475 -0.0028 -0.0245
  380loPI   C3B 6079   4.106  17.334   9.748 -0.0793 -0.2340  0.2336
  380loPI   C4B 6080   4.187  17.299   9.279 -0.0640  0.2650  0.3885
  381loPI    C1 6081   5.493   9.708  11.556 -0.0472  0.1299 -0.2416
  381loPI    C2 6082   5.437   9.741  11.951 -0.1323 -0.0905 -0.2340
  381loPI    C3 6083   5.776   9.874  11.785  0.0129 -0.2277 -0.0508
  381loPI   PO4 6084   5.367   9.795  11.404  0.0508  0.0417  0.1761
  381loPI   GL1 6085   5.272   9.747  11.044 -0.0658  0.0255 -0.2566
  381loPI   GL2 6086   4.986   9.552  10.993  0.0351 -0.1252 -0.1422
  381loPI   C1A 6087   5.220   9.903  10.661  0.1054 -0.2370 -0.0393
  381loPI   C2A 6088   5.256   9.945  10.267  0.1499  0.0108 -0.1065
  381loPI   C3A 6089   5.328   9.974   9.903 -0.0829 -0.1408 -0.1205
  381loPI   C4A 6090   5.281   9.975   9.512 -0.1287  0.2246 -0.2642
  381loPI   C5A 6091   5.324   9.992   9.143 -0.1167 -0.1023  0.0074
  381loPI   C6A 6092   5.439   9.861   8.670 -0.0033 -0.1871 -0.1264
  381loPI   C1B 6093   5.087   9.435  10.542  0.1086 -0.2174 -0.1446
  381loPI   C2B 6094   5.146   9.392  10.111  0.0814  0.0167 -0.0868
  381loPI   C3B 6095   5.137   9.512   9.699 -0.1420 -0.1676  0.2060
  381loPI   C4B 6096   5.247   9.407   9.279 -0.2289  0.1940 -0.2117
  382loPI    C1 6097  10.490   2.092  11.959  0.3849 -0.0890 -0.1128
  382loPI    C2 6098  10.353   2.462  12.028  0.2083 -0.1082 -0.3481
  382loPI    C3 6099  10.342   2.187  12.318  0.1866  0.0238 -0.2228
  382loPI   PO4 6100  10.298   1.952  11.680  0.0218  0.2041 -0.1509
  382loPI   GL1 6101  10.551   1.959  11.267 -0.3258 -0.1506 -0.0966
  382loPI   GL2 6102  10.648   1.705  11.395  0.0500  0.0648  0.3041
  382loPI   C1A 6103  10.482   2.138  10.828 -0.1621  0.1412 -0.1391
  382loPI   C2A 6104  10.344   2.113  10.318 -0.2046 -0.1156 -0.0397
  382loPI   C3A 6105  10.487   2.294   9.937 -0.0804  0.2433  0.0581
  382loPI   C4A 6106  10.523   2.150   9.516  0.1069 -0.0864  0.0919
  382loPI   C5A 6107  10.915   2.127   9.246  0.3826  0.1547  0.2655
  382loPI   C6A 6108  11.288   2.228   9.051  0.0119  0.3016 -0.1013
  382loPI   C1B 6109  10.427   1.543  11.080  0.2100  0.2037  0.1122
  382loPI   C2B 6110  10.351   1.670  10.698 -0.2814  0.0956  0.2700
  382loPI   C3B 6111  10.367   1.645  10.277 -0.3738 -0.2042 -0.1374
  382loPI   C4B 6112  10.429   1.758   9.842  0.0177 -0.1622 -0.0897
  383loPI    C1 6113   6.553  11.529  11.451  0.2238 -0.1934  0.1260
  383loPI    C2 6114   6.796  11.710  11.713 -0.0850  0.3496  0.0534
  383loPI    C3 6115   6.546  11.424  11.837  0.3073  0.0596  0.1988
  383loPI   PO4 6116   6.617  11.444  11.212 -0.2873 -0.1691  0.0859
  383loPI   GL1 6117   6.739  11.564  10.836 -0.1651 -0.3218  0.0206
  383loPI   GL2 6118   6.546  11.359  10.651 -0.0872 -0.1596  0.2475
  383loPI   C1A 6119   6.908  11.521  10.350  0.1349  0.2759 -0.1495
  383loPI   C2A 6120   6.922  11.473   9.845 -0.2043 -0.0593  0.1502
  383loPI   C3A 6121   6.899  11.512   9.409 -0.0202 -0.2672  0.2265
  383loPI   C4A 6122   6.803  11.522   9.059  0.1193 -0.0538 -0.0863
  383loPI   C5A 6123   6.660  11.516   8.622 -0.1344 -0.0200 -0.2023
  383loPI   C6A 6124   6.734  11.103   8.426  0.1160 -0.2020  0.2436
  383loPI   C1B 6125   6.436  11.300  10.244 -0.3691 -0.1649 -0.3302
  383loPI   C2B 6126   6.487  11.343   9.738  0.3203  0.2450 -0.2121
  383loPI   C3B 6127   6.391  11.385   9.290  0.1194  0.0633  0.0195
  383loPI   C4B 6128   6.307  11.525   8.958 -0.0691  0.2188 -0.0385
  384loPI    C1 6129  10.056  10.091  11.383  0.0288 -0.1906 -0.1856
  384loPI    C2 6130   9.939   9.852  11.682  0.0132 -0.0673 -0.0921
  384loPI    C3 6131  10.206  10.141  11.751 -0.0886  0.0457 -0.1681
  384loPI   PO4 6132   9.828  10.132  11.231  0.0336  0.0830  0.3659
  384loPI   GL1 6133   9.579  10.226  10.863 -0.3777  0.1495  0.0657
  384loPI   GL2 6134   9.594   9.858  10.866  0.0353  0.4160  0.2231
  384loPI   C1A 6135   9.564  10.338  10.400 -0.2223 -0.0857  0.1466
  384loPI   C2A 6136   9.437  10.293   9.986 -0.0949 -0.2174  0.1041
  384loPI   C3A 6137   9.473  10.216   9.520 -0.0341  0.2141 -0.3298
  384loPI   C4A 6138   9.456  10.144   9.052  0.5367  0.2304 -0.1391
  384loPI   C5A 6139   9.524   9.970   8.667 -0.2867 -0.1056 -0.2263
  384loPI   C6A 6140   9.524  10.011   8.270  0.0073 -0.2234  0.0398
  384loPI   C1B 6141   9.415   9.864  10.392 -0.1162  0.3369 -0.1284
  384loPI   C2B 6142   9.405   9.795   9.934  0.1547  0.0376  0.4037
  384loPI   C3B 6143   9.459   9.570   9.555  0.1276 -0.0383  0.1653
  384loPI   C4B 6144   9.469   9.656   9.189 -0.0318  0.0012  0.1259
  385loPI    C1 6145   8.353   5.837  11.544 -0.0129  0.1760 -0.0627
  385loPI    C2 6146   8.525   5.566  11.782  0.1827  0.1397 -0.2429
  385loPI    C3 6147   8.171   5.722  11.881  0.1529 -0.0472 -0.0469
  385loPI   PO4 6148   8.479   5.813  11.349 -0.1691  0.1246 -0.0123
  385loPI   GL1 6149   8.750   5.856  11.116 -0.2801 -0.0269 -0.2182
  385loPI   GL2 6150   8.960   5.554  11.118  0.0729  0.1566  0.1717
  385loPI   C1A 6151   8.739   5.940  10.701  0.0282  0.1127 -0.0321
  385loPI   C2A 6152   8.778   5.967  10.272 -0.1743 -0.1822  0.0322
  385loPI   C3A 6153   8.792   5.929   9.727  0.1073 -0.1435 -0.3158
  385loPI   C4A 6154   8.743   5.908   9.293  0.3032  0.0140  0.2551
  385loPI   C5A 6155   9.010   5.868   8.977 -0.1868 -0.3708 -0.2065
  385loPI   C6A 6156   8.903   5.910   8.647 -0.0466  0.2042  0.1602
  385loPI   C1B 6157   9.157   5.576  10.748  0.0525  0.0314  0.4366
  385loPI   C2B 6158   9.198   5.568  10.386 -0.1502 -0.0342  0.2540
  385loPI   C3B 6159   9.180   5.599   9.885 -0.0286  0.2343 -0.1093
  385loPI   C4B 6160   9.154   5.657   9.409  0.1102  0.1450 -0.0270
  386loPI    C1 6161   9.971   5.453  12.041  0.0186  0.0163  0.0907
  386loPI    C2 6162   9.922   5.814  12.207 -0.1239  0.0702 -0.0661
  386loPI    C3 6163  10.276   5.629  12.231 -0.1312  0.0940  0.2620
  386loPI   PO4 6164   9.858   5.443  11.731 -0.0729  0.1010  0.0840
  386loPI   GL1 6165   9.854   5.249  11.328  0.1335  0.0143 -0.1296
  386loPI   GL2 6166  10.078   5.073  11.149 -0.2207  0.0799  0.0594
  386loPI   C1A 6167   9.626   5.437  10.986 -0.1572 -0.0353 -0.1887
  386loPI   C2A 6168   9.585   5.328  10.568 -0.0306 -0.1128  0.2413
  386loPI   C3A 6169   9.574   5.251  10.118 -0.2524 -0.1845 -0.1040
  386loPI   C4A 6170   9.616   5.237   9.773  0.0686 -0.0023  0.0413
  386loPI   C5A 6171   9.614   5.286   9.351 -0.1483 -0.3989 -0.1786
  386loPI   C6A 6172   9.573   5.419   8.866  0.2150 -0.0434  0.0284
  386loPI   C1B 6173   9.956   4.961  10.793 -0.0537 -0.1475 -0.1837
  386loPI   C2B 6174   9.902   4.976  10.386  0.0948  0.1041 -0.2046
  386loPI   C3B 6175   9.940   4.885   9.911 -0.0525 -0.0501  0.0560
  386loPI   C4B 6176   9.995   4.885   9.494  0.0431  0.3145 -0.3707
  387loPI    C1 6177  15.048  15.016  11.399  0.0009  0.3263  0.0228
  387loPI    C2 6178  15.422  15.067  11.530  0.0567 -0.1304  0.0607
  387loPI    C3 6179  15.113  15.148  11.771  0.1318  0.1041  0.0810
  387loPI   PO4 6180  15.069  14.769  11.241 -0.1371  0.1297  0.0265
  387loPI   GL1 6181  14.938  14.729  10.881  0.0226 -0.0991 -0.0873
  387loPI   GL2 6182  15.179  14.572  10.654 -0.1404  0.0439 -0.1072
  387loPI   C1A 6183  14.762  14.958  10.517  0.1398 -0.1554  0.3046
  387loPI   C2A 6184  14.882  15.139  10.114  0.0714  0.2424 -0.0522
  387loPI   C3A 6185  14.783  15.167   9.683 -0.1588 -0.0805  0.1518
  387loPI   C4A 6186  14.642  15.065   9.189 -0.0654  0.1175 -0.1047
  387loPI   C5A 6187  14.767  15.029   8.818 -0.0953  0.4349 -0.0601
  387loPI   C6A 6188  15.216  15.070   8.612 -0.0961 -0.0368 -0.0960
  387loPI   C1B 6189  15.075  14.701  10.206  0.0422  0.2400 -0.3700
  387loPI   C2B 6190  15.195  14.765   9.741 -0.1274  0.0182  0.1689
  387loPI   C3B 6191  15.164  14.942   9.349 -0.1764 -0.0063 -0.1294
  387loPI   C4B 6192  15.094  15.280   9.101 -0.0567 -0.2458  0.0653
  388loPI    C1 6193   1.309   7.790  11.329  0.0191  0.3429  0.0511
  388loPI    C2 6194   1.684   7.900  11.419  0.0456  0.1501  0.1820
  388loPI    C3 6195   1.479   7.663  11.669 -0.0623  0.0218 -0.0250
  388loPI   PO4 6196   1.329   7.732  11.098  0.0085  0.1087  0.1046
  388loPI   GL1 6197   1.220   7.540  10.693  0.3500 -0.1116 -0.0893
  388loPI   GL2 6198   1.477   7.661  10.513 -0.1623  0.1872  0.1110
  388loPI   C1A 6199   1.135   7.383  10.315  0.1852  0.3442  0.1011
  388loPI   C2A 6200   0.999   7.416   9.897  0.0171 -0.2923  0.0305
  388loPI   C3A 6201   1.184   7.244   9.630 -0.1328 -0.1496 -0.1005
  388loPI   C4A 6202   1.250   7.274   9.191  0.0288 -0.1768  0.0244
  388loPI   C5A 6203   1.196   7.339   8.742  0.1945  0.2115  0.1566
  388loPI   C6A 6204   1.006   7.456   8.417  0.0082 -0.0819 -0.2126
  388loPI   C1B 6205   1.610   7.613  10.182  0.2871  0.0544  0.1186
  388loPI   C2B 6206   1.697   7.510   9.787 -0.0867  0.3492 -0.3400
  388loPI   C3B 6207   1.731   7.560   9.354  0.2552  0.4337 -0.1436
  388loPI   C4B 6208   1.700   7.402   8.981 -0.0264 -0.3621 -0.1594
  389loPI    C1 6209   7.625  15.316  11.341 -0.1284 -0.0565 -0.0937
  389loPI    C2 6210   7.303  15.323  11.578  0.0820 -0.3297  0.2081
  389loPI    C3 6211   7.622  15.104  11.680  0.3823 -0.0305 -0.0656
  389loPI   PO4 6212   7.396  15.301  11.120 -0.0447  0.1609 -0.0203
  389loPI   GL1 6213   7.193  15.014  10.795 -0.2633 -0.0912  0.2461
  389loPI   GL2 6214   7.485  15.230  10.653 -0.0802 -0.1883  0.1919
  389loPI   C1A 6215   7.080  15.371  10.420  0.1771  0.1007 -0.2549
  389loPI   C2A 6216   7.145  15.366  10.059 -0.1961  0.1133 -0.0360
  389loPI   C3A 6217   6.992  15.428   9.723  0.2381 -0.0244  0.2740
  389loPI   C4A 6218   7.015  15.557   9.363 -0.1247 -0.1738 -0.0667
  389loPI   C5A 6219   6.895  15.387   8.938  0.1460  0.0904  0.1024
  389loPI   C6A 6220   7.160  15.285   8.582  0.0414  0.0466 -0.2487
  389loPI   C1B 6221   7.554  15.194  10.253  0.0267  0.1513  0.2334
  389loPI   C2B 6222   7.641  15.146   9.837 -0.0228  0.0619  0.0450
  389loPI   C3B 6223   7.406  15.246   9.453 -0.2152  0.0191  0.0061
  389loPI   C4B 6224   7.363  15.306   9.064  0.1219 -0.0400  0.2070
  390loPI    C1 6225  10.331   0.543  11.890  0.1590 -0.2451 -0.1228
  390loPI    C2 6226  10.403   0.214  12.106  0.1240  0.0610  0.3699
  390loPI    C3 6227  10.524   0.571  12.239  0.0021  0.2730 -0.0703
  390loPI   PO4 6228  10.264   0.443  11.681 -0.3154  0.0083 -0.2823
  390loPI   GL1 6229  10.313   0.655  11.288 -0.1677 -0.3490  0.0576
  390loPI   GL2 6230  10.068   0.524  11.087  0.1665  0.1139 -0.2178
  390loPI   C1A 6231  10.302   0.978  10.951 -0.0957  0.0106 -0.4012
  390loPI   C2A 6232  10.326   1.027  10.465  0.0561 -0.0665 -0.0356
  390loPI   C3A 6233  10.383   1.163  10.047 -0.1652 -0.0572 -0.0641
  390loPI   C4A 6234  10.298   1.254   9.581 -0.2167  0.0900  0.1115
  390loPI   C5A 6235  10.258   1.262   9.201 -0.0277  0.2727  0.0598
  390loPI   C6A 6236  10.327   1.373   8.796 -0.1498  0.3235  0.0328
  390loPI   C1B 6237  10.180   0.531  10.590  0.3606  0.1767 -0.1781
  390loPI   C2B 6238  10.257   0.607  10.217 -0.0198 -0.0182 -0.0029
  390loPI   C3B 6239  10.406   0.707   9.869  0.0759 -0.0497  0.1442
  390loPI   C4B 6240  10.252   0.779   9.400 -0.2160  0.0304  0.0016
  391loPI    C1 6241   3.814   5.242  11.615  0.0465 -0.1349 -0.0324
  391loPI    C2 6242   4.186   5.340  11.725  0.0470 -0.2047  0.0292
  391loPI    C3 6243   3.923   5.216  11.999 -0.1476  0.2393  0.0526
  391loPI   PO4 6244   3.813   5.370  11.392  0.1193  0.1119 -0.0513
  391loPI   GL1 6245   3.531   5.470  11.046 -0.0900 -0.0962  0.1564
  391loPI   GL2 6246   3.697   5.768  11.095  0.1694  0.1279  0.0548
  391loPI   C1A 6247   3.565   5.362  10.649 -0.0270 -0.0336  0.1417
  391loPI   C2A 6248   3.560   5.401  10.296 -0.1980  0.0720 -0.1587
  391loPI   C3A 6249   3.535   5.313   9.860  0.0726 -0.0967 -0.0735
  391loPI   C4A 6250   3.557   5.305   9.456 -0.1173 -0.2162  0.1113
  391loPI   C5A 6251   3.586   5.345   9.102 -0.1467 -0.2521  0.1563
  391loPI   C6A 6252   3.777   5.128   8.727  0.0519 -0.0477  0.0861
  391loPI   C1B 6253   3.688   5.857  10.647 -0.1283 -0.2068 -0.0634
  391loPI   C2B 6254   3.747   5.907  10.167  0.1124  0.3000  0.0989
  391loPI   C3B 6255   3.682   5.770   9.743 -0.1399 -0.1484 -0.2039
  391loPI   C4B 6256   3.643   5.886   9.287 -0.0983 -0.0187  0.2090
  392loPI    C1 6257  10.476   6.587  11.373 -0.0600 -0.2318 -0.0121
  392loPI    C2 6258  10.822   6.528  11.182  0.0582  0.2512  0.0402
  392loPI    C3 6259  10.759   6.358  11.538  0.1708  0.0259 -0.0452
  392loPI   PO4 6260  10.377   6.757  11.238  0.0706  0.2819  0.0336
  392loPI   GL1 6261  10.483   6.783  10.811 -0.0234  0.1355  0.0790
  392loPI   GL2 6262  10.807   6.828  10.763  0.0079  0.1812 -0.4874
  392loPI   C1A 6263  10.453   6.987  10.503 -0.0166  0.4081 -0.0483
  392loPI   C2A 6264  10.438   6.950  10.130 -0.1471  0.0214 -0.1598
  392loPI   C3A 6265  10.323   7.027   9.683 -0.0919 -0.0442 -0.0264
  392loPI   C4A 6266  10.263   7.001   9.275 -0.0910  0.0846 -0.0082
  392loPI   C5A 6267  10.134   7.021   8.789  0.0926  0.0194 -0.0731
  392loPI   C6A 6268   9.714   7.015   8.536  0.1409 -0.4039  0.2505
  392loPI   C1B 6269  10.754   6.585  10.368  0.2649  0.1029  0.1170
  392loPI   C2B 6270  10.765   6.613   9.900  0.0968 -0.0179  0.0348
  392loPI   C3B 6271  10.721   6.682   9.508  0.1449 -0.1172  0.1091
  392loPI   C4B 6272  10.598   6.683   9.070  0.2903 -0.0754 -0.0170
  393loPI    C1 6273  14.015   2.370  11.975  0.1797 -0.0011 -0.2309
  393loPI    C2 6274  14.042   2.049  12.211  0.1636  0.0180 -0.2030
  393loPI    C3 6275  13.689   2.154  12.057  0.1140  0.1885  0.0201
  393loPI   PO4 6276  13.993   2.428  11.683 -0.1091  0.0870 -0.2174
  393loPI   GL1 6277  14.112   2.179  11.324 -0.5763 -0.0976  0.3054
  393loPI   GL2 6278  13.890   2.441  11.209  0.2140 -0.0554 -0.1935
  393loPI   C1A 6279  13.804   1.929  11.082  0.1383 -0.3822  0.4135
  393loPI   C2A 6280  13.655   2.064  10.696 -0.0088  0.1185  0.3888
  393loPI   C3A 6281  13.686   1.983  10.216  0.0577  0.1579 -0.1724
  393loPI   C4A 6282  13.769   1.913   9.823  0.1266 -0.1411  0.4247
  393loPI   C5A 6283  13.760   1.914   9.327 -0.0870 -0.1526 -0.0385
  393loPI   C6A 6284  13.312   1.693   9.069  0.0985  0.0379  0.0712
  393loPI   C1B 6285  13.885   2.503  10.775 -0.3403  0.1175  0.0105
  393loPI   C2B 6286  13.829   2.439  10.387 -0.0526  0.2709 -0.0741
  393loPI   C3B 6287  13.861   2.450   9.891 -0.2165 -0.0467 -0.2291
  393loPI   C4B 6288  13.797   2.416   9.480  0.1268 -0.2098 -0.3291
  394loPI    C1 6289   2.878   9.626  11.257  0.2521  0.0923 -0.0039
  394loPI    C2 6290   2.869   9.510  11.640  0.1779  0.0541 -0.0169
  394loPI    C3 6291   3.204   9.469  11.426  0.1142 -0.2646 -0.0599
  394loPI   PO4 6292   2.592   9.757  11.214 -0.1383 -0.0119 -0.1498
  394loPI   GL1 6293   2.510   9.692  10.784  0.0069  0.1413 -0.2492
  394loPI   GL2 6294   2.853   9.502  10.793 -0.1495  0.2198 -0.0041
  394loPI   C1A 6295   2.501   9.800  10.292 -0.1509  0.1087  0.1118
  394loPI   C2A 6296   2.541   9.819   9.873  0.1465  0.3018 -0.0084
  394loPI   C3A 6297   2.447   9.781   9.465 -0.1995 -0.0645  0.1500
  394loPI   C4A 6298   2.533   9.837   9.038  0.3006  0.0559 -0.0214
  394loPI   C5A 6299   2.807   9.685   8.725  0.3251 -0.1997  0.0325
  394loPI   C6A 6300   3.070   9.277   8.521  0.2355  0.1818 -0.2906
  394loPI   C1B 6301   2.801   9.362  10.400 -0.1099 -0.3427  0.0557
  394loPI   C2B 6302   2.941   9.455  10.014  0.1865  0.0859 -0.0787
  394loPI   C3B 6303   2.838   9.508   9.622 -0.2517  0.0457 -0.1040
  394loPI   C4B 6304   2.974   9.625   9.226  0.0759 -0.0167 -0.0255
  395loPI    C1 6305   8.324   4.930  11.608  0.1140 -0.1925  0.0651
  395loPI    C2 6306   8.359   4.701  11.934 -0.0473 -0.0474  0.1865
  395loPI    C3 6307   8.386   5.098  11.966 -0.0414 -0.0337  0.0189
  395loPI   PO4 6308   8.277   4.822  11.495 -0.0444  0.1844  0.1637
  395loPI   GL1 6309   8.123   4.794  11.102  0.1044 -0.0135 -0.0041
  395loPI   GL2 6310   8.299   5.047  11.039  0.0307  0.1519 -0.0030
  395loPI   C1A 6311   8.053   4.694  10.787 -0.2400  0.3378 -0.0149
  395loPI   C2A 6312   7.987   4.716  10.327  0.1290 -0.0009  0.2273
  395loPI   C3A 6313   8.098   4.691   9.873  0.1387 -0.2594 -0.3140
  395loPI   C4A 6314   8.057   4.671   9.423  0.1898 -0.0802  0.1138
  395loPI   C5A 6315   8.209   4.687   8.987  0.1275  0.1922  0.2062
  395loPI   C6A 6316   7.850   4.718   8.691  0.1689  0.0811 -0.1822
  395loPI   C1B 6317   8.142   5.167  10.661  0.0302  0.0948  0.0669
  395loPI   C2B 6318   8.180   5.220  10.257 -0.2562  0.0810 -0.0570
  395loPI   C3B 6319   8.270   5.215   9.934 -0.0173 -0.0867  0.2235
  395loPI   C4B 6320   8.202   5.270   9.491  0.0747 -0.1816 -0.1826
  396loPI    C1 6321  12.466  11.203  11.217  0.3558  0.1432  0.2954
  396loPI    C2 6322  12.587  10.894  11.441  0.0181  0.0412  0.3432
  396loPI    C3 6323  12.286  11.125  11.566 -0.0798  0.0700  0.0611
  396loPI   PO4 6324  12.475  11.090  10.931  0.0700  0.0245  0.0442
  396loPI   GL1 6325  12.347  11.144  10.603  0.0631 -0.1330 -0.0395
  396loPI   GL2 6326  12.691  11.080  10.474  0.0483 -0.2073  0.2129
  396loPI   C1A 6327  12.107  11.127  10.167  0.1510  0.0495 -0.0882
  396loPI   C2A 6328  11.806  11.272   9.903  0.2536 -0.1254  0.3306
  396loPI   C3A 6329  11.743  11.470   9.501 -0.0669 -0.0143 -0.1150
  396loPI   C4A 6330  11.642  11.186   9.184  0.1299  0.0223 -0.1173
  396loPI   C5A 6331  11.928  11.137   8.756  0.1978 -0.1248  0.0026
  396loPI   C6A 6332  11.922  10.874   8.349  0.0842 -0.1841 -0.2308
  396loPI   C1B 6333  12.763  11.056   9.928 -0.2783 -0.0353 -0.1580
  396loPI   C2B 6334  12.842  10.813   9.494 -0.0799  0.2197 -0.0183
  396loPI   C3B 6335  12.491  10.562   9.346  0.0880 -0.1493  0.0989
  396loPI   C4B 6336  12.039  10.463   9.225  0.1843 -0.0608 -0.1456
  397loPI    C1 6337   4.296   6.236  11.602  0.1690 -0.3232 -0.0860
  397loPI    C2 6338   3.971   6.222  11.835  0.0757  0.3435 -0.1557
  397loPI    C3 6339   4.326   6.320  11.992  0.1574  0.0710 -0.1654
  397loPI   PO4 6340   4.194   6.390  11.334  0.0074  0.0277  0.0153
  397loPI   GL1 6341   4.119   6.101  11.004  0.0305  0.0110  0.6462
  397loPI   GL2 6342   4.379   6.350  10.877 -0.1304  0.1821 -0.1125
  397loPI   C1A 6343   4.222   6.073  10.507  0.3149  0.0618  0.1755
  397loPI   C2A 6344   4.192   6.094  10.122 -0.0052  0.0590  0.3609
  397loPI   C3A 6345   4.196   5.892   9.726 -0.1679 -0.1984  0.2738
  397loPI   C4A 6346   4.140   5.918   9.369 -0.1286  0.2129  0.0420
  397loPI   C5A 6347   4.043   5.792   8.929  0.2227 -0.0626 -0.0525
  397loPI   C6A 6348   4.054   5.528   8.496  0.2112  0.2033  0.2780
  397loPI   C1B 6349   4.694   6.296  10.621 -0.1749 -0.1261  0.0160
  397loPI   C2B 6350   4.672   6.308  10.222 -0.0652  0.1624  0.0403
  397loPI   C3B 6351   4.640   6.190   9.819 -0.0383  0.1001 -0.0578
  397loPI   C4B 6352   4.609   6.106   9.437 -0.3222 -0.1098  0.3023
  398loPI    C1 6353  12.692   9.060  11.283 -0.1596  0.2972 -0.3437
  398loPI    C2 6354  12.804   9.398  11.466  0.2707 -0.0681  0.0973
  398loPI    C3 6355  13.027   9.248  11.170 -0.0659  0.1656 -0.2873
  398loPI   PO4 6356  12.434   9.071  11.143 -0.1161  0.2953  0.0485
  398loPI   GL1 6357  12.599   9.271  10.806  0.4200 -0.0712  0.1412
  398loPI   GL2 6358  12.462   8.980  10.671 -0.0798  0.1297  0.1979
  398loPI   C1A 6359  12.840   9.110  10.412  0.0406  0.1352  0.0224
  398loPI   C2A 6360  12.936   8.989   9.966 -0.0546  0.1025  0.0443
  398loPI   C3A 6361  13.032   8.952   9.513 -0.0615 -0.2261 -0.1447
  398loPI   C4A 6362  12.947   8.682   9.239  0.2617 -0.4088  0.0546
  398loPI   C5A 6363  12.982   8.476   8.778  0.0177  0.0279  0.0174
  398loPI   C6A 6364  12.752   8.209   8.606 -0.1419 -0.0314  0.3256
  398loPI   C1B 6365  12.403   8.877  10.194 -0.0666 -0.2994 -0.1587
  398loPI   C2B 6366  12.544   8.758   9.672 -0.1509 -0.2465  0.0326
  398loPI   C3B 6367  12.418   8.670   9.232 -0.1211  0.1707 -0.2643
  398loPI   C4B 6368  12.599   8.852   8.885  0.3579 -0.0807 -0.0913
  399loPI    C1 6369   3.963  16.187  11.595 -0.2387  0.0241 -0.0259
  399loPI    C2 6370   4.011  16.447  11.895 -0.1514 -0.1361  0.0998
  399loPI    C3 6371   4.198  16.093  11.905 -0.3306 -0.2360 -0.0327
  399loPI   PO4 6372   3.943  16.280  11.401  0.2326  0.3419  0.3298
  399loPI   GL1 6373   4.222  16.272  10.968 -0.0120  0.0267 -0.0094
  399loPI   GL2 6374   4.518  15.981  10.850  0.0841 -0.1033 -0.1212
  399loPI   C1A 6375   3.957  16.290  10.605  0.3072  0.1976  0.2491
  399loPI   C2A 6376   3.889  16.399  10.179  0.0918  0.0587 -0.1353
  399loPI   C3A 6377   3.938  16.299   9.753 -0.1721 -0.1060 -0.0593
  399loPI   C4A 6378   3.963  16.324   9.342 -0.1749  0.2019 -0.0274
  399loPI   C5A 6379   3.679  16.196   9.024  0.1758 -0.1789 -0.1202
  399loPI   C6A 6380   3.518  16.129   8.580  0.0545  0.0839  0.0116
  399loPI   C1B 6381   4.391  15.922  10.418 -0.0727 -0.2076 -0.0943
  399loPI   C2B 6382   4.273  15.952   9.941 -0.0530 -0.0704 -0.3124
  399loPI   C3B 6383   4.369  16.016   9.511  0.0561 -0.3976  0.2860
  399loPI   C4B 6384   4.392  16.162   9.030  0.0560 -0.0095 -0.1736
  400loPI    C1 6385  10.810   6.832  11.659 -0.0077  0.0984 -0.0537
  400loPI    C2 6386  10.799   7.225  11.730 -0.0388  0.0661  0.1247
  400loPI    C3 6387  10.458   7.019  11.690 -0.0237  0.0382  0.1395
  400loPI   PO4 6388  11.068   6.790  11.549  0.0401 -0.0356  0.2232
  400loPI   GL1 6389  11.322   6.634  11.226  0.1637 -0.1869  0.1603
  400loPI   GL2 6390  11.213   6.783  11.022  0.1970  0.0018  0.1966
  400loPI   C1A 6391  11.247   6.280  10.883 -0.3020 -0.3642  0.0246
  400loPI   C2A 6392  11.165   6.339  10.427 -0.1208  0.1261  0.4654
  400loPI   C3A 6393  11.201   6.294   9.977 -0.0375  0.0128  0.3056
  400loPI   C4A 6394  11.129   6.407   9.614 -0.1268  0.1394 -0.0179
  400loPI   C5A 6395  11.060   6.451   9.197 -0.0576  0.0811 -0.0207
  400loPI   C6A 6396  11.185   6.704   8.824 -0.2823  0.5103 -0.2679
  400loPI   C1B 6397  11.221   6.856  10.533  0.2131 -0.1025 -0.1552
  400loPI   C2B 6398  11.223   6.764  10.152  0.2288  0.2590 -0.0454
  400loPI   C3B 6399  11.224   6.882   9.730  0.0577  0.0444 -0.0940
  400loPI   C4B 6400  11.205   6.921   9.339  0.5099  0.2912 -0.2422
  401loPI    C1 6401  15.220   3.486  11.398  0.0096  0.2061  0.0252
  401loPI    C2 6402  15.429   3.565  11.730  0.1603 -0.1486  0.0194
  401loPI    C3 6403  15.517   3.753  11.389  0.1153  0.0941  0.1397
  401loPI   PO4 6404  15.188   3.201  11.335 -0.0394  0.0336 -0.1585
  401loPI   GL1 6405  15.142   2.979  10.948  0.1143 -0.0488 -0.2222
  401loPI   GL2 6406  15.475   3.151  10.880  0.0865  0.0693 -0.0436
  401loPI   C1A 6407  14.923   2.868  10.625  0.0472  0.1441  0.1711
  401loPI   C2A 6408  14.857   2.809  10.277 -0.0577  0.2814  0.0495
  401loPI   C3A 6409  14.800   2.854   9.818 -0.1672 -0.4236  0.1237
  401loPI   C4A 6410  14.719   2.838   9.429  0.0395  0.1558  0.1595
  401loPI   C5A 6411  14.745   2.549   9.011 -0.2659  0.1820  0.0657
  401loPI   C6A 6412  14.634   2.151   8.741  0.1937 -0.0281 -0.0833
  401loPI   C1B 6413  15.367   3.060  10.436  0.0023  0.0948  0.2262
  401loPI   C2B 6414  15.239   3.039  10.025 -0.1033 -0.0157 -0.0114
  401loPI   C3B 6415  15.229   2.981   9.555 -0.0099 -0.3085 -0.2375
  401loPI   C4B 6416  15.270   2.982   9.063  0.0244 -0.2355 -0.0164
  402loPI    C1 6417   7.791  11.130  11.599  0.0838  0.1038 -0.0632
  402loPI    C2 6418   8.053  11.432  11.622  0.1047  0.0745  0.0940
  402loPI    C3 6419   7.707  11.452  11.822  0.1375 -0.0368  0.1625
  402loPI   PO4 6420   7.831  11.073  11.258 -0.2001  0.1233 -0.4188
  402loPI   GL1 6421   7.953  10.861  10.902  0.1618 -0.0927  0.0038
  402loPI   GL2 6422   8.258  10.640  10.807 -0.1351 -0.4526 -0.1820
  402loPI   C1A 6423   7.805  10.920  10.468  0.1622 -0.1011 -0.0434
  402loPI   C2A 6424   7.785  10.832  10.049  0.3924  0.0962 -0.0130
  402loPI   C3A 6425   7.670  10.873   9.633  0.0805 -0.1208 -0.1917
  402loPI   C4A 6426   7.768  10.815   9.202  0.3025 -0.1440  0.0327
  402loPI   C5A 6427   7.561  10.925   8.808 -0.3131 -0.1409 -0.1101
  402loPI   C6A 6428   7.186  11.037   8.579 -0.3139 -0.1988 -0.2959
  402loPI   C1B 6429   8.122  10.552  10.334  0.2853  0.0739 -0.3241
  402loPI   C2B 6430   8.211  10.631   9.960 -0.1419  0.2507  0.1483
  402loPI   C3B 6431   8.101  10.560   9.593  0.2337 -0.2872  0.1840
  402loPI   C4B 6432   8.111  10.492   9.183  0.0555 -0.1093 -0.1506
  403loPI    C1 6433  16.753  16.088  11.768  0.1994  0.1518 -0.1246
  403loPI    C2 6434  16.765  16.317  12.095  0.0975  0.0378 -0.0401
  403loPI    C3 6435  17.086  16.105  11.987  0.1811  0.1933 -0.0998
  403loPI   PO4 6436  16.695  16.208  11.616  0.1372 -0.0768 -0.0371
  403loPI   GL1 6437  16.856  15.989  11.125 -0.0478 -0.0024 -0.1235
  403loPI   GL2 6438  16.618  16.249  11.106 -0.0647 -0.0180 -0.2272
  403loPI   C1A 6439  16.752  15.888  10.586 -0.0669  0.0559  0.0167
  403loPI   C2A 6440  16.768  15.930  10.128  0.2284 -0.0642  0.0655
  403loPI   C3A 6441  16.887  15.892   9.654 -0.1853 -0.0626  0.1321
  403loPI   C4A 6442  16.841  15.884   9.190 -0.0261  0.1214  0.3610
  403loPI   C5A 6443  16.857  15.812   8.688  0.0666 -0.0574  0.3312
  403loPI   C6A 6444  17.163  15.643   8.298 -0.5850  0.0890 -0.3319
  403loPI   C1B 6445  16.409  16.216  10.762  0.2666  0.3424  0.4113
  403loPI   C2B 6446  16.404  16.198  10.365 -0.1997  0.3279 -0.0967
  403loPI   C3B 6447  16.321  16.245   9.959  0.0810  0.2070  0.1375
  403loPI   C4B 6448  16.410  16.223   9.580  0.0769 -0.3320  0.1311
  404loPI    C1 6449  12.894  13.580  11.296  0.0144  0.1226  0.0900
  404loPI    C2 6450  13.257  13.579  11.464 -0.0153 -0.0044  0.1552
  404loPI    C3 6451  12.975  13.330  11.598 -0.1322  0.1057  0.1161
  404loPI   PO4 6452  12.950  13.546  11.035 -0.2561 -0.0597 -0.0358
  404loPI   GL1 6453  12.861  13.666  10.656 -0.1979  0.1101  0.0399
  404loPI   GL2 6454  12.709  13.952  10.551 -0.1915  0.2356  0.2213
  404loPI   C1A 6455  12.757  13.348  10.377  0.1133 -0.0526 -0.1975
  404loPI   C2A 6456  12.817  13.345  10.037 -0.2494  0.0677  0.0093
  404loPI   C3A 6457  12.914  13.471   9.686  0.0225  0.1452 -0.1292
  404loPI   C4A 6458  12.724  13.419   9.244  0.0320  0.1867  0.1244
  404loPI   C5A 6459  12.548  13.576   8.836 -0.0260 -0.1405 -0.0519
  404loPI   C6A 6460  12.794  13.682   8.501  0.0087  0.1065  0.0478
  404loPI   C1B 6461  12.899  13.789  10.128 -0.0973 -0.1579 -0.0890
  404loPI   C2B 6462  13.260  13.821   9.880 -0.2580  0.0039 -0.1600
  404loPI   C3B 6463  13.300  13.776   9.356 -0.2190  0.0881  0.1221
  404loPI   C4B 6464  13.331  13.986   8.996 -0.4506 -0.0250  0.2035
  405loPI    C1 6465   0.653   8.230  11.528  0.0898 -0.1002  0.3547
  405loPI    C2 6466   0.646   8.606  11.666  0.2065  0.0256  0.0277
  405loPI    C3 6467   0.303   8.408  11.608  0.1216  0.2336 -0.1961
  405loPI   PO4 6468   0.876   8.259  11.315 -0.1261  0.0498 -0.0483
  405loPI   GL1 6469   1.003   8.023  10.884 -0.0258 -0.1043 -0.4172
  405loPI   GL2 6470   1.315   8.100  10.702 -0.0551  0.0803  0.0389
  405loPI   C1A 6471   0.824   8.308  10.465  0.0034 -0.2003  0.1640
  405loPI   C2A 6472   0.766   8.271  10.017 -0.3588  0.0012 -0.3390
  405loPI   C3A 6473   0.840   8.183   9.552 -0.1017  0.0524  0.0196
  405loPI   C4A 6474   0.867   8.081   9.100 -0.1751 -0.0908  0.2876
  405loPI   C5A 6475   1.067   7.861   8.745 -0.0965  0.1505  0.2674
  405loPI   C6A 6476   1.163   7.968   8.314 -0.0651  0.1049  0.1999
  405loPI   C1B 6477   1.150   7.933  10.355  0.1019  0.3442 -0.1288
  405loPI   C2B 6478   1.190   7.998   9.934 -0.2392 -0.1933  0.1112
  405loPI   C3B 6479   1.320   7.735   9.536 -0.0509 -0.0712  0.0020
  405loPI   C4B 6480   1.308   7.849   9.187  0.2687 -0.0719 -0.1162
  406loPI    C1 6481  13.251   6.070  11.532  0.0685  0.1072  0.3064
  406loPI    C2 6482  13.252   6.070  11.932 -0.2387 -0.0987  0.3107
  406loPI    C3 6483  13.153   5.738  11.732 -0.2337  0.0458  0.0637
  406loPI   PO4 6484  13.439   6.117  11.405  0.0555 -0.2933 -0.0993
  406loPI   GL1 6485  13.407   6.215  11.026 -0.0800 -0.0097  0.0441
  406loPI   GL2 6486  13.288   5.850  10.881 -0.2689 -0.4705 -0.3150
  406loPI   C1A 6487  13.475   6.267  10.622 -0.1991 -0.1043 -0.0933
  406loPI   C2A 6488  13.395   6.212  10.255  0.1074  0.1799  0.0789
  406loPI   C3A 6489  13.448   6.202   9.875 -0.1962 -0.0731 -0.0244
  406loPI   C4A 6490  13.402   6.144   9.484 -0.0550  0.1368 -0.0716
  406loPI   C5A 6491  13.289   6.217   9.036  0.2393  0.1985  0.0146
  406loPI   C6A 6492  13.400   6.191   8.575 -0.3442  0.1817 -0.1383
  406loPI   C1B 6493  13.247   5.760  10.517  0.0946  0.0173 -0.0112
  406loPI   C2B 6494  13.384   5.727  10.102  0.0692  0.1067 -0.1172
  406loPI   C3B 6495  13.332   5.690   9.648 -0.0471 -0.1631 -0.0768
  406loPI   C4B 6496  13.245   5.738   9.226  0.1119  0.0912 -0.0542
  407loPI    C1 6497  16.645  14.515  11.081  0.1235  0.0176 -0.1297
  407loPI    C2 6498  16.429  14.205  11.214 -0.1133  0.2808  0.1143
  407loPI    C3 6499  16.786  14.285  11.376 -0.0761  0.1693  0.0883
  407loPI   PO4 6500  16.588  14.512  10.868 -0.1231 -0.2439  0.0315
  407loPI   GL1 6501  16.441  14.667  10.573 -0.1385  0.1644  0.1752
  407loPI   GL2 6502  16.142  14.511  10.521  0.1143 -0.2346  0.0672
  407loPI   C1A 6503  16.794  14.673  10.301 -0.0393  0.2423  0.0135
  407loPI   C2A 6504  16.720  14.793   9.866 -0.4793 -0.0439 -0.0203
  407loPI   C3A 6505  16.683  14.959   9.423 -0.0180  0.0131  0.1828
  407loPI   C4A 6506  16.710  14.924   9.041 -0.0774 -0.3838  0.1540
  407loPI   C5A 6507  16.765  14.800   8.571  0.0318  0.0965  0.0485
  407loPI   C6A 6508  16.892  14.407   8.404 -0.0361  0.0540 -0.0055
  407loPI   C1B 6509  16.279  14.687  10.065  0.2195 -0.0665  0.0332
  407loPI   C2B 6510  16.206  14.699   9.690 -0.1351 -0.1055  0.1636
  407loPI   C3B 6511  16.278  14.700   9.190  0.0607  0.0485  0.1457
  407loPI   C4B 6512  16.240  14.891   8.740  0.0324 -0.1665 -0.3502
  408loPI    C1 6513  13.291  12.906  11.479  0.1728 -0.0178 -0.2070
  408loPI    C2 6514  13.433  13.122  11.784  0.3804  0.0816 -0.3718
  408loPI    C3 6515  13.633  12.799  11.658  0.0332 -0.2571 -0.0781
  408loPI   PO4 6516  13.342  13.142  11.223  0.2798  0.1614 -0.0808
  408loPI   GL1 6517  13.491  13.083  10.840 -0.0741  0.0769  0.2306
  408loPI   GL2 6518  13.146  13.142  10.769 -0.1865 -0.2200 -0.0321
  408loPI   C1A 6519  13.620  12.788  10.507 -0.0194 -0.0308 -0.0819
  408loPI   C2A 6520  13.850  12.699  10.145  0.1210 -0.5666 -0.4494
  408loPI   C3A 6521  13.777  12.826   9.679  0.1140 -0.2386  0.0609
  408loPI   C4A 6522  13.570  12.810   9.306  0.1661 -0.2606 -0.1637
  408loPI   C5A 6523  13.170  12.636   9.175 -0.0510 -0.0834 -0.0191
  408loPI   C6A 6524  12.883  12.686   8.850 -0.1684  0.3763 -0.1610
  408loPI   C1B 6525  13.070  12.963  10.496  0.1011  0.0268 -0.0419
  408loPI   C2B 6526  12.906  12.875  10.230 -0.0610 -0.0623  0.0165
  408loPI   C3B 6527  12.737  12.846   9.837 -0.0147 -0.1226  0.2978
  408loPI   C4B 6528  12.694  12.851   9.383 -0.2867 -0.1693 -0.1973
  409loPI    C1 6529   6.605  16.627  11.596 -0.0403 -0.0693 -0.1281
  409loPI    C2 6530   6.251  16.500  11.733 -0.0281  0.0625  0.0287
  409loPI    C3 6531   6.506  16.241  11.566 -0.2528 -0.0101 -0.2083
  409loPI   PO4 6532   6.537  16.831  11.385  0.0914 -0.0062  0.2751
  409loPI   GL1 6533   6.524  17.066  11.050 -0.1326 -0.0733 -0.0765
  409loPI   GL2 6534   6.368  16.828  10.886 -0.0277  0.1526  0.0372
  409loPI   C1A 6535   6.534  17.164  10.624  0.0259  0.0460 -0.1552
  409loPI   C2A 6536   6.463  17.125  10.191  0.2090 -0.0795  0.2357
  409loPI   C3A 6537   6.365  17.131   9.729 -0.2870  0.1646  0.4142
  409loPI   C4A 6538   6.327  17.245   9.358  0.2229 -0.0846 -0.0135
  409loPI   C5A 6539   6.453  17.350   8.880 -0.1597  0.1668 -0.2672
  409loPI   C6A 6540   6.607  17.782   8.736  0.0016  0.2083  0.0997
  409loPI   C1B 6541   6.392  16.598  10.444 -0.1340 -0.1215 -0.2156
  409loPI   C2B 6542   6.370  16.600  10.023  0.0947  0.0594 -0.0381
  409loPI   C3B 6543   6.308  16.667   9.639 -0.1484 -0.0897  0.1849
  409loPI   C4B 6544   6.256  16.678   9.208 -0.3376  0.1746 -0.1749
  410loPI    C1 6545   8.471   6.737  11.619  0.0741 -0.1991  0.0196
  410loPI    C2 6546   8.384   7.081  11.803  0.1070 -0.1799 -0.0007
  410loPI    C3 6547   8.114   6.909  11.563  0.1190 -0.1281 -0.0518
  410loPI   PO4 6548   8.707   6.829  11.479  0.1785 -0.2940  0.3396
  410loPI   GL1 6549   8.820   6.899  11.026 -0.0389 -0.1641  0.1296
  410loPI   GL2 6550   9.009   6.604  11.185 -0.3623 -0.0426  0.0122
  410loPI   C1A 6551   8.512   6.848  10.707 -0.0129  0.0903 -0.1356
  410loPI   C2A 6552   8.469   6.712  10.308  0.0331  0.0386 -0.0557
  410loPI   C3A 6553   8.493   6.683   9.896  0.0906  0.0108 -0.0537
  410loPI   C4A 6554   8.451   6.743   9.522 -0.0542 -0.1553  0.0912
  410loPI   C5A 6555   8.529   6.845   9.116  0.2234  0.0702 -0.0813
  410loPI   C6A 6556   8.424   6.836   8.685  0.0261 -0.1110  0.0274
  410loPI   C1B 6557   8.860   6.442  10.791 -0.1755 -0.2438  0.0822
  410loPI   C2B 6558   8.886   6.443  10.367  0.0922 -0.0457  0.2075
  410loPI   C3B 6559   8.900   6.396   9.887  0.3360  0.2048 -0.0325
  410loPI   C4B 6560   8.847   6.383   9.403 -0.0383  0.1643 -0.0251
  411loPI    C1 6561   7.946   2.402  11.400 -0.0544  0.2010 -0.1540
  411loPI    C2 6562   7.739   2.520  11.722 -0.1167 -0.0079 -0.1156
  411loPI    C3 6563   7.865   2.142  11.693  0.0720  0.0627 -0.2407
  411loPI   PO4 6564   8.099   2.646  11.418  0.0728  0.1255 -0.1718
  411loPI   GL1 6565   7.954   2.685  10.979  0.0630 -0.1319 -0.0350
  411loPI   GL2 6566   7.918   2.261  10.916  0.0061  0.1266  0.1988
  411loPI   C1A 6567   7.833   2.560  10.555  0.1369 -0.0369  0.1885
  411loPI   C2A 6568   7.812   2.596  10.058  0.2522 -0.2529  0.1205
  411loPI   C3A 6569   7.628   2.639   9.655  0.0645  0.0006  0.0713
  411loPI   C4A 6570   7.682   2.621   9.272  0.0453  0.3103 -0.2927
  411loPI   C5A 6571   8.014   2.742   8.987 -0.4757  0.1229 -0.2353
  411loPI   C6A 6572   8.411   2.571   8.736 -0.0490  0.1912  0.0301
  411loPI   C1B 6573   8.220   2.255  10.523  0.2239 -0.0217 -0.1296
  411loPI   C2B 6574   8.295   2.312  10.150  0.2528  0.1409  0.1082
  411loPI   C3B 6575   8.255   2.242   9.790 -0.1313 -0.2327 -0.1310
  411loPI   C4B 6576   8.110   2.387   9.425 -0.1519 -0.1492 -0.0078
  412loPI    C1 6577   6.694  12.015  11.300 -0.1693  0.0259 -0.4140
  412loPI    C2 6578   6.973  12.237  11.118 -0.0553  0.0595 -0.2026
  412loPI    C3 6579   7.029  12.117  11.495 -0.4326  0.2674 -0.0748
  412loPI   PO4 6580   6.593  11.955  11.118  0.0771 -0.1250  0.0225
  412loPI   GL1 6581   6.399  11.974  10.744 -0.1419  0.3571  0.0906
  412loPI   GL2 6582   6.623  12.299  10.782  0.0041  0.2657 -0.1355
  412loPI   C1A 6583   6.557  11.799  10.470  0.1866  0.0834 -0.0429
  412loPI   C2A 6584   6.612  11.815  10.047 -0.1476 -0.0161 -0.1750
  412loPI   C3A 6585   6.522  11.853   9.544 -0.0037  0.0641 -0.1698
  412loPI   C4A 6586   6.404  12.017   9.172 -0.1595  0.3478 -0.0315
  412loPI   C5A 6587   6.093  12.015   8.851  0.0458 -0.2442 -0.2704
  412loPI   C6A 6588   6.143  12.233   8.430  0.1946 -0.0049  0.2126
  412loPI   C1B 6589   6.508  12.282  10.268  0.2043 -0.1674  0.0286
  412loPI   C2B 6590   6.535  12.290   9.785 -0.2216 -0.2837 -0.0734
  412loPI   C3B 6591   6.592  12.394   9.423  0.2474  0.1812 -0.1794
  412loPI   C4B 6592   6.395  12.448   9.001  0.2443 -0.1847  0.0080
  413loPI    C1 6593   6.299   6.792  11.435  0.2565  0.0891 -0.0279
  413loPI    C2 6594   6.574   6.970  11.665  0.0658  0.2102  0.1092
  413loPI    C3 6595   6.273   6.768  11.834  0.1210 -0.0015 -0.0419
  413loPI   PO4 6596   6.447   6.836  11.168  0.0097 -0.3063 -0.1014
  413loPI   GL1 6597   6.609   6.617  10.844  0.0451 -0.1384 -0.1167
  413loPI   GL2 6598   6.973   6.714  10.904 -0.1565  0.0196 -0.0657
  413loPI   C1A 6599   6.467   6.472  10.464  0.2371  0.3169  0.2548
  413loPI   C2A 6600   6.498   6.497   9.912  0.1384 -0.2013 -0.0077
  413loPI   C3A 6601   6.678   6.522   9.604 -0.2303 -0.1532  0.2385
  413loPI   C4A 6602   6.687   6.607   9.059  0.3918 -0.2721 -0.1170
  413loPI   C5A 6603   6.622   6.851   8.667  0.1324  0.1112  0.0710
  413loPI   C6A 6604   6.405   7.043   8.443  0.0481  0.3189 -0.0422
  413loPI   C1B 6605   6.920   6.674  10.456 -0.1235 -0.0836  0.0915
  413loPI   C2B 6606   7.034   6.693  10.005 -0.0719 -0.0293 -0.0710
  413loPI   C3B 6607   7.199   6.701   9.593 -0.3471 -0.0513  0.2364
  413loPI   C4B 6608   7.179   6.863   9.104  0.1651  0.3201  0.0710
  414loPI    C1 6609   5.020  13.416  11.743  0.0989 -0.1793 -0.0286
  414loPI    C2 6610   4.692  13.613  11.860  0.2948  0.2926 -0.2485
  414loPI    C3 6611   4.961  13.495  12.131  0.0031  0.0005 -0.0786
  414loPI   PO4 6612   5.133  13.655  11.566 -0.2351  0.0036 -0.0202
  414loPI   GL1 6613   5.274  13.871  11.235 -0.0223  0.4954 -0.3547
  414loPI   GL2 6614   5.288  14.271  11.202  0.1413  0.3069  0.1340
  414loPI   C1A 6615   5.417  13.951  10.855 -0.5011  0.1020 -0.2926
  414loPI   C2A 6616   5.524  13.887  10.454 -0.0127 -0.3233 -0.1037
  414loPI   C3A 6617   5.477  13.846   9.972  0.0798 -0.0226  0.1405
  414loPI   C4A 6618   5.430  13.748   9.558 -0.2654  0.2235  0.0782
  414loPI   C5A 6619   5.266  13.951   9.138 -0.1061  0.2014  0.1473
  414loPI   C6A 6620   5.026  13.969   8.697  0.3144  0.1182  0.2473
  414loPI   C1B 6621   5.060  14.291  10.728 -0.0880  0.1217 -0.2398
  414loPI   C2B 6622   5.000  14.170  10.325 -0.1840 -0.0294  0.1816
  414loPI   C3B 6623   4.995  14.182   9.894 -0.1491  0.1855 -0.2929
  414loPI   C4B 6624   5.014  14.228   9.436  0.3262  0.0362  0.0395
  415loPI    C1 6625  16.959   3.596  11.814 -0.1768 -0.1716  0.1006
  415loPI    C2 6626  17.277   3.386  11.935  0.1377  0.1508 -0.1462
  415loPI    C3 6627  17.201   3.745  12.094 -0.1041  0.0769 -0.0904
  415loPI   PO4 6628  16.993   3.596  11.540 -0.2954  0.0096  0.1550
  415loPI   GL1 6629  17.198   3.594  11.153  0.0718  0.1234  0.0287
  415loPI   GL2 6630  17.306   3.921  10.946  0.1620 -0.1147 -0.1474
  415loPI   C1A 6631  17.243   3.332  10.760  0.0021  0.0518 -0.0352
  415loPI   C2A 6632  17.207   3.250  10.313  0.1520 -0.1719  0.1118
  415loPI   C3A 6633  17.112   3.268   9.855  0.0405  0.0727  0.5595
  415loPI   C4A 6634  17.289   3.200   9.437 -0.2336 -0.0939  0.0132
  415loPI   C5A 6635  17.496   3.246   9.025  0.3527 -0.0597  0.0715
  415loPI   C6A 6636  17.480   2.966   8.629 -0.0616  0.1449  0.1400
  415loPI   C1B 6637  17.253   3.828  10.497  0.0325  0.1112 -0.1335
  415loPI   C2B 6638  17.216   3.771  10.136 -0.2079  0.1943 -0.3959
  415loPI   C3B 6639  17.272   3.722   9.708 -0.2412  0.1001 -0.2998
  415loPI   C4B 6640  17.137   3.620   9.255  0.3445 -0.0741  0.2231
  416loPI    C1 6641   4.751  14.808  11.742  0.0438 -0.0576  0.0056
  416loPI    C2 6642   4.750  15.154  11.943 -0.1279 -0.0950  0.0709
  416loPI    C3 6643   5.014  14.869  12.037  0.1626  0.1021 -0.1313
  416loPI   PO4 6644   4.792  14.905  11.427 -0.0736  0.0806 -0.0938
  416loPI   GL1 6645   4.802  14.650  10.998 -0.2150  0.1024  0.2271
  416loPI   GL2 6646   5.122  14.696  10.933  0.0083 -0.0702  0.2650
  416loPI   C1A 6647   4.557  14.517  10.618 -0.2057  0.0360  0.0446
  416loPI   C2A 6648   4.621  14.454  10.225 -0.1543 -0.0191 -0.3421
  416loPI   C3A 6649   4.698  14.531   9.760 -0.0514  0.1178  0.3019
  416loPI   C4A 6650   4.567  14.652   9.302  0.1597  0.2932  0.0803
  416loPI   C5A 6651   4.652  14.725   8.927 -0.0240 -0.2696  0.0628
  416loPI   C6A 6652   4.680  14.847   8.479 -0.0737 -0.0499  0.0602
  416loPI   C1B 6653   5.205  14.707  10.453 -0.0621 -0.1245 -0.0848
  416loPI   C2B 6654   5.154  14.606  10.013  0.0503 -0.1246  0.2539
  416loPI   C3B 6655   5.183  14.684   9.682 -0.0080 -0.1003 -0.1352
  416loPI   C4B 6656   4.986  14.862   9.306 -0.2717  0.4616 -0.2496
  417loPI    C1 6657  15.153   0.975  11.787 -0.1398  0.0019  0.1115
  417loPI    C2 6658  15.348   0.670  11.958 -0.0544  0.0476  0.0960
  417loPI    C3 6659  15.154   0.936  12.185  0.1100  0.1425  0.1273
  417loPI   PO4 6660  15.298   1.056  11.604 -0.1964  0.0248  0.5165
  417loPI   GL1 6661  15.101   1.160  11.235 -0.2691 -0.2101  0.1464
  417loPI   GL2 6662  14.957   0.943  11.155 -0.0274  0.0715 -0.2677
  417loPI   C1A 6663  15.285   1.139  10.722 -0.0604 -0.2321 -0.4588
  417loPI   C2A 6664  15.463   1.260  10.276 -0.1076  0.0908  0.1384
  417loPI   C3A 6665  15.398   1.133   9.838  0.2535  0.2426  0.1974
  417loPI   C4A 6666  15.377   1.132   9.403 -0.1738  0.1608 -0.0449
  417loPI   C5A 6667  15.413   1.112   8.985  0.0185 -0.1388  0.1249
  417loPI   C6A 6668  15.224   0.859   8.762  0.0088  0.2512  0.0312
  417loPI   C1B 6669  14.810   1.006  10.739 -0.0287 -0.2185  0.2808
  417loPI   C2B 6670  14.840   1.002  10.342  0.2672  0.0438  0.0005
  417loPI   C3B 6671  14.875   0.956   9.857  0.1263  0.1513  0.0789
  417loPI   C4B 6672  14.954   0.904   9.449  0.0847  0.0225 -0.0377
  418loPI    C1 6673  12.842   3.153  11.592  0.1234 -0.1660  0.2355
  418loPI    C2 6674  12.664   3.152  11.950  0.1314 -0.1281  0.2396
  418loPI    C3 6675  13.034   3.301  11.911  0.0995 -0.0585  0.2005
  418loPI   PO4 6676  12.846   2.888  11.436  0.1531  0.0014 -0.0407
  418loPI   GL1 6677  13.141   2.643  11.332  0.1359 -0.1295 -0.2941
  418loPI   GL2 6678  13.275   2.347  11.140 -0.1639 -0.0001 -0.2135
  418loPI   C1A 6679  12.893   2.734  10.776 -0.0307 -0.2229 -0.1827
  418loPI   C2A 6680  12.820   2.586  10.325 -0.1378 -0.0309 -0.0645
  418loPI   C3A 6681  12.932   2.626  10.029  0.1632  0.1036  0.1468
  418loPI   C4A 6682  12.926   2.641   9.633 -0.0603  0.3255  0.4702
  418loPI   C5A 6683  12.884   2.594   9.215  0.0227 -0.2347 -0.0173
  418loPI   C6A 6684  12.570   2.521   8.857 -0.0932 -0.0770 -0.0595
  418loPI   C1B 6685  13.229   2.303  10.656  0.0648 -0.1836  0.0365
  418loPI   C2B 6686  13.329   2.312  10.209 -0.2082 -0.2650 -0.1151
  418loPI   C3B 6687  13.400   2.231   9.785  0.2293  0.1365  0.1402
  418loPI   C4B 6688  13.390   2.237   9.340  0.4107 -0.1649 -0.1631
  419loPI    C1 6689   3.656   8.106  11.240 -0.3339 -0.0900  0.1431
  419loPI    C2 6690   3.714   8.343  11.556 -0.2322  0.0336  0.0330
  419loPI    C3 6691   3.619   7.958  11.609  0.0384 -0.0113  0.2163
  419loPI   PO4 6692   3.496   8.259  11.130  0.0189 -0.1514  0.3979
  419loPI   GL1 6693   3.214   8.102  10.826  0.0844 -0.2848  0.0207
  419loPI   GL2 6694   3.453   7.893  10.762 -0.2872 -0.4246 -0.0757
  419loPI   C1A 6695   3.109   8.180  10.418  0.0296 -0.1098  0.0357
  419loPI   C2A 6696   3.181   8.141   9.973 -0.0325 -0.0175  0.1390
  419loPI   C3A 6697   3.158   8.105   9.537 -0.0782  0.2539 -0.2318
  419loPI   C4A 6698   3.228   8.012   9.144  0.2526  0.0217 -0.1433
  419loPI   C5A 6699   3.046   7.992   8.695 -0.1531 -0.0007 -0.0938
  419loPI   C6A 6700   2.973   8.349   8.373  0.1743 -0.0969 -0.2068
  419loPI   C1B 6701   3.511   7.873  10.361  0.1096 -0.2205  0.0859
  419loPI   C2B 6702   3.552   7.800   9.885  0.0217  0.1853 -0.1498
  419loPI   C3B 6703   3.666   7.711   9.461 -0.1522 -0.1954 -0.0365
  419loPI   C4B 6704   3.564   7.536   9.005  0.3267 -0.1518 -0.3391
  420loPI    C1 6705  10.690   0.063  11.694 -0.0332  0.0514 -0.0140
  420loPI    C2 6706  10.718   0.377  11.447  0.0081 -0.1272 -0.2394
  420loPI    C3 6707  10.807   0.419  11.835 -0.0764  0.1608 -0.2491
  420loPI   PO4 6708  10.749  -0.193  11.489  0.0970 -0.0790 -0.0627
  420loPI   GL1 6709  10.826   0.050  11.061 -0.1731 -0.0200  0.1583
  420loPI   GL2 6710  11.189   0.155  10.952 -0.3554 -0.2828 -0.0167
  420loPI   C1A 6711  10.629   0.199  10.762  0.2221  0.0905 -0.0442
  420loPI   C2A 6712  10.688   0.292  10.303  0.1196  0.0673  0.1190
  420loPI   C3A 6713  10.760   0.395   9.902 -0.0786 -0.1047 -0.2376
  420loPI   C4A 6714  10.698   0.323   9.430  0.0530  0.0614  0.0141
  420loPI   C5A 6715  10.894   0.030   9.106 -0.2110 -0.3200 -0.0296
  420loPI   C6A 6716  11.201  -0.079   8.875  0.2019 -0.0998  0.0484
  420loPI   C1B 6717  11.107   0.465  10.631  0.0153  0.0360 -0.2371
  420loPI   C2B 6718  11.108   0.582  10.231  0.0164  0.1496  0.0173
  420loPI   C3B 6719  11.281   0.615   9.858 -0.0806 -0.2366  0.3879
  420loPI   C4B 6720  11.280   0.549   9.467 -0.1569 -0.2304  0.0234
  421loPI    C1 6721   5.518   4.271  11.664 -0.0315  0.1161 -0.1733
  421loPI    C2 6722   5.402   4.252  12.046  0.0235  0.1597 -0.1542
  421loPI    C3 6723   5.702   4.021  11.916  0.1470  0.2991 -0.1192
  421loPI   PO4 6724   5.338   4.149  11.536  0.1009 -0.3355 -0.1410
  421loPI   GL1 6725   5.330   4.035  11.198 -0.2200  0.5840  0.1032
  421loPI   GL2 6726   5.475   3.748  11.147 -0.2605  0.0854  0.0581
  421loPI   C1A 6727   5.183   4.013  10.790 -0.1520  0.0926 -0.2171
  421loPI   C2A 6728   5.231   4.057  10.426  0.2086 -0.1135 -0.0407
  421loPI   C3A 6729   5.220   4.010   9.910 -0.2374 -0.2909  0.2062
  421loPI   C4A 6730   5.306   4.061   9.408 -0.4371 -0.3576  0.0889
  421loPI   C5A 6731   5.493   4.070   8.976  0.1027 -0.1347  0.4334
  421loPI   C6A 6732   5.692   3.957   8.646  0.1291 -0.1689  0.0242
  421loPI   C1B 6733   5.553   3.764  10.700  0.0016 -0.1032  0.3298
  421loPI   C2B 6734   5.585   3.747  10.189  0.1254  0.0176  0.0681
  421loPI   C3B 6735   5.616   3.717   9.752  0.2265 -0.3012 -0.1188
  421loPI   C4B 6736   5.772   3.795   9.312  0.1341 -0.1718  0.2595
  422loPI    C1 6737   0.239  10.741  11.320  0.3269  0.1231  0.0037
  422loPI    C2 6738   0.047  11.062  11.462 -0.0952  0.0286 -0.3340
  422loPI    C3 6739  -0.091  10.695  11.542  0.3737 -0.0778  0.0339
  422loPI   PO4 6740   0.311  10.801  11.038  0.2037  0.0635  0.2761
  422loPI   GL1 6741   0.164  10.539  10.658 -0.0430  0.2018  0.1127
  422loPI   GL2 6742   0.418  10.507  10.475  0.0311 -0.1048  0.1414
  422loPI   C1A 6743  -0.015  10.182  10.407 -0.0147 -0.0449  0.2435
  422loPI   C2A 6744   0.006  10.033   9.930  0.1045 -0.2051 -0.0794
  422loPI   C3A 6745   0.148   9.915   9.571  0.0869 -0.1676  0.1624
  422loPI   C4A 6746   0.124   9.842   9.168 -0.1591  0.1526  0.2476
  422loPI   C5A 6747  -0.192   9.992   8.873 -0.0503  0.2407  0.1808
  422loPI   C6A 6748  -0.553  10.025   8.638  0.1195  0.1975 -0.1726
  422loPI   C1B 6749   0.171  10.487  10.038 -0.2156 -0.2308  0.0966
  422loPI   C2B 6750   0.219  10.386   9.608 -0.4127 -0.0395 -0.0792
  422loPI   C3B 6751   0.171  10.340   9.188 -0.2323 -0.1272  0.0836
  422loPI   C4B 6752   0.228  10.239   8.710 -0.0084  0.1816 -0.1604
  423loPI    C1 6753  14.118  17.515  12.348 -0.0075  0.1932  0.1534
  423loPI    C2 6754  13.910  17.173  12.354  0.1400  0.0944 -0.1546
  423loPI    C3 6755  14.270  17.192  12.529  0.1205  0.1004 -0.1150
  423loPI   PO4 6756  14.212  17.595  12.028  0.0750  0.0798  0.1803
  423loPI   GL1 6757  14.239  17.668  11.450  0.0418  0.1822  0.0571
  423loPI   GL2 6758  14.056  17.529  11.402  0.1098 -0.0252  0.2462
  423loPI   C1A 6759  14.234  17.888  11.042 -0.0813  0.1274 -0.1658
  423loPI   C2A 6760  14.283  17.844  10.634  0.0519 -0.1365 -0.3775
  423loPI   C3A 6761  14.333  17.911  10.155 -0.0608  0.0176  0.3832
  423loPI   C4A 6762  14.471  17.838   9.710  0.2855  0.0154  0.0404
  423loPI   C5A 6763  14.571  17.595   9.383  0.1090  0.2761  0.1527
  423loPI   C6A 6764  14.902  17.451   9.250 -0.1844  0.3051  0.1049
  423loPI   C1B 6765  14.110  17.313  10.989 -0.1077 -0.1132 -0.3594
  423loPI   C2B 6766  14.107  17.295  10.586  0.1007  0.0842  0.0037
  423loPI   C3B 6767  14.198  17.207  10.212 -0.0553 -0.0858  0.1970
  423loPI   C4B 6768  14.251  17.374   9.845 -0.4008 -0.1808 -0.1000
  424loPI    C1 6769  10.407   2.916  11.593 -0.0679 -0.3346  0.1403
  424loPI    C2 6770  10.307   2.980  11.976  0.0228 -0.0629  0.1206
  424loPI    C3 6771  10.260   3.271  11.705 -0.0153 -0.2447 -0.0711
  424loPI   PO4 6772  10.316   2.650  11.557 -0.1341 -0.0241 -0.0323
  424loPI   GL1 6773  10.197   2.295  11.351 -0.1162  0.3762  0.0516
  424loPI   GL2 6774   9.909   2.161  11.460 -0.3650  0.0984  0.0026
  424loPI   C1A 6775  10.069   2.373  10.929 -0.1538  0.5571  0.1234
  424loPI   C2A 6776  10.124   2.539  10.448  0.1986 -0.2237 -0.0745
  424loPI   C3A 6777  10.016   2.466  10.038 -0.3229  0.0485  0.2279
  424loPI   C4A 6778  10.212   2.545   9.497  0.0643 -0.0844  0.4562
  424loPI   C5A 6779  10.120   2.565   8.979 -0.3029  0.4577  0.0633
  424loPI   C6A 6780  10.468   2.372   8.624 -0.1309  0.0858  0.1976
  424loPI   C1B 6781   9.998   1.919  11.126  0.2263  0.0043  0.0463
  424loPI   C2B 6782   9.981   1.979  10.628 -0.0650 -0.0229  0.2639
  424loPI   C3B 6783   9.960   1.904  10.116  0.2571 -0.0273 -0.1888
  424loPI   C4B 6784  10.010   2.073   9.736 -0.1247  0.1884  0.0736
  425loPI    C1 6785  13.775   3.615  11.592 -0.0445 -0.1093  0.0102
  425loPI    C2 6786  13.991   3.807  11.869 -0.0764  0.1763 -0.1593
  425loPI    C3 6787  13.638   3.646  11.966  0.1685 -0.2214  0.0998
  425loPI   PO4 6788  13.878   3.449  11.472 -0.0435 -0.0708 -0.2747
  425loPI   GL1 6789  13.981   3.653  11.089  0.1242 -0.0484  0.0023
  425loPI   GL2 6790  14.139   3.978  10.928  0.2676  0.1245 -0.0749
  425loPI   C1A 6791  13.988   3.513  10.630  0.0967 -0.1738 -0.0645
  425loPI   C2A 6792  14.147   3.467  10.247 -0.2085  0.0606 -0.1883
  425loPI   C3A 6793  13.947   3.525   9.889  0.1638  0.0168 -0.0744
  425loPI   C4A 6794  13.963   3.508   9.512 -0.0020 -0.1598  0.0599
  425loPI   C5A 6795  13.972   3.488   9.130 -0.1992 -0.1090 -0.3417
  425loPI   C6A 6796  14.160   3.731   8.818  0.1826 -0.4113 -0.1763
  425loPI   C1B 6797  14.133   4.021  10.574 -0.1783  0.2578  0.0229
  425loPI   C2B 6798  14.175   4.068  10.114 -0.0936 -0.1564 -0.0673
  425loPI   C3B 6799  13.972   4.051   9.639 -0.1370  0.1528  0.0752
  425loPI   C4B 6800  13.982   3.967   9.255  0.3284  0.1652 -0.2392
  426loPI    C1 6801  12.255   0.301  11.709  0.0274 -0.0396 -0.0779
  426loPI    C2 6802  12.571   0.069  11.629  0.0153 -0.0770 -0.0181
  426loPI    C3 6803  12.327  -0.022  11.933  0.0876  0.0897  0.0915
  426loPI   PO4 6804  12.129   0.357  11.506  0.0645  0.0849 -0.0502
  426loPI   GL1 6805  12.149   0.232  11.058  0.0427  0.0367 -0.0999
  426loPI   GL2 6806  12.387   0.012  11.177  0.0588 -0.4308 -0.2603
  426loPI   C1A 6807  12.129   0.419  10.691  0.0102 -0.1972  0.0761
  426loPI   C2A 6808  12.163   0.391  10.375 -0.2948 -0.0202  0.3384
  426loPI   C3A 6809  12.147   0.423   9.876  0.1017  0.2517 -0.2765
  426loPI   C4A 6810  12.207   0.520   9.458 -0.1231 -0.1280  0.0430
  426loPI   C5A 6811  12.140   0.494   9.090  0.2550 -0.0422  0.0788
  426loPI   C6A 6812  11.998   0.682   8.597  0.2819  0.1139 -0.0712
  426loPI   C1B 6813  12.530   0.089  10.634  0.0113  0.1358 -0.0563
  426loPI   C2B 6814  12.471   0.009  10.166 -0.0424  0.0240 -0.1136
  426loPI   C3B 6815  12.489   0.091   9.720  0.0474 -0.1573 -0.1638
  426loPI   C4B 6816  12.525   0.098   9.230  0.3777 -0.0543 -0.0840
  427loPI    C1 6817  12.013   2.927  11.738  0.0741  0.1530  0.1701
  427loPI    C2 6818  11.855   2.781  12.075 -0.0650 -0.2666 -0.0701
  427loPI    C3 6819  12.215   2.954  12.082 -0.0798 -0.2429  0.2968
  427loPI   PO4 6820  12.026   2.737  11.520  0.0711  0.1931 -0.2828
  427loPI   GL1 6821  12.060   3.005  11.172  0.0149 -0.1328 -0.3770
  427loPI   GL2 6822  12.066   3.406  11.124 -0.0043  0.1539  0.0298
  427loPI   C1A 6823  11.991   2.824  10.743  0.2107 -0.2069 -0.0314
  427loPI   C2A 6824  11.837   2.853  10.386 -0.1276 -0.2468  0.1022
  427loPI   C3A 6825  11.963   2.765  10.050  0.0327  0.2446 -0.1462
  427loPI   C4A 6826  11.881   2.726   9.614  0.2695  0.2151 -0.1200
  427loPI   C5A 6827  12.087   2.835   9.238  0.3911  0.0571  0.1571
  427loPI   C6A 6828  12.495   2.994   9.014 -0.1496  0.2497  0.0038
  427loPI   C1B 6829  12.048   3.305  10.703  0.2598 -0.2050 -0.0895
  427loPI   C2B 6830  11.975   3.349  10.302 -0.2424 -0.0788 -0.1834
  427loPI   C3B 6831  11.992   3.266   9.827 -0.1639 -0.0368  0.0987
  427loPI   C4B 6832  11.901   3.345   9.321  0.4052  0.0444  0.0043
  428loPI    C1 6833   2.232  14.789  11.720 -0.0144 -0.1192 -0.0926
  428loPI    C2 6834   2.373  14.419  11.774 -0.0339 -0.1213 -0.0556
  428loPI    C3 6835   2.542  14.727  11.965  0.0994 -0.0865 -0.2273
  428loPI   PO4 6836   2.229  14.913  11.473 -0.1167  0.0688 -0.0155
  428loPI   GL1 6837   2.321  14.839  11.012 -0.0071 -0.2080 -0.1740
  428loPI   GL2 6838   2.586  14.987  10.993 -0.0257  0.0569 -0.1819
  428loPI   C1A 6839   2.259  14.717  10.586 -0.1269  0.1656  0.2478
  428loPI   C2A 6840   2.392  14.742  10.049  0.1541  0.0973  0.0864
  428loPI   C3A 6841   2.337  14.672   9.564 -0.1983 -0.0607  0.2190
  428loPI   C4A 6842   2.376  14.638   9.150  0.1146  0.0921 -0.1796
  428loPI   C5A 6843   2.456  14.370   8.752 -0.1735  0.0080 -0.0766
  428loPI   C6A 6844   2.708  14.397   8.323 -0.2424 -0.0369 -0.5812
  428loPI   C1B 6845   2.679  14.924  10.514 -0.1504  0.0603 -0.0458
  428loPI   C2B 6846   2.861  14.872  10.253 -0.2474 -0.2134  0.0711
  428loPI   C3B 6847   2.802  14.869   9.844 -0.1870  0.0837 -0.0427
  428loPI   C4B 6848   2.831  14.908   9.366  0.0375  0.2914 -0.1474
  429loPI    C1 6849  14.617  15.614  11.587  0.1204 -0.2598 -0.1231
  429loPI    C2 6850  14.827  15.499  11.908  0.0467 -0.2095 -0.0564
  429loPI    C3 6851  14.429  15.539  11.932  0.0649  0.0101 -0.0918
  429loPI   PO4 6852  14.720  15.454  11.385 -0.0300  0.2875 -0.2673
  429loPI   GL1 6853  14.803  15.674  11.016 -0.0266  0.1821  0.2404
  429loPI   GL2 6854  14.660  15.340  10.843 -0.0181  0.0254 -0.0469
  429loPI   C1A 6855  14.982  15.671  10.604  0.0776  0.0201 -0.1237
  429loPI   C2A 6856  14.914  15.662  10.146 -0.1235 -0.1178 -0.1690
  429loPI   C3A 6857  14.866  15.706   9.720  0.1102 -0.1453  0.1369
  429loPI   C4A 6858  14.748  15.567   9.356  0.0083 -0.3550 -0.2136
  429loPI   C5A 6859  14.701  15.558   8.908 -0.0948 -0.1518 -0.1786
  429loPI   C6A 6860  14.424  15.621   8.542 -0.0414 -0.0170 -0.0259
  429loPI   C1B 6861  14.598  15.406  10.434  0.2435  0.3591 -0.1744
  429loPI   C2B 6862  14.445  15.492   9.985 -0.1818 -0.1402 -0.0226
  429loPI   C3B 6863  14.356  15.429   9.586 -0.0396 -0.4545 -0.1174
  429loPI   C4B 6864  14.292  15.387   9.172 -0.1212 -0.3405 -0.1285
  430loPI    C1 6865  13.874   5.343  11.457  0.0058  0.0999 -0.0177
  430loPI    C2 6866  13.785   5.722  11.550  0.0173  0.1154 -0.0692
  430loPI    C3 6867  14.147   5.631  11.407 -0.0319  0.1068 -0.1891
  430loPI   PO4 6868  13.699   5.207  11.307 -0.0082  0.1710  0.0810
  430loPI   GL1 6869  13.502   5.332  10.901  0.1493 -0.1239  0.1757
  430loPI   GL2 6870  13.346   5.001  10.846 -0.1071  0.2223 -0.0003
  430loPI   C1A 6871  13.463   5.248  10.415  0.1888 -0.0195 -0.2213
  430loPI   C2A 6872  13.286   5.210  10.043 -0.0413  0.1458  0.2443
  430loPI   C3A 6873  13.223   5.192   9.728 -0.1034  0.2740 -0.1340
  430loPI   C4A 6874  13.209   5.196   9.306  0.0540 -0.0368  0.1358
  430loPI   C5A 6875  13.354   4.977   8.960  0.0336  0.3690  0.0746
  430loPI   C6A 6876  13.182   4.544   8.862 -0.1233 -0.2317  0.0340
  430loPI   C1B 6877  13.361   4.730  10.508 -0.0091 -0.0160  0.0716
  430loPI   C2B 6878  13.239   4.678  10.109  0.1644 -0.1524 -0.0098
  430loPI   C3B 6879  13.094   4.670   9.789 -0.1301  0.0137  0.0441
  430loPI   C4B 6880  12.959   4.636   9.373 -0.2831  0.1822  0.0578
  431loPI    C1 6881   9.150   8.926  11.537 -0.0515  0.0219 -0.0384
  431loPI    C2 6882   9.318   8.615  11.724 -0.1310  0.0268  0.0417
  431loPI    C3 6883   9.286   8.966  11.911 -0.0613  0.0776 -0.0409
  431loPI   PO4 6884   9.262   8.905  11.312  0.2031 -0.1276 -0.1618
  431loPI   GL1 6885   9.616   8.723  10.993  0.1398  0.0939 -0.1390
  431loPI   GL2 6886   9.698   8.337  10.964 -0.3832 -0.2399  0.1523
  431loPI   C1A 6887   9.685   8.947  10.583 -0.2380  0.1563 -0.1613
  431loPI   C2A 6888   9.804   8.911  10.193  0.0106  0.0046  0.0691
  431loPI   C3A 6889   9.692   8.718   9.814 -0.2153 -0.0498  0.1634
  431loPI   C4A 6890   9.736   8.692   9.296  0.1754  0.1250 -0.1124
  431loPI   C5A 6891   9.723   8.897   8.890  0.1079 -0.0687 -0.0098
  431loPI   C6A 6892   9.597   8.617   8.516  0.1178  0.0601  0.0823
  431loPI   C1B 6893   9.624   8.389  10.531  0.4018 -0.0286  0.0214
  431loPI   C2B 6894   9.579   8.277  10.079 -0.0070 -0.1495 -0.0319
  431loPI   C3B 6895   9.688   8.163   9.745  0.3780 -0.1249 -0.4687
  431loPI   C4B 6896   9.557   8.172   9.377 -0.3436 -0.1217  0.0002
  432loPI    C1 6897   3.775   7.233  11.351  0.1678  0.0363 -0.1201
  432loPI    C2 6898   3.687   7.152  11.733  0.0934 -0.1906 -0.1837
  432loPI    C3 6899   3.903   7.476  11.642 -0.1004  0.0026  0.0294
  432loPI   PO4 6900   3.890   6.956  11.204  0.1884  0.0831 -0.0672
  432loPI   GL1 6901   4.077   6.737  10.914 -0.2082  0.0316 -0.1995
  432loPI   GL2 6902   3.834   6.585  10.889 -0.0841 -0.4202 -0.0150
  432loPI   C1A 6903   4.236   6.587  10.447  0.0973  0.2778  0.3023
  432loPI   C2A 6904   4.240   6.591  10.065  0.1503  0.3096 -0.2980
  432loPI   C3A 6905   4.234   6.434   9.618  0.2721 -0.1046 -0.1505
  432loPI   C4A 6906   4.248   6.390   9.187 -0.0195 -0.1107  0.1580
  432loPI   C5A 6907   4.546   6.046   8.864  0.1247  0.4490 -0.1501
  432loPI   C6A 6908   4.552   5.676   8.575  0.1474 -0.1365  0.2076
  432loPI   C1B 6909   3.802   6.370  10.586 -0.2397 -0.0389 -0.2415
  432loPI   C2B 6910   3.820   6.447  10.172  0.2317 -0.0056 -0.1317
  432loPI   C3B 6911   3.728   6.319   9.810  0.1378  0.1555 -0.0288
  432loPI   C4B 6912   3.796   6.472   9.401  0.1673  0.2688 -0.0752
  433loPI    C1 6913   7.578   9.508  11.442 -0.2436 -0.0952  0.0019
  433loPI    C2 6914   7.934   9.412  11.289 -0.0663  0.3835  0.1000
  433loPI    C3 6915   7.879   9.407  11.685 -0.1994  0.2177  0.0805
  433loPI   PO4 6916   7.481   9.778  11.293  0.0472 -0.2164  0.0399
  433loPI   GL1 6917   7.287   9.830  10.778 -0.0991  0.1012 -0.0086
  433loPI   GL2 6918   7.152  10.165  10.642  0.2283 -0.1733 -0.1418
  433loPI   C1A 6919   7.597   9.810  10.462 -0.0032  0.2985  0.2413
  433loPI   C2A 6920   7.635   9.828   9.987  0.2953 -0.0452 -0.0524
  433loPI   C3A 6921   7.536   9.909   9.551 -0.0313 -0.2571  0.1100
  433loPI   C4A 6922   7.473   9.828   9.099  0.3504 -0.2009  0.3176
  433loPI   C5A 6923   7.546  10.062   8.668  0.5971  0.0959  0.1749
  433loPI   C6A 6924   7.748  10.303   8.312 -0.5136 -0.1120  0.1058
  433loPI   C1B 6925   7.218  10.219  10.235  0.1488  0.0774  0.0799
  433loPI   C2B 6926   7.174  10.212   9.781 -0.0188 -0.0919 -0.2329
  433loPI   C3B 6927   7.084  10.186   9.351  0.0601  0.1142  0.1256
  433loPI   C4B 6928   7.087  10.150   8.903  0.2423  0.1466 -0.1069
  434loPI    C1 6929  12.239   3.786  11.520 -0.2790  0.0372 -0.2352
  434loPI    C2 6930  12.187   4.105  11.756  0.1392 -0.0102 -0.0696
  434loPI    C3 6931  12.088   3.740  11.887 -0.2358  0.0342 -0.2176
  434loPI   PO4 6932  12.086   3.867  11.331 -0.2268 -0.0583  0.0020
  434loPI   GL1 6933  11.952   4.060  11.065  0.1551 -0.0957 -0.1107
  434loPI   GL2 6934  12.080   4.367  11.048  0.0239 -0.0552 -0.0434
  434loPI   C1A 6935  11.744   4.173  10.713 -0.1245  0.2820  0.0296
  434loPI   C2A 6936  11.718   4.153  10.252 -0.1113 -0.0091 -0.0458
  434loPI   C3A 6937  11.584   4.138   9.869 -0.2995  0.0922 -0.1154
  434loPI   C4A 6938  11.594   4.137   9.491 -0.0368 -0.1771  0.2492
  434loPI   C5A 6939  11.679   4.102   9.028  0.0758 -0.0469 -0.0722
  434loPI   C6A 6940  11.712   4.068   8.616  0.2562  0.0909 -0.1676
  434loPI   C1B 6941  12.184   4.307  10.641 -0.1585  0.1966 -0.1233
  434loPI   C2B 6942  12.299   4.368  10.211  0.3196 -0.3700  0.1779
  434loPI   C3B 6943  12.158   4.290   9.878  0.0698  0.0820 -0.1098
  434loPI   C4B 6944  12.089   4.315   9.428  0.1536 -0.0657 -0.0581
  435loPI    C1 6945   8.448   1.493  11.876  0.1190  0.0617 -0.1042
  435loPI    C2 6946   8.593   1.490  12.249  0.0036 -0.2874 -0.0575
  435loPI    C3 6947   8.203   1.555  12.186  0.1043  0.2737 -0.1571
  435loPI   PO4 6948   8.664   1.612  11.724  0.1308  0.0796 -0.1137
  435loPI   GL1 6949   8.626   1.547  11.238 -0.0708 -0.3875 -0.1293
  435loPI   GL2 6950   8.641   1.879  11.238 -0.2390 -0.0425 -0.3129
  435loPI   C1A 6951   8.590   1.426  10.682 -0.2298  0.1272  0.3112
  435loPI   C2A 6952   8.604   1.361  10.298  0.1403 -0.0233  0.1664
  435loPI   C3A 6953   8.570   1.415   9.873  0.1540  0.2487 -0.3688
  435loPI   C4A 6954   8.554   1.470   9.444 -0.2265  0.1753 -0.0220
  435loPI   C5A 6955   8.520   1.632   9.035 -0.1810  0.1292  0.0722
  435loPI   C6A 6956   8.515   1.520   8.624 -0.2023 -0.0289 -0.0917
  435loPI   C1B 6957   8.619   1.950  10.819 -0.1544  0.0115 -0.1508
  435loPI   C2B 6958   8.606   1.913  10.346 -0.3766 -0.0344 -0.1546
  435loPI   C3B 6959   8.557   1.901   9.958 -0.1128 -0.3576 -0.0691
  435loPI   C4B 6960   8.628   2.075   9.498  0.1148  0.0722  0.2897
  436loPI    C1 6961   1.570   1.846  11.512 -0.0365  0.2956  0.1134
  436loPI    C2 6962   1.714   1.761  11.875 -0.0465 -0.0796  0.0339
  436loPI    C3 6963   1.532   1.477  11.661 -0.1269  0.1638 -0.2270
  436loPI   PO4 6964   1.682   1.890  11.387 -0.1418 -0.0137 -0.0346
  436loPI   GL1 6965   1.888   1.913  11.063  0.1025  0.1833  0.2608
  436loPI   GL2 6966   2.183   2.153  10.980 -0.2229 -0.1217 -0.1184
  436loPI   C1A 6967   1.706   1.746  10.579  0.1593  0.0201 -0.1213
  436loPI   C2A 6968   1.701   1.695  10.141  0.1151  0.2787 -0.0208
  436loPI   C3A 6969   1.714   1.665   9.648  0.3977 -0.0689 -0.0760
  436loPI   C4A 6970   1.669   1.575   9.182  0.4216  0.0389  0.0520
  436loPI   C5A 6971   1.577   1.584   8.717 -0.1753  0.1962 -0.0614
  436loPI   C6A 6972   1.579   1.902   8.384 -0.0723 -0.0541 -0.1500
  436loPI   C1B 6973   2.171   2.011  10.601  0.0296  0.0764 -0.1589
  436loPI   C2B 6974   2.232   1.916  10.262  0.0744  0.1743  0.1505
  436loPI   C3B 6975   2.158   1.815   9.846  0.3348 -0.3402 -0.0390
  436loPI   C4B 6976   2.134   1.804   9.429 -0.1825  0.0643 -0.0274
  437loPI    C1 6977  15.079   9.760  11.417 -0.0342  0.1580  0.0628
  437loPI    C2 6978  14.914   9.616  11.751 -0.1067  0.2367  0.0612
  437loPI    C3 6979  14.964  10.010  11.707 -0.0798  0.2251 -0.0127
  437loPI   PO4 6980  14.999   9.681  11.174 -0.1273  0.0732  0.0133
  437loPI   GL1 6981  15.165   9.597  10.731  0.1350  0.0337 -0.0141
  437loPI   GL2 6982  15.168   9.930  10.667 -0.0243  0.2970  0.0270
  437loPI   C1A 6983  15.349   9.355  10.426 -0.3356  0.1343  0.0735
  437loPI   C2A 6984  15.379   9.260  10.052 -0.2795 -0.0953 -0.2627
  437loPI   C3A 6985  15.325   9.236   9.596 -0.0424  0.2106  0.0413
  437loPI   C4A 6986  15.425   9.195   9.169 -0.1571 -0.4381 -0.0810
  437loPI   C5A 6987  15.791   9.362   8.989 -0.0677  0.0650 -0.0627
  437loPI   C6A 6988  16.267   9.421   9.068 -0.3012  0.4236  0.0781
  437loPI   C1B 6989  15.208   9.917  10.308  0.1369 -0.3843 -0.0323
  437loPI   C2B 6990  15.129   9.815   9.918 -0.1772 -0.0903  0.0782
  437loPI   C3B 6991  15.372   9.724   9.571 -0.2934 -0.0272  0.0599
  437loPI   C4B 6992  15.424   9.713   9.091 -0.0711  0.0432 -0.0426
  438loPI    C1 6993   2.412   3.959  11.613 -0.3060 -0.1116  0.0091
  438loPI    C2 6994   2.585   4.229  11.852 -0.0626 -0.0030 -0.2819
  438loPI    C3 6995   2.347   3.947  12.007  0.0396  0.1029  0.0773
  438loPI   PO4 6996   2.593   3.885  11.416  0.0601 -0.0192  0.3083
  438loPI   GL1 6997   2.360   3.824  11.043 -0.0100 -0.1570  0.0817
  438loPI   GL2 6998   2.034   3.631  10.936 -0.1320  0.1649  0.1632
  438loPI   C1A 6999   2.523   3.917  10.575 -0.3692  0.3125  0.2358
  438loPI   C2A 7000   2.517   4.015  10.168  0.0273 -0.1982 -0.0639
  438loPI   C3A 7001   2.462   3.944   9.729 -0.2696 -0.0650 -0.1487
  438loPI   C4A 7002   2.346   3.865   9.262 -0.1682 -0.2209 -0.2397
  438loPI   C5A 7003   2.334   3.708   8.882 -0.1583  0.1203 -0.1612
  438loPI   C6A 7004   2.580   3.654   8.469 -0.0957 -0.1056  0.0978
  438loPI   C1B 7005   2.056   3.758  10.512  0.0692  0.0272  0.0241
  438loPI   C2B 7006   2.085   3.774  10.045 -0.1093 -0.1365  0.2905
  438loPI   C3B 7007   1.895   3.733   9.601  0.1956 -0.0395  0.0300
  438loPI   C4B 7008   1.864   3.750   9.215 -0.2294 -0.1503 -0.0315
  439loPI    C1 7009   3.230   7.403  11.168 -0.3311  0.1576 -0.2360
  439loPI    C2 7010   3.410   7.517  11.506 -0.0729  0.0665 -0.3404
  439loPI    C3 7011   3.260   7.792  11.257 -0.1606  0.1390 -0.2091
  439loPI   PO4 7012   3.271   7.173  11.063  0.0437  0.4029 -0.0640
  439loPI   GL1 7013   3.738   7.223  10.793 -0.2766 -0.0515  0.1089
  439loPI   GL2 7014   3.918   7.412  10.717 -0.0734  0.0334  0.1724
  439loPI   C1A 7015   3.813   7.025  10.425  0.2441 -0.0449  0.2598
  439loPI   C2A 7016   3.742   6.915   9.987  0.0700 -0.2694  0.1154
  439loPI   C3A 7017   3.905   6.934   9.544 -0.1275 -0.2490 -0.1194
  439loPI   C4A 7018   3.978   6.789   9.011  0.0837  0.0259 -0.1608
  439loPI   C5A 7019   4.203   6.810   8.688 -0.0050 -0.1227 -0.0601
  439loPI   C6A 7020   4.479   6.490   8.653  0.0277 -0.0301 -0.1720
  439loPI   C1B 7021   3.921   7.502  10.221  0.0712  0.0719 -0.0813
  439loPI   C2B 7022   3.911   7.409   9.740  0.0389  0.1243 -0.1697
  439loPI   C3B 7023   3.970   7.403   9.222  0.0280 -0.0850  0.0799
  439loPI   C4B 7024   4.144   7.256   8.834 -0.0829 -0.0686  0.2264
  440loPI    C1 7025  10.740  14.990  11.171  0.1836 -0.0195 -0.0892
  440loPI    C2 7026  10.887  15.050  11.538  0.1460 -0.0836 -0.0634
  440loPI    C3 7027  10.800  14.679  11.416 -0.3034 -0.0183  0.0413
  440loPI   PO4 7028  10.859  15.026  10.987  0.0146  0.1021  0.0715
  440loPI   GL1 7029  10.794  14.902  10.543  0.1344 -0.0900 -0.1708
  440loPI   GL2 7030  10.858  15.170  10.425 -0.0945 -0.0150  0.0862
  440loPI   C1A 7031  10.596  14.724  10.178 -0.4171 -0.1874  0.0438
  440loPI   C2A 7032  10.516  14.700   9.770 -0.0497 -0.1286  0.1495
  440loPI   C3A 7033  10.234  14.757   9.471  0.1421 -0.0780  0.0342
  440loPI   C4A 7034  10.281  14.855   9.063 -0.0824 -0.4219 -0.0491
  440loPI   C5A 7035  10.300  15.194   8.675 -0.1434  0.1041 -0.0264
  440loPI   C6A 7036  10.015  15.337   8.465  0.0799  0.3477  0.0592
  440loPI   C1B 7037  10.788  15.180  10.044  0.2201  0.1803  0.1910
  440loPI   C2B 7038  10.826  15.490   9.777  0.0107  0.0728  0.0428
  440loPI   C3B 7039  10.695  15.638   9.408  0.0878  0.1598 -0.1930
  440loPI   C4B 7040  10.445  15.627   9.058  0.1840 -0.2282  0.2005
  441loPI    C1 7041  17.543  17.452  11.510  0.4083  0.1133  0.0698
  441loPI    C2 7042  17.296  17.409  11.821 -0.0476  0.2248 -0.2672
  441loPI    C3 7043  17.652  17.582  11.872 -0.0456  0.0904  0.2206
  441loPI   PO4 7044  17.473  17.246  11.366  0.2478 -0.1232  0.0404
  441loPI   GL1 7045  17.307  17.096  10.973  0.1264  0.3074 -0.0041
  441loPI   GL2 7046  17.614  17.154  10.885 -0.0397 -0.0647  0.1178
  441loPI   C1A 7047  16.896  16.881  10.748 -0.1616 -0.1098  0.1210
  441loPI   C2A 7048  16.870  16.996  10.256 -0.2160 -0.0550  0.1964
  441loPI   C3A 7049  17.056  16.898   9.747 -0.0930 -0.0602  0.0275
  441loPI   C4A 7050  16.920  16.978   9.319  0.2478  0.0708 -0.1232
  441loPI   C5A 7051  16.549  17.193   8.982 -0.0073  0.2804 -0.2423
  441loPI   C6A 7052  16.141  17.354   8.816  0.0092  0.1492 -0.2677
  441loPI   C1B 7053  17.413  17.012  10.464  0.4626 -0.3925 -0.3557
  441loPI   C2B 7054  17.354  17.105  10.052  0.4839  0.2154  0.2061
  441loPI   C3B 7055  17.497  17.099   9.640 -0.1234  0.0054  0.0405
  441loPI   C4B 7056  17.408  17.096   9.235  0.2226  0.0039  0.1441
  442loPI    C1 7057  13.525   4.543  11.474  0.1434  0.0656  0.1698
  442loPI    C2 7058  13.536   4.881  11.688 -0.0025  0.1739  0.0091
  442loPI    C3 7059  13.599   4.528  11.867  0.1292  0.2836  0.1818
  442loPI   PO4 7060  13.580   4.691  11.212  0.0956  0.1639 -0.0859
  442loPI   GL1 7061  13.900   4.870  11.036 -0.0698  0.0046 -0.1090
  442loPI   GL2 7062  14.157   4.766  11.038 -0.5047  0.2682  0.0408
  442loPI   C1A 7063  13.845   4.816  10.626 -0.1131  0.0078  0.0243
  442loPI   C2A 7064  13.783   4.894  10.222 -0.2477 -0.0219 -0.2454
  442loPI   C3A 7065  13.696   4.796   9.868  0.0393 -0.3556  0.1601
  442loPI   C4A 7066  13.593   4.793   9.382 -0.1060 -0.3079  0.0112
  442loPI   C5A 7067  13.872   4.890   9.036  0.1125  0.0375 -0.3138
  442loPI   C6A 7068  13.869   5.105   8.810  0.3252 -0.2245  0.1472
  442loPI   C1B 7069  14.310   4.589  10.717  0.0328  0.1337  0.0458
  442loPI   C2B 7070  14.159   4.509  10.314 -0.2130 -0.0355 -0.2392
  442loPI   C3B 7071  14.149   4.500   9.913  0.3009 -0.0948 -0.0564
  442loPI   C4B 7072  14.019   4.530   9.517 -0.3166  0.2327 -0.2672
  443loPI    C1 7073   6.039  16.081  11.417  0.1337  0.0092 -0.1880
  443loPI    C2 7074   5.657  15.982  11.481  0.1052  0.2380  0.0086
  443loPI    C3 7075   5.801  16.327  11.623  0.3966  0.1349 -0.0293
  443loPI   PO4 7076   6.040  16.125  11.108 -0.0541 -0.0082  0.0847
  443loPI   GL1 7077   5.980  15.932  10.811  0.2291 -0.0700  0.1604
  443loPI   GL2 7078   6.314  16.028  10.693 -0.1297  0.0832  0.2594
  443loPI   C1A 7079   5.749  15.899  10.359 -0.1608 -0.4114 -0.0408
  443loPI   C2A 7080   5.708  15.944  10.048 -0.0537 -0.0607 -0.2262
  443loPI   C3A 7081   5.770  15.997   9.592 -0.0591  0.3623  0.0883
  443loPI   C4A 7082   5.632  16.084   9.182  0.1358 -0.0891  0.3719
  443loPI   C5A 7083   5.763  16.130   8.766 -0.0737 -0.2915  0.0854
  443loPI   C6A 7084   6.127  15.981   8.660  0.2193  0.1984  0.2218
  443loPI   C1B 7085   6.200  16.134  10.300 -0.1704 -0.1152  0.0814
  443loPI   C2B 7086   6.127  16.137   9.884 -0.3578  0.0681  0.0987
  443loPI   C3B 7087   6.271  16.153   9.514 -0.1076 -0.2050  0.0529
  443loPI   C4B 7088   6.214  16.105   9.142  0.1008  0.1249  0.1173
  444loPI    C1 7089  12.356   6.205  11.955 -0.1571  0.0893 -0.0806
  444loPI    C2 7090  12.158   5.959  12.200  0.0175  0.0007 -0.0266
  444loPI    C3 7091  12.418   6.224  12.349 -0.2161  0.2648 -0.0787
  444loPI   PO4 7092  12.201   6.378  11.755 -0.2546  0.0064 -0.2770
  444loPI   GL1 7093  12.119   6.401  11.238 -0.0291 -0.0709  0.2150
  444loPI   GL2 7094  12.416   6.524  11.156  0.0088  0.0218  0.0373
  444loPI   C1A 7095  12.042   6.361  10.789  0.0213  0.0947  0.1625
  444loPI   C2A 7096  12.057   6.203  10.326 -0.1155 -0.0572 -0.3312
  444loPI   C3A 7097  12.044   6.046   9.807 -0.0388  0.0203 -0.1649
  444loPI   C4A 7098  11.939   6.185   9.382  0.0526 -0.0110  0.0062
  444loPI   C5A 7099  11.810   6.062   8.877  0.2012 -0.1951  0.3011
  444loPI   C6A 7100  11.430   6.266   8.616 -0.0906  0.0602 -0.2067
  444loPI   C1B 7101  12.517   6.502  10.713 -0.1632 -0.0027  0.2322
  444loPI   C2B 7102  12.582   6.369  10.328 -0.2608 -0.0537  0.0126
  444loPI   C3B 7103  12.583   6.367   9.950  0.0890 -0.2949  0.0529
  444loPI   C4B 7104  12.489   6.243   9.474  0.0437 -0.0256 -0.2331
  445loPI    C1 7105  12.082  12.286  11.295  0.0714 -0.2514 -0.2783
  445loPI    C2 7106  12.196  11.918  11.186  0.3581 -0.2532  0.0128
  445loPI    C3 7107  12.123  11.999  11.571  0.0762 -0.0606 -0.0779
  445loPI   PO4 7108  12.068  12.436  11.102  0.1150  0.0375  0.2858
  445loPI   GL1 7109  12.109  12.179  10.730  0.1538 -0.0299 -0.1420
  445loPI   GL2 7110  11.796  12.311  10.714 -0.1532  0.2693  0.0809
  445loPI   C1A 7111  12.327  12.055  10.359  0.3261  0.0243  0.1840
  445loPI   C2A 7112  12.416  12.065   9.899  0.1105 -0.2523 -0.3754
  445loPI   C3A 7113  12.601  11.910   9.453 -0.2792  0.3148  0.0200
  445loPI   C4A 7114  12.805  11.763   9.060  0.0220  0.1188 -0.2375
  445loPI   C5A 7115  12.971  11.575   8.775 -0.0788 -0.2209  0.0086
  445loPI   C6A 7116  13.405  11.424   8.776  0.2002 -0.0850  0.2275
  445loPI   C1B 7117  11.855  12.187  10.311  0.1271  0.1261 -0.1200
  445loPI   C2B 7118  11.887  12.207   9.856  0.0622 -0.2206  0.1269
  445loPI   C3B 7119  11.519  12.370   9.571  0.2426  0.1838 -0.0629
  445loPI   C4B 7120  11.460  12.609   9.189 -0.0318  0.2540 -0.2010
  446loPI    C1 7121  14.796   7.981  11.585 -0.2675 -0.0764 -0.1075
  446loPI    C2 7122  14.886   8.257  11.860 -0.0062 -0.0544 -0.2117
  446loPI    C3 7123  14.576   8.010  11.918 -0.0084  0.0084  0.0594
  446loPI   PO4 7124  14.998   7.916  11.546  0.0456  0.4908  0.1671
  446loPI   GL1 7125  15.073   7.957  11.189  0.0954 -0.0393 -0.1414
  446loPI   GL2 7126  15.320   7.741  11.192  0.1089  0.0467 -0.0424
  446loPI   C1A 7127  15.060   7.988  10.776 -0.1078  0.1263 -0.2313
  446loPI   C2A 7128  15.185   7.916  10.298  0.3165 -0.2427  0.1646
  446loPI   C3A 7129  15.034   7.832   9.913 -0.1118  0.0625 -0.1219
  446loPI   C4A 7130  15.117   7.748   9.466 -0.0402  0.0676  0.0001
  446loPI   C5A 7131  15.065   7.659   9.010 -0.2732  0.1187 -0.1965
  446loPI   C6A 7132  14.916   7.720   8.573 -0.0169 -0.0026  0.0356
  446loPI   C1B 7133  15.035   7.455  10.893  0.1293 -0.1280  0.0345
  446loPI   C2B 7134  14.984   7.421  10.475  0.2225 -0.2260 -0.1109
  446loPI   C3B 7135  14.962   7.332  10.076 -0.1159  0.0517  0.0343
  446loPI   C4B 7136  14.995   7.273   9.588  0.2252 -0.1667  0.1820
  447loPI    C1 7137   4.853   2.678  11.428 -0.1125 -0.0020 -0.1106
  447loPI    C2 7138   4.895   2.535  11.800  0.2451  0.0451 -0.1292
  447loPI    C3 7139   4.753   2.905  11.742  0.0925  0.0005 -0.0454
  447loPI   PO4 7140   4.906   2.443  11.228  0.5357 -0.0898  0.0508
  447loPI   GL1 7141   5.028   2.384  10.789 -0.2132  0.3006  0.0474
  447loPI   GL2 7142   4.894   2.110  10.766  0.0062 -0.3659 -0.1035
  447loPI   C1A 7143   5.023   2.460  10.355 -0.0589  0.4417  0.1665
  447loPI   C2A 7144   5.044   2.540   9.922 -0.0241  0.2493  0.1712
  447loPI   C3A 7145   5.012   2.527   9.463 -0.2640 -0.0256 -0.2018
  447loPI   C4A 7146   4.868   2.522   9.112  0.0990  0.2344  0.0901
  447loPI   C5A 7147   5.166   2.440   8.793 -0.0149 -0.1530  0.0175
  447loPI   C6A 7148   5.280   2.641   8.445  0.0838  0.0414 -0.3077
  447loPI   C1B 7149   4.927   1.951  10.311  0.0483 -0.0109 -0.1086
  447loPI   C2B 7150   4.927   1.916   9.846  0.2404  0.1209 -0.0395
  447loPI   C3B 7151   4.914   1.966   9.348 -0.2422  0.0122  0.1905
  447loPI   C4B 7152   4.909   1.920   8.962 -0.1380 -0.1218  0.5581
  448loPI    C1 7153   5.033   7.485  11.579 -0.1089 -0.0923 -0.0608
  448loPI    C2 7154   5.382   7.310  11.664 -0.1868 -0.2106  0.0195
  448loPI    C3 7155   5.118   7.381  11.956 -0.1695  0.0134 -0.0175
  448loPI   PO4 7156   5.070   7.505  11.287  0.2300 -0.1450 -0.3010
  448loPI   GL1 7157   5.126   7.625  10.849  0.0946 -0.0829 -0.2278
  448loPI   GL2 7158   5.428   7.538  10.776 -0.0365  0.1719  0.1231
  448loPI   C1A 7159   4.945   7.811  10.557 -0.0694 -0.1760 -0.0358
  448loPI   C2A 7160   5.018   7.872  10.097 -0.1093 -0.0889  0.1945
  448loPI   C3A 7161   4.796   7.865   9.735  0.0234 -0.0926  0.1325
  448loPI   C4A 7162   4.757   7.955   9.400 -0.0925 -0.1746 -0.1275
  448loPI   C5A 7163   4.781   8.060   8.953 -0.0299  0.2704  0.0498
  448loPI   C6A 7164   4.505   8.173   8.605  0.0308 -0.1390  0.0463
  448loPI   C1B 7165   5.327   7.545  10.357 -0.0833  0.0431 -0.1768
  448loPI   C2B 7166   5.292   7.437   9.919  0.4300  0.0324 -0.2083
  448loPI   C3B 7167   5.337   7.372   9.471  0.1442 -0.0029  0.1177
  448loPI   C4B 7168   5.006   7.568   9.260  0.1939  0.1201  0.0265
  449loPI    C1 7169   9.840   0.025  11.811  0.1683  0.0958 -0.1249
  449loPI    C2 7170   9.876   0.377  11.997  0.1705  0.0249  0.0097
  449loPI    C3 7171   9.956   0.038  12.193  0.0495 -0.0581 -0.0827
  449loPI   PO4 7172   9.848   0.205  11.523  0.2398 -0.1429 -0.1633
  449loPI   GL1 7173   9.820   0.113  11.120  0.1110 -0.1674 -0.1115
  449loPI   GL2 7174  10.112   0.070  10.880  0.0642  0.0547  0.0101
  449loPI   C1A 7175   9.661   0.410  10.689  0.0830 -0.2075  0.0423
  449loPI   C2A 7176   9.789   0.468  10.215 -0.2743  0.0447 -0.0206
  449loPI   C3A 7177   9.774   0.455   9.788 -0.0916  0.1029  0.1619
  449loPI   C4A 7178   9.701   0.517   9.339 -0.1100 -0.1333  0.3427
  449loPI   C5A 7179   9.810   0.777   8.972 -0.1046  0.1144  0.1095
  449loPI   C6A 7180   9.855   1.203   8.977  0.2603  0.2315  0.1093
  449loPI   C1B 7181  10.226   0.121  10.376 -0.1099  0.0981  0.0581
  449loPI   C2B 7182  10.146   0.153   9.906 -0.2238 -0.5222  0.2723
  449loPI   C3B 7183  10.095   0.244   9.449  0.0154 -0.0819 -0.0059
  449loPI   C4B 7184  10.169   0.453   8.993 -0.1017 -0.4987  0.0779
  450loPI    C1 7185  13.700  11.457  11.358 -0.1138 -0.0451 -0.3125
  450loPI    C2 7186  13.918  11.146  11.483 -0.0983  0.0524 -0.0931
  450loPI    C3 7187  13.705  11.359  11.746 -0.0698  0.2577 -0.2347
  450loPI   PO4 7188  13.666  11.456  11.191  0.1180 -0.0275  0.1932
  450loPI   GL1 7189  13.726  11.760  10.787  0.0022  0.0160  0.2477
  450loPI   GL2 7190  13.423  11.686  10.677 -0.0830 -0.1512 -0.0432
  450loPI   C1A 7191  13.835  11.989  10.403 -0.1259  0.2822  0.2551
  450loPI   C2A 7192  13.892  12.182  10.012 -0.2636  0.2971 -0.3295
  450loPI   C3A 7193  13.870  12.021   9.619  0.1458 -0.2386 -0.2282
  450loPI   C4A 7194  14.213  12.134   9.393  0.1016 -0.0555  0.1383
  450loPI   C5A 7195  14.382  11.887   9.152  0.0511  0.0937  0.1741
  450loPI   C6A 7196  14.824  11.995   8.984 -0.1218 -0.0147 -0.0728
  450loPI   C1B 7197  13.352  11.907  10.389  0.2581 -0.0975 -0.1677
  450loPI   C2B 7198  13.478  11.841  10.026 -0.2072  0.1840 -0.0214
  450loPI   C3B 7199  13.524  11.687   9.550  0.0679 -0.4834  0.0190
  450loPI   C4B 7200  13.361  11.545   9.239  0.2507  0.2233  0.1031
  451loPI    C1 7201   3.802  13.447  11.687  0.0363  0.3458  0.1222
  451loPI    C2 7202   4.063  13.233  11.902 -0.2495  0.0047  0.1385
  451loPI    C3 7203   4.195  13.515  11.651  0.1412 -0.2386  0.0612
  451loPI   PO4 7204   3.702  13.334  11.562  0.0940  0.2856  0.0550
  451loPI   GL1 7205   3.693  13.055  11.201 -0.1407  0.2577  0.4028
  451loPI   GL2 7206   3.725  12.872  11.001 -0.1388  0.1741  0.0668
  451loPI   C1A 7207   3.489  13.214  10.755  0.0626 -0.0066  0.0685
  451loPI   C2A 7208   3.454  13.121  10.321  0.0091  0.0699  0.1244
  451loPI   C3A 7209   3.461  13.185   9.933 -0.1571  0.1465 -0.0023
  451loPI   C4A 7210   3.535  13.253   9.570  0.0511  0.3904 -0.1533
  451loPI   C5A 7211   3.660  13.274   9.208  0.3605  0.0859  0.1371
  451loPI   C6A 7212   4.039  13.360   9.021 -0.1427  0.0056  0.0193
  451loPI   C1B 7213   3.793  12.810  10.585 -0.1728 -0.2201  0.1028
  451loPI   C2B 7214   3.802  12.849  10.135  0.3258  0.0581 -0.0631
  451loPI   C3B 7215   3.824  12.888   9.755  0.0568  0.1406  0.0544
  451loPI   C4B 7216   3.932  12.859   9.317 -0.0912  0.1120 -0.0849
  452loPI    C1 7217  11.295  17.185  11.344 -0.1057  0.0001  0.0001
  452loPI    C2 7218  11.133  17.162  11.709 -0.0374  0.0900  0.0365
  452loPI    C3 7219  11.492  17.330  11.660 -0.0585  0.1033 -0.0759
  452loPI   PO4 7220  11.170  17.244  11.185 -0.2446 -0.0867  0.1328
  452loPI   GL1 7221  11.116  17.221  10.883 -0.0531 -0.2177  0.0638
  452loPI   GL2 7222  11.117  16.940  10.691 -0.2719 -0.3612  0.0835
  452loPI   C1A 7223  11.227  17.501  10.501 -0.0835  0.0380 -0.0510
  452loPI   C2A 7224  11.110  17.603  10.111 -0.1292 -0.0340 -0.0323
  452loPI   C3A 7225  11.178  17.671   9.731 -0.0056 -0.0225 -0.2161
  452loPI   C4A 7226  11.367  17.606   9.349 -0.2220  0.1044 -0.2329
  452loPI   C5A 7227  11.569  17.959   9.000  0.1790  0.3670  0.2358
  452loPI   C6A 7228  11.533  18.350   8.692 -0.2814  0.1139  0.1671
  452loPI   C1B 7229  11.142  17.053  10.294  0.0834  0.3071  0.0095
  452loPI   C2B 7230  11.108  17.118   9.859  0.0714 -0.0023 -0.2017
  452loPI   C3B 7231  10.925  17.111   9.336 -0.0284 -0.2516  0.1245
  452loPI   C4B 7232  11.087  16.914   9.000  0.0343 -0.0090  0.0448
  453loPI    C1 7233   4.382  15.151  11.551  0.2881  0.0817  0.0474
  453loPI    C2 7234   4.278  14.859  11.804  0.0608 -0.0016 -0.1391
  453loPI    C3 7235   4.247  15.241  11.917  0.1288 -0.0422  0.0202
  453loPI   PO4 7236   4.262  15.132  11.380 -0.1215  0.0411 -0.1389
  453loPI   GL1 7237   4.355  14.998  10.979 -0.1414 -0.0188 -0.2120
  453loPI   GL2 7238   4.111  14.608  10.885 -0.1749 -0.0691 -0.0825
  453loPI   C1A 7239   4.249  14.921  10.522  0.1466  0.0004  0.1295
  453loPI   C2A 7240   4.306  14.846  10.150  0.3168 -0.0399 -0.1502
  453loPI   C3A 7241   4.306  14.855   9.688 -0.0101  0.0348  0.0697
  453loPI   C4A 7242   4.151  15.021   9.303  0.0434 -0.0460 -0.1416
  453loPI   C5A 7243   4.372  15.110   8.930 -0.2240  0.0652 -0.2869
  453loPI   C6A 7244   4.710  15.386   8.799 -0.1756  0.0888 -0.2117
  453loPI   C1B 7245   4.091  14.325  10.652 -0.1683  0.2110  0.0010
  453loPI   C2B 7246   4.111  14.314  10.165  0.0679 -0.1028  0.2187
  453loPI   C3B 7247   4.209  14.337   9.800  0.3234  0.2215 -0.1040
  453loPI   C4B 7248   4.093  14.497   9.350 -0.2131 -0.3776  0.0650
  454loPI    C1 7249  17.538   6.297  11.263 -0.1244 -0.0354 -0.0820
  454loPI    C2 7250  17.632   6.686  11.270 -0.2754  0.0018 -0.0879
  454loPI    C3 7251  17.332   6.549  11.496 -0.0575 -0.1562  0.1097
  454loPI   PO4 7252  17.510   6.261  11.003 -0.1116 -0.2289  0.1091
  454loPI   GL1 7253  17.300   6.304  10.728 -0.0755 -0.0485  0.0830
  454loPI   GL2 7254  17.494   6.649  10.761  0.3231  0.0357  0.0781
  454loPI   C1A 7255  17.321   6.153  10.254  0.3590  0.1299 -0.1804
  454loPI   C2A 7256  17.169   6.200   9.779  0.0026  0.3561 -0.0722
  454loPI   C3A 7257  17.200   6.201   9.340  0.0834  0.3418 -0.0278
  454loPI   C4A 7258  17.408   6.091   8.849  0.2388  0.1217  0.0417
  454loPI   C5A 7259  17.415   5.975   8.389  0.1743 -0.0116  0.1011
  454loPI   C6A 7260  17.511   5.863   7.918  0.1758  0.2189 -0.0909
  454loPI   C1B 7261  17.262   6.774  10.510 -0.0661 -0.1357  0.0731
  454loPI   C2B 7262  17.320   6.623  10.108  0.1838 -0.0168 -0.0245
  454loPI   C3B 7263  17.258   6.742   9.790 -0.0158  0.1591  0.1526
  454loPI   C4B 7264  17.310   6.773   9.386 -0.0472  0.2753  0.1784
  455loPI    C1 7265   0.877  15.426  11.252 -0.0859  0.1610  0.0177
  455loPI    C2 7266   1.050  15.533  11.597  0.0112 -0.1214  0.0588
  455loPI    C3 7267   0.671  15.404  11.595 -0.0702  0.1154  0.0243
  455loPI   PO4 7268   1.060  15.234  11.007 -0.0469  0.0104  0.2618
  455loPI   GL1 7269   1.451  15.319  10.887  0.0910 -0.0824  0.1457
  455loPI   GL2 7270   1.449  15.598  10.719 -0.1265  0.1958  0.0687
  455loPI   C1A 7271   1.427  15.213  10.390 -0.0080  0.0519  0.1373
  455loPI   C2A 7272   1.435  15.312   9.946 -0.2545 -0.0479  0.0537
  455loPI   C3A 7273   1.564  15.235   9.519  0.2247  0.1930 -0.0183
  455loPI   C4A 7274   1.547  15.149   9.060 -0.2217 -0.2079  0.0663
  455loPI   C5A 7275   1.760  15.306   8.685 -0.0148 -0.4561 -0.1337
  455loPI   C6A 7276   1.871  15.049   8.284 -0.1713 -0.0838 -0.0336
  455loPI   C1B 7277   1.561  15.715  10.284 -0.2407 -0.1377  0.2993
  455loPI   C2B 7278   1.520  15.778   9.867 -0.1215  0.1025  0.2050
  455loPI   C3B 7279   1.666  15.761   9.507  0.0872  0.1905  0.0524
  455loPI   C4B 7280   1.692  15.845   9.079  0.1625 -0.2680  0.1687
  456loPI    C1 7281   0.775   0.469  11.471 -0.0223  0.2252  0.1333
  456loPI    C2 7282   0.844   0.268  11.809 -0.1432  0.0738  0.0689
  456loPI    C3 7283   0.496   0.223  11.617  0.1243 -0.2506 -0.3569
  456loPI   PO4 7284   0.932   0.333  11.271 -0.0239 -0.2595 -0.0501
  456loPI   GL1 7285   0.964   0.340  10.837  0.3138  0.0681  0.1435
  456loPI   GL2 7286   0.669   0.292  10.733 -0.0478  0.2960  0.2570
  456loPI   C1A 7287   1.094   0.435  10.340  0.2175 -0.2607 -0.1479
  456loPI   C2A 7288   1.149   0.435   9.951 -0.2023 -0.0258  0.0717
  456loPI   C3A 7289   0.983   0.472   9.534  0.0251 -0.4666 -0.0060
  456loPI   C4A 7290   0.895   0.474   9.149 -0.0302 -0.1755  0.1314
  456loPI   C5A 7291   0.741   0.423   8.766  0.3334  0.1040  0.0676
  456loPI   C6A 7292   0.652   0.405   8.366  0.2371  0.4004 -0.1617
  456loPI   C1B 7293   0.560   0.336  10.312  0.1803  0.1082  0.2680
  456loPI   C2B 7294   0.650   0.285   9.887  0.2475 -0.1412  0.2488
  456loPI   C3B 7295   0.515   0.269   9.558 -0.1825 -0.1959 -0.1232
  456loPI   C4B 7296   0.418   0.299   9.165 -0.3791  0.0241 -0.0890
  457loPI    C1 7297   5.628  13.646  11.819  0.0444  0.0364 -0.1540
  457loPI    C2 7298   5.699  13.946  12.072 -0.0529  0.1232 -0.2289
  457loPI    C3 7299   5.330  13.797  12.038  0.0127 -0.0655 -0.1264
  457loPI   PO4 7300   5.712  13.692  11.551  0.2144 -0.0162  0.0716
  457loPI   GL1 7301   5.847  14.073  11.214  0.1196  0.2980  0.2201
  457loPI   GL2 7302   6.121  13.824  11.265 -0.2832 -0.2987  0.0916
  457loPI   C1A 7303   5.941  14.073  10.753  0.1536 -0.1259 -0.0175
  457loPI   C2A 7304   6.001  14.054  10.278  0.0222  0.1513  0.2248
  457loPI   C3A 7305   5.958  14.084   9.876 -0.0498 -0.0243  0.0554
  457loPI   C4A 7306   5.865  14.022   9.414 -0.2791 -0.0542 -0.1780
  457loPI   C5A 7307   5.791  13.741   9.045 -0.0184  0.1514  0.0608
  457loPI   C6A 7308   5.515  13.653   8.752  0.0856 -0.1427 -0.0613
  457loPI   C1B 7309   6.363  13.727  10.835  0.2948  0.0853  0.3094
  457loPI   C2B 7310   6.382  13.691  10.422 -0.0628 -0.0234 -0.0309
  457loPI   C3B 7311   6.357  13.753  10.043 -0.0149 -0.0731  0.0583
  457loPI   C4B 7312   6.390  13.756   9.610  0.0581 -0.0163 -0.1150
  458loPI    C1 7313   0.664  16.087  11.571  0.3414 -0.1272  0.1111
  458loPI    C2 7314   0.760  15.855  11.882 -0.0544 -0.0403  0.3039
  458loPI    C3 7315   0.545  16.187  11.939 -0.0676  0.0169 -0.0548
  458loPI   PO4 7316   0.694  15.915  11.399 -0.1235 -0.1423 -0.2586
  458loPI   GL1 7317   0.889  15.926  11.081 -0.0891  0.3468 -0.3808
  458loPI   GL2 7318   1.000  15.709  10.810  0.1248 -0.0533  0.0427
  458loPI   C1A 7319   0.773  16.199  10.814  0.2845  0.0778 -0.1902
  458loPI   C2A 7320   0.730  16.339  10.415 -0.0632 -0.3290  0.1916
  458loPI   C3A 7321   0.765  16.467   9.954 -0.1166  0.0839 -0.1395
  458loPI   C4A 7322   0.754  16.485   9.502 -0.2256  0.0755 -0.0351
  458loPI   C5A 7323   1.025  16.337   9.152 -0.0938 -0.3429 -0.0418
  458loPI   C6A 7324   1.427  16.263   8.926  0.0035  0.0250 -0.0245
  458loPI   C1B 7325   1.037  15.539  10.407 -0.1137 -0.1757 -0.1302
  458loPI   C2B 7326   0.956  15.531  10.051  0.0610  0.1210  0.2094
  458loPI   C3B 7327   1.104  15.528   9.660  0.0228 -0.2741 -0.1867
  458loPI   C4B 7328   1.178  15.404   9.284  0.0237 -0.0243 -0.1692
  459loPI    C1 7329   1.436   6.835  11.425 -0.0448 -0.3145 -0.2495
  459loPI    C2 7330   1.788   6.943  11.581 -0.1747 -0.0834 -0.1090
  459loPI    C3 7331   1.567   6.663  11.761 -0.2090  0.0018 -0.0182
  459loPI   PO4 7332   1.424   6.754  11.160 -0.0480  0.0434  0.1251
  459loPI   GL1 7333   1.578   6.740  10.733  0.0087 -0.0712  0.1193
  459loPI   GL2 7334   1.611   6.976  10.683  0.0067  0.4076 -0.1516
  459loPI   C1A 7335   1.576   6.596  10.282 -0.0938 -0.2148  0.0846
  459loPI   C2A 7336   1.549   6.438   9.866 -0.0913 -0.0283  0.2636
  459loPI   C3A 7337   1.495   6.516   9.416  0.0591 -0.3770 -0.0322
  459loPI   C4A 7338   1.534   6.412   9.014  0.0075 -0.0582  0.3416
  459loPI   C5A 7339   1.748   6.518   8.617 -0.0544 -0.2055  0.1817
  459loPI   C6A 7340   2.050   6.679   8.376  0.1672  0.1015 -0.0300
  459loPI   C1B 7341   1.535   7.087  10.174  0.0150 -0.1769 -0.0088
  459loPI   C2B 7342   1.681   6.951   9.806  0.1030 -0.0042 -0.1417
  459loPI   C3B 7343   1.641   6.994   9.390  0.1631  0.1983  0.2579
  459loPI   C4B 7344   1.618   6.940   8.967 -0.0222 -0.2266  0.2012
  460loPI    C1 7345  14.500  17.248  11.719  0.1578  0.0437 -0.1654
  460loPI    C2 7346  14.259  17.096  11.438  0.0099  0.0879 -0.0634
  460loPI    C3 7347  14.114  17.182  11.801  0.1513  0.2306 -0.0397
  460loPI   PO4 7348  14.739  17.247  11.620 -0.1151 -0.0490  0.0028
  460loPI   GL1 7349  15.076  17.259  11.172 -0.0943  0.2746  0.2791
  460loPI   GL2 7350  14.791  16.957  11.217 -0.1018  0.1833  0.3847
  460loPI   C1A 7351  15.236  17.248  10.847  0.4028 -0.0475 -0.0576
  460loPI   C2A 7352  15.202  17.192  10.450  0.0939  0.2668  0.1762
  460loPI   C3A 7353  15.167  17.175  10.083 -0.0403 -0.1378  0.1157
  460loPI   C4A 7354  15.323  17.197   9.700  0.3493 -0.3708 -0.2232
  460loPI   C5A 7355  15.382  17.135   9.283 -0.0721 -0.1545 -0.0563
  460loPI   C6A 7356  15.824  17.003   9.133  0.0101  0.2337  0.2502
  460loPI   C1B 7357  14.605  17.045  10.773  0.4628  0.1661  0.1371
  460loPI   C2B 7358  14.694  17.037  10.358  0.1051  0.0147  0.1200
  460loPI   C3B 7359  14.672  16.973   9.847 -0.0055  0.0504 -0.0987
  460loPI   C4B 7360  14.816  17.028   9.413 -0.0969 -0.0291 -0.0394
  461loPI    C1 7361   3.854  15.653  11.738  0.1088  0.1523  0.1653
  461loPI    C2 7362   3.951  15.636  12.126 -0.0191  0.0807  0.1948
  461loPI    C3 7363   3.731  15.940  11.988 -0.2571 -0.0667  0.2442
  461loPI   PO4 7364   4.115  15.684  11.591  0.0408 -0.0701  0.0700
  461loPI   GL1 7365   3.928  15.507  11.209 -0.0566  0.1456 -0.1852
  461loPI   GL2 7366   3.911  15.855  11.168 -0.2844  0.0883 -0.1547
  461loPI   C1A 7367   3.576  15.458  11.017 -0.0267 -0.0372  0.1698
  461loPI   C2A 7368   3.526  15.564  10.534  0.1722 -0.2363 -0.1171
  461loPI   C3A 7369   3.442  15.435  10.112 -0.2254  0.1092  0.1161
  461loPI   C4A 7370   3.335  15.646   9.639  0.1990  0.2730 -0.1429
  461loPI   C5A 7371   3.500  15.686   9.213  0.3618 -0.1212 -0.0120
  461loPI   C6A 7372   3.405  15.628   8.777 -0.2981  0.0706  0.0179
  461loPI   C1B 7373   3.992  15.749  10.732  0.1474  0.0373  0.0212
  461loPI   C2B 7374   3.948  15.841  10.300  0.1038  0.2082 -0.2900
  461loPI   C3B 7375   3.776  15.706   9.927 -0.2269  0.1834  0.0573
  461loPI   C4B 7376   3.913  15.751   9.478  0.2530  0.0984  0.2629
  462loPI    C1 7377  14.417  11.156  11.390 -0.2627 -0.0617  0.0988
  462loPI    C2 7378  14.646  10.833  11.441 -0.2889 -0.1120 -0.0921
  462loPI    C3 7379  14.561  11.069  11.753  0.3249  0.1130 -0.0809
  462loPI   PO4 7380  14.293  11.080  11.121 -0.1282 -0.1440 -0.2346
  462loPI   GL1 7381  14.474  11.146  10.730  0.0217  0.5374  0.2186
  462loPI   GL2 7382  14.267  11.345  10.532 -0.1842 -0.2843 -0.0932
  462loPI   C1A 7383  14.471  10.747  10.386  0.1937  0.1207 -0.0536
  462loPI   C2A 7384  14.512  10.637   9.954  0.1953  0.0579  0.2001
  462loPI   C3A 7385  14.650  10.723   9.636  0.4066  0.0786  0.0794
  462loPI   C4A 7386  14.941  10.657   9.357  0.0189 -0.1968  0.1377
  462loPI   C5A 7387  14.967  10.457   8.975 -0.0711 -0.0270 -0.2850
  462loPI   C6A 7388  14.958  10.254   8.579 -0.0073 -0.2090 -0.1175
  462loPI   C1B 7389  14.111  11.163  10.096  0.1793 -0.2293 -0.0809
  462loPI   C2B 7390  14.232  10.985   9.659 -0.1548 -0.0332  0.1508
  462loPI   C3B 7391  14.424  10.880   9.208 -0.0715  0.3974 -0.0490
  462loPI   C4B 7392  14.695  10.937   8.785  0.3891  0.1161 -0.1258
  463loPI    C1 7393  15.394   8.290  11.592 -0.0782  0.1603  0.0074
  463loPI    C2 7394  15.451   8.063  11.917  0.0349  0.0247 -0.1056
  463loPI    C3 7395  15.354   8.449  11.957  0.1907  0.0451  0.0903
  463loPI   PO4 7396  15.483   8.168  11.412 -0.3091 -0.1183  0.0266
  463loPI   GL1 7397  15.632   8.257  11.016 -0.3740  0.1503 -0.1695
  463loPI   GL2 7398  15.326   8.348  10.970 -0.0587  0.2382  0.1896
  463loPI   C1A 7399  15.953   8.353  10.796 -0.2558 -0.3967  0.0237
  463loPI   C2A 7400  16.039   8.165  10.461  0.0918  0.1699 -0.0724
  463loPI   C3A 7401  16.049   8.142  10.008 -0.1044 -0.2170 -0.2518
  463loPI   C4A 7402  16.173   8.044   9.480 -0.2465  0.2828 -0.0886
  463loPI   C5A 7403  16.063   8.065   9.028 -0.0439  0.1552  0.0615
  463loPI   C6A 7404  15.868   8.166   8.641 -0.0392  0.2631 -0.2691
  463loPI   C1B 7405  15.545   8.149  10.570 -0.2202  0.1904 -0.2526
  463loPI   C2B 7406  15.650   7.953  10.181  0.0491 -0.1044 -0.3250
  463loPI   C3B 7407  15.563   7.831   9.683  0.0022 -0.3530 -0.0235
  463loPI   C4B 7408  15.550   7.763   9.191 -0.0608 -0.4277 -0.0241
  464loPI    C1 7409  13.611   8.142  11.377  0.0029 -0.0218  0.0269
  464loPI    C2 7410  13.525   7.889  11.674  0.0454  0.2192  0.2476
  464loPI    C3 7411  13.766   8.201  11.741  0.0130  0.3052 -0.0276
  464loPI   PO4 7412  13.592   8.075  11.190 -0.0316 -0.1174  0.0454
  464loPI   GL1 7413  13.437   8.025  10.798 -0.0798  0.0978 -0.0465
  464loPI   GL2 7414  13.186   8.165  10.879  0.3963 -0.1180 -0.4368
  464loPI   C1A 7415  13.667   7.904  10.397  0.2095  0.0073 -0.2260
  464loPI   C2A 7416  13.726   7.766   9.927 -0.0202  0.0999 -0.1530
  464loPI   C3A 7417  13.593   7.662   9.571 -0.1998  0.1758  0.2333
  464loPI   C4A 7418  13.585   7.768   9.102  0.1126  0.3901  0.0111
  464loPI   C5A 7419  13.868   7.661   8.747 -0.0476 -0.0821 -0.1378
  464loPI   C6A 7420  13.772   7.373   8.429 -0.1627  0.1992  0.1823
  464loPI   C1B 7421  12.978   8.159  10.449  0.1276 -0.0423 -0.0777
  464loPI   C2B 7422  12.826   7.888  10.248  0.0861  0.1092 -0.3469
  464loPI   C3B 7423  12.739   7.859   9.783 -0.0750 -0.1538 -0.2949
  464loPI   C4B 7424  12.752   7.744   9.379 -0.0163 -0.0935 -0.3481
  465loPI    C1 7425   0.489  10.228  11.219 -0.3092  0.1747  0.1214
  465loPI    C2 7426   0.221  10.195  11.515  0.1675 -0.2000  0.5281
  465loPI    C3 7427   0.524  10.455  11.547 -0.1011  0.1818  0.0957
  465loPI   PO4 7428   0.396  10.290  11.042 -0.4606  0.0754  0.4580
  465loPI   GL1 7429   0.485  10.071  10.646  0.0745 -0.1646 -0.1494
  465loPI   GL2 7430   0.675   9.753  10.616  0.2618 -0.0681 -0.3104
  465loPI   C1A 7431   0.475  10.078  10.284  0.0533 -0.0072 -0.2137
  465loPI   C2A 7432   0.487  10.080   9.923 -0.1518  0.0490 -0.0308
  465loPI   C3A 7433   0.592  10.079   9.457  0.2933 -0.0068 -0.1882
  465loPI   C4A 7434   0.651  10.035   9.046  0.1689  0.1256 -0.1525
  465loPI   C5A 7435   0.528   9.834   8.617 -0.0559 -0.1429  0.0332
  465loPI   C6A 7436   0.442   9.477   8.245  0.1172 -0.2263  0.0152
  465loPI   C1B 7437   0.574   9.604  10.094  0.1554  0.1988 -0.1247
  465loPI   C2B 7438   0.523   9.575   9.673  0.1654  0.0028 -0.0856
  465loPI   C3B 7439   0.607   9.500   9.230 -0.0139  0.1524  0.1770
  465loPI   C4B 7440   0.553   9.369   8.803  0.0980  0.2659  0.3577
  466loPI    C1 7441   9.429   9.809  11.339 -0.0383  0.1077  0.1973
  466loPI    C2 7442   9.104   9.752  11.566  0.0735  0.0517  0.3450
  466loPI    C3 7443   9.431   9.920  11.723  0.2326 -0.2004  0.2894
  466loPI   PO4 7444   9.416   9.558  11.191  0.3627 -0.2135 -0.1638
  466loPI   GL1 7445   9.286   9.409  10.891 -0.1416 -0.1216 -0.3352
  466loPI   GL2 7446   9.244   9.092  10.846  0.0336 -0.1272 -0.2697
  466loPI   C1A 7447   9.063   9.612  10.556  0.2770  0.1498 -0.0150
  466loPI   C2A 7448   8.980   9.555  10.150  0.0784  0.1926 -0.0411
  466loPI   C3A 7449   8.977   9.437   9.718 -0.0457  0.0240  0.1968
  466loPI   C4A 7450   8.874   9.466   9.310 -0.0080  0.2416  0.0732
  466loPI   C5A 7451   8.943   9.347   8.925  0.1616  0.0077  0.0314
  466loPI   C6A 7452   9.372   9.196   8.645 -0.1513 -0.1461 -0.3807
  466loPI   C1B 7453   9.330   9.193  10.370  0.1156  0.0037 -0.1958
  466loPI   C2B 7454   9.362   9.125   9.985 -0.1437  0.0540  0.1587
  466loPI   C3B 7455   9.328   8.977   9.582 -0.0582 -0.1268 -0.1820
  466loPI   C4B 7456   9.284   9.144   9.184  0.1350  0.1621  0.1404
  467loPI    C1 7457   2.139   6.163  11.614  0.1304 -0.1236 -0.0440
  467loPI    C2 7458   2.500   6.090  11.770  0.0622 -0.1529  0.1013
  467loPI    C3 7459   2.179   6.107  12.008 -0.0292 -0.1040 -0.0246
  467loPI   PO4 7460   2.086   6.070  11.363  0.1460  0.3442  0.3996
  467loPI   GL1 7461   1.814   5.982  11.038 -0.0451  0.0791 -0.0864
  467loPI   GL2 7462   1.626   6.242  11.029  0.0733 -0.0221 -0.0291
  467loPI   C1A 7463   1.876   5.819  10.538  0.1508  0.0083 -0.1365
  467loPI   C2A 7464   1.944   5.663  10.129  0.1000  0.2727  0.1922
  467loPI   C3A 7465   1.938   5.536   9.729  0.0372 -0.0133 -0.0572
  467loPI   C4A 7466   1.882   5.601   9.350 -0.2459 -0.1138  0.1042
  467loPI   C5A 7467   1.814   5.549   8.927  0.4591  0.0760  0.3496
  467loPI   C6A 7468   1.904   5.404   8.551 -0.2894 -0.0624 -0.2201
  467loPI   C1B 7469   1.669   6.258  10.629 -0.3615  0.1921 -0.0946
  467loPI   C2B 7470   1.909   6.200  10.235  0.0891  0.1077 -0.2600
  467loPI   C3B 7471   1.930   6.111   9.748  0.4676 -0.2241  0.1281
  467loPI   C4B 7472   1.854   6.155   9.325 -0.6598 -0.0540 -0.3001
  468loPI    C1 7473   5.927   8.327  11.672 -0.2463  0.1075  0.1115
  468loPI    C2 7474   6.154   8.143  11.945 -0.2338 -0.1536 -0.0715
  468loPI    C3 7475   5.889   8.420  12.059  0.1559  0.1388  0.1481
  468loPI   PO4 7476   5.880   8.061  11.481 -0.1977  0.0219  0.1043
  468loPI   GL1 7477   5.839   8.107  11.036  0.0591 -0.0418 -0.1716
  468loPI   GL2 7478   5.831   7.823  10.850  0.0864  0.1314 -0.2945
  468loPI   C1A 7479   5.819   8.272  10.587  0.1801 -0.2018 -0.0738
  468loPI   C2A 7480   6.018   8.215  10.156 -0.2401  0.1891  0.2593
  468loPI   C3A 7481   5.988   8.135   9.704  0.1325  0.0939  0.0964
  468loPI   C4A 7482   5.787   8.198   9.306  0.0593  0.3216  0.1499
  468loPI   C5A 7483   5.667   8.403   9.007  0.2653 -0.3234  0.2633
  468loPI   C6A 7484   5.811   8.562   8.582  0.1688 -0.0851  0.1490
  468loPI   C1B 7485   5.806   7.694  10.339 -0.0857  0.1300 -0.0754
  468loPI   C2B 7486   5.960   7.737   9.928  0.2502 -0.1779  0.0359
  468loPI   C3B 7487   5.839   7.674   9.509  0.4841 -0.0422  0.1663
  468loPI   C4B 7488   5.917   7.793   8.991  0.1922 -0.2559  0.2718
  469loPI    C1 7489   4.202   7.413  11.192 -0.0893 -0.0868 -0.0178
  469loPI    C2 7490   4.572   7.282  11.271  0.0109  0.1655 -0.0600
  469loPI    C3 7491   4.270   7.190  11.517  0.0442 -0.2861 -0.1801
  469loPI   PO4 7492   4.194   7.662  11.189  0.1658 -0.0655 -0.3223
  469loPI   GL1 7493   4.250   7.791  10.851  0.1457  0.2143  0.3045
  469loPI   GL2 7494   4.507   7.595  10.747 -0.2028  0.0129  0.0938
  469loPI   C1A 7495   4.005   7.976  10.591  0.2925  0.4366  0.0550
  469loPI   C2A 7496   4.037   8.099  10.211 -0.3554  0.3361  0.2256
  469loPI   C3A 7497   3.965   8.107   9.754 -0.0756 -0.3700  0.4068
  469loPI   C4A 7498   4.167   7.893   9.374 -0.0207 -0.0004  0.1115
  469loPI   C5A 7499   4.339   7.808   9.011 -0.2390 -0.0640 -0.0853
  469loPI   C6A 7500   3.961   7.777   8.693  0.1530  0.0288 -0.1651
  469loPI   C1B 7501   4.383   7.766  10.381 -0.0697  0.2615  0.2914
  469loPI   C2B 7502   4.370   7.731   9.895 -0.0258 -0.1217  0.2494
  469loPI   C3B 7503   4.440   7.515   9.458 -0.1976 -0.4977 -0.4477
  469loPI   C4B 7504   4.644   7.329   9.056 -0.0838 -0.3308  0.1149
  470loPI    C1 7505   7.515  13.302  11.256 -0.0258  0.0661  0.0064
  470loPI    C2 7506   7.534  12.905  11.302  0.4709  0.1342  0.4982
  470loPI    C3 7507   7.271  13.118  11.515 -0.1468  0.0358 -0.1275
  470loPI   PO4 7508   7.543  13.424  10.968  0.0153  0.0384  0.2619
  470loPI   GL1 7509   7.182  13.485  10.748 -0.3502  0.1967 -0.0572
  470loPI   GL2 7510   7.286  12.984  10.830 -0.1831  0.0072 -0.0799
  470loPI   C1A 7511   7.193  13.581  10.217 -0.0111  0.1723  0.0734
  470loPI   C2A 7512   7.227  13.614   9.756  0.4115 -0.0504 -0.3181
  470loPI   C3A 7513   7.405  13.648   9.324 -0.2517 -0.0335  0.1038
  470loPI   C4A 7514   7.199  13.620   8.915 -0.2552 -0.0047 -0.2430
  470loPI   C5A 7515   6.822  13.362   8.734  0.0597  0.1565 -0.1319
  470loPI   C6A 7516   6.365  13.299   8.550  0.1846  0.0369  0.1705
  470loPI   C1B 7517   7.178  13.120  10.427 -0.0253 -0.1632 -0.0390
  470loPI   C2B 7518   7.177  13.038  10.020  0.0402  0.0027  0.1749
  470loPI   C3B 7519   7.063  13.087   9.579 -0.0832 -0.2524 -0.0663
  470loPI   C4B 7520   7.119  13.142   9.172 -0.1792 -0.0308 -0.2063
  471loPI    C1 7521   0.732  11.140  11.012  0.1033 -0.1166 -0.0334
  471loPI    C2 7522   0.535  11.209  11.353  0.2276  0.0932 -0.0018
  471loPI    C3 7523   0.731  10.864  11.301 -0.0327 -0.0610  0.0201
  471loPI   PO4 7524   0.639  11.345  10.890 -0.0520  0.1161  0.2644
  471loPI   GL1 7525   0.461  11.620  10.599  0.1642 -0.2794 -0.2554
  471loPI   GL2 7526   0.140  11.447  10.505 -0.3254 -0.1371  0.0046
  471loPI   C1A 7527   0.595  11.833  10.253 -0.0117 -0.1183  0.1474
  471loPI   C2A 7528   0.576  11.978   9.836  0.0711 -0.0229 -0.0886
  471loPI   C3A 7529   0.452  11.952   9.359 -0.0014  0.1239  0.1436
  471loPI   C4A 7530   0.275  11.916   8.981  0.0882  0.2201 -0.3270
  471loPI   C5A 7531   0.121  11.767   8.709 -0.1048 -0.0116  0.0272
  471loPI   C6A 7532  -0.115  11.776   8.402  0.0836  0.1691 -0.1005
  471loPI   C1B 7533   0.217  11.553  10.043 -0.0983  0.0747  0.0329
  471loPI   C2B 7534   0.347  11.562   9.618 -0.2014 -0.2767  0.0151
  471loPI   C3B 7535   0.653  11.272   9.327  0.0756  0.0563  0.3178
  471loPI   C4B 7536   0.683  11.047   8.915 -0.3095 -0.1104  0.0112
  472loPI    C1 7537   1.177  15.970  11.566  0.1211  0.2149  0.0019
  472loPI    C2 7538   1.230  16.173  11.907 -0.0611  0.0560  0.1275
  472loPI    C3 7539   1.441  15.841  11.837 -0.2839 -0.1145  0.2523
  472loPI   PO4 7540   1.174  16.134  11.413  0.1110 -0.0635  0.1253
  472loPI   GL1 7541   1.313  16.150  11.017  0.1967  0.2062 -0.1074
  472loPI   GL2 7542   1.673  16.072  10.976 -0.0170 -0.2162 -0.0892
  472loPI   C1A 7543   1.272  16.047  10.510 -0.0645 -0.0994  0.3455
  472loPI   C2A 7544   1.144  15.984  10.120  0.0974 -0.6241  0.1964
  472loPI   C3A 7545   1.205  16.187   9.712  0.1322 -0.1322  0.0467
  472loPI   C4A 7546   1.250  15.951   9.362 -0.0517  0.1945 -0.1160
  472loPI   C5A 7547   1.201  15.793   8.943 -0.2448  0.2665 -0.1969
  472loPI   C6A 7548   1.265  15.400   8.706  0.0147 -0.1770 -0.0888
  472loPI   C1B 7549   1.718  16.317  10.626 -0.2950  0.1296  0.0643
  472loPI   C2B 7550   1.585  16.256  10.170 -0.0695 -0.0723  0.0794
  472loPI   C3B 7551   1.664  16.261   9.693  0.1983 -0.1825  0.0972
  472loPI   C4B 7552   1.744  16.396   9.314 -0.4779 -0.0555  0.2144
  473loPI    C1 7553   5.532  15.085  11.470 -0.1729  0.1268 -0.1666
  473loPI    C2 7554   5.191  15.122  11.265 -0.2361  0.1692 -0.0541
  473loPI    C3 7555   5.190  15.156  11.664 -0.1627 -0.2129 -0.0175
  473loPI   PO4 7556   5.753  15.208  11.293 -0.2804 -0.0665 -0.1972
  473loPI   GL1 7557   5.826  15.316  10.893  0.2024  0.0381 -0.1303
  473loPI   GL2 7558   6.074  15.055  10.808 -0.3071  0.0525  0.0412
  473loPI   C1A 7559   5.686  15.439  10.429  0.2129  0.2578  0.0630
  473loPI   C2A 7560   5.713  15.286  10.020  0.1190 -0.2157 -0.3034
  473loPI   C3A 7561   5.632  15.539   9.746 -0.1566  0.4232 -0.2155
  473loPI   C4A 7562   5.533  15.584   9.243  0.2066  0.0181 -0.1300
  473loPI   C5A 7563   5.279  15.809   8.899 -0.1797 -0.1491 -0.1915
  473loPI   C6A 7564   5.214  16.032   8.513 -0.1806  0.5794  0.1488
  473loPI   C1B 7565   6.195  14.974  10.402  0.0088 -0.2284 -0.0295
  473loPI   C2B 7566   6.188  14.962  10.057 -0.0959 -0.0120 -0.0214
  473loPI   C3B 7567   6.062  15.183   9.651  0.0667 -0.2445 -0.1005
  473loPI   C4B 7568   5.908  15.137   9.239 -0.1803  0.1998  0.1628
  474POPI    C1 7569   9.035   7.934  11.291 -0.0516  0.0753  0.0025
  474POPI    C2 7570   8.782   7.851  11.590  0.0220  0.2081  0.1029
  474POPI    C3 7571   9.133   7.661  11.567 -0.1744 -0.1354 -0.1589
  474POPI   PO4 7572   8.917   8.065  11.164  0.1253  0.0315  0.3839
  474POPI   GL1 7573   8.763   8.154  10.781 -0.1272  0.0746  0.0438
  474POPI   GL2 7574   8.580   7.884  10.693  0.0420  0.1358  0.0371
  474POPI   C1A 7575   8.811   8.395  10.413 -0.0650 -0.0890 -0.2986
  474POPI   D2A 7576   8.637   8.515   9.977 -0.3628 -0.2825  0.0096
  474POPI   C3A 7577   8.718   8.434   9.471 -0.0949 -0.0057 -0.1017
  474POPI   C4A 7578   8.727   8.318   8.962  0.1414  0.0336  0.0884
  474POPI   C1B 7579   8.686   7.939  10.290  0.2407 -0.1002  0.2563
  474POPI   C2B 7580   8.761   8.001   9.814  0.0210 -0.0944  0.0738
  474POPI   C3B 7581   8.651   7.909   9.441  0.2783  0.1812  0.0173
  474POPI   C4B 7582   8.525   7.731   9.030  0.0567 -0.0578 -0.0682
  475POPI    C1 7583  15.785   1.909  11.539 -0.0466 -0.0646  0.2293
  475POPI    C2 7584  16.026   1.609  11.429  0.0606  0.0772  0.0720
  475POPI    C3 7585  16.080   1.790  11.782  0.2814  0.2055 -0.0251
  475POPI   PO4 7586  15.696   1.993  11.329 -0.3321 -0.2403  0.2134
  475POPI   GL1 7587  15.443   1.952  10.990  0.0465 -0.2122  0.3027
  475POPI   GL2 7588  15.115   2.059  10.846  0.1916  0.2389 -0.4250
  475POPI   C1A 7589  15.611   2.154  10.588 -0.0780 -0.0214 -0.2265
  475POPI   D2A 7590  15.632   2.086  10.192 -0.2043 -0.0739 -0.3152
  475POPI   C3A 7591  15.604   2.255   9.866 -0.1437 -0.0185  0.2075
  475POPI   C4A 7592  15.563   2.184   9.480  0.3748 -0.0839  0.1281
  475POPI   C1B 7593  15.178   2.008  10.385  0.2135 -0.3115 -0.0108
  475POPI   C2B 7594  15.145   2.054   9.949  0.1960 -0.2390 -0.0914
  475POPI   C3B 7595  15.063   1.964   9.537 -0.1188  0.1831  0.0712
  475POPI   C4B 7596  15.057   1.974   9.169  0.2034 -0.0003 -0.0150
  476POPI    C1 7597   0.637   2.244  11.663 -0.4633  0.0785  0.0272
  476POPI    C2 7598   0.707   2.588  11.856  0.0617 -0.0960  0.1641
  476POPI    C3 7599   0.673   2.246  12.061 -0.0448 -0.1879 -0.0043
  476POPI   PO4 7600   0.676   2.348  11.412  0.1739  0.0806 -0.3592
  476POPI   GL1 7601   0.381   2.474  11.119 -0.1255 -0.1543 -0.2811
  476POPI   GL2 7602   0.273   2.177  11.109 -0.1811  0.0624  0.1309
  476POPI   C1A 7603   0.486   2.626  10.753  0.1273 -0.1345  0.2002
  476POPI   D2A 7604   0.553   2.823  10.358  0.0019  0.0626 -0.4461
  476POPI   C3A 7605   0.448   2.682   9.993 -0.0719  0.0614  0.3302
  476POPI   C4A 7606   0.381   2.631   9.569 -0.1939  0.0354 -0.1264
  476POPI   C1B 7607   0.386   2.110  10.658  0.3708 -0.1597  0.1115
  476POPI   C2B 7608   0.367   2.246  10.289 -0.3926 -0.0381  0.0531
  476POPI   C3B 7609   0.344   2.113   9.821 -0.2353  0.2048 -0.3986
  476POPI   C4B 7610   0.438   2.198   9.396  0.1812  0.1325 -0.2968
  477POPI    C1 7611   3.868   0.837  11.705  0.2860  0.0141  0.0889
  477POPI    C2 7612   3.988   1.093  11.987 -0.0052  0.3105 -0.0499
  477POPI    C3 7613   3.695   0.832  12.065  0.3100 -0.0066  0.1003
  477POPI   PO4 7614   3.788   0.916  11.469 -0.0981  0.0297 -0.0812
  477POPI   GL1 7615   3.579   0.859  11.112  0.2604  0.1444  0.2014
  477POPI   GL2 7616   3.425   0.755  10.881  0.1432  0.2887 -0.2160
  477POPI   C1A 7617   3.880   1.084  10.761  0.0968  0.0406 -0.3036
  477POPI   D2A 7618   3.933   1.146  10.348 -0.0140  0.0397 -0.0168
  477POPI   C3A 7619   3.839   1.200   9.911 -0.0198  0.1660  0.1730
  477POPI   C4A 7620   3.933   1.139   9.477  0.3146 -0.0585 -0.1167
  477POPI   C1B 7621   3.365   0.848  10.546 -0.1711  0.2256 -0.0514
  477POPI   C2B 7622   3.424   0.966  10.111  0.0928 -0.1617  0.4357
  477POPI   C3B 7623   3.389   0.928   9.642 -0.0922 -0.3616 -0.4879
  477POPI   C4B 7624   3.448   0.888   9.258  0.3081 -0.0133 -0.1432
  478POPI    C1 7625   8.614   4.076  11.567  0.0139  0.1046 -0.1057
  478POPI    C2 7626   8.587   4.476  11.568 -0.0251  0.1051  0.2643
  478POPI    C3 7627   8.746   4.286  11.882  0.2591 -0.1565 -0.0308
  478POPI   PO4 7628   8.472   3.942  11.429 -0.1410  0.2519  0.1913
  478POPI   GL1 7629   8.284   3.790  11.061 -0.0369  0.0548 -0.0643
  478POPI   GL2 7630   8.000   3.767  11.092  0.0964 -0.0857 -0.0749
  478POPI   C1A 7631   8.420   3.814  10.573 -0.1070 -0.2716 -0.1576
  478POPI   D2A 7632   8.549   3.766  10.180  0.1063 -0.0457 -0.3812
  478POPI   C3A 7633   8.420   3.851   9.716  0.2604  0.0326  0.2129
  478POPI   C4A 7634   8.439   3.729   9.268 -0.1432  0.1747  0.0388
  478POPI   C1B 7635   7.881   3.583  10.703 -0.2279 -0.0983 -0.1521
  478POPI   C2B 7636   7.986   3.636  10.312  0.3185  0.0603 -0.0156
  478POPI   C3B 7637   7.926   3.581   9.915  0.1853 -0.0800 -0.2590
  478POPI   C4B 7638   7.955   3.643   9.490 -0.2186  0.1253  0.0066
  479POPI    C1 7639   6.404   8.116  11.421  0.0668  0.0107  0.1071
  479POPI    C2 7640   6.754   8.309  11.443  0.0912  0.0048 -0.1870
  479POPI    C3 7641   6.689   7.985  11.669  0.2980 -0.0291 -0.1745
  479POPI   PO4 7642   6.370   8.210  11.056  0.2212  0.2116 -0.1232
  479POPI   GL1 7643   6.442   7.804  10.837 -0.2486  0.1834 -0.0600
  479POPI   GL2 7644   6.754   8.035  10.684 -0.2395  0.0202  0.1395
  479POPI   C1A 7645   6.328   7.872  10.409  0.2113 -0.0709 -0.3318
  479POPI   D2A 7646   6.415   7.989  10.017  0.2097  0.0605  0.1130
  479POPI   C3A 7647   6.450   7.822   9.659 -0.1042 -0.1278  0.0144
  479POPI   C4A 7648   6.296   7.930   9.264 -0.1352 -0.1861  0.1780
  479POPI   C1B 7649   6.858   8.078  10.270  0.1140 -0.0226 -0.2708
  479POPI   C2B 7650   6.861   8.080   9.841  0.3300  0.1125  0.1459
  479POPI   C3B 7651   6.884   8.116   9.471  0.1435 -0.0737 -0.0821
  479POPI   C4B 7652   6.751   8.013   9.041 -0.1886 -0.1522 -0.2288
  480POPI    C1 7653   0.266   3.224  11.803  0.3227  0.0988  0.1444
  480POPI    C2 7654   0.386   2.891  11.990  0.0161  0.0525  0.2634
  480POPI    C3 7655   0.226   3.192  12.200  0.0655  0.1756  0.1262
  480POPI   PO4 7656   0.203   3.083  11.557  0.0018 -0.1789 -0.0192
  480POPI   GL1 7657   0.052   3.278  11.103 -0.1366  0.1693  0.0157
  480POPI   GL2 7658   0.287   3.051  11.042  0.2835 -0.0515  0.0545
  480POPI   C1A 7659   0.157   3.549  10.760  0.0049 -0.3371  0.1339
  480POPI   D2A 7660   0.132   3.463  10.284  0.0375 -0.0148  0.0438
  480POPI   C3A 7661   0.076   3.412   9.867 -0.4454 -0.1181  0.1552
  480POPI   C4A 7662   0.184   3.436   9.442  0.1081 -0.1485 -0.3125
  480POPI   C1B 7663   0.111   3.011  10.643 -0.2963 -0.2912  0.1552
  480POPI   C2B 7664   0.051   2.982  10.168  0.0512  0.1024  0.1886
  480POPI   C3B 7665   0.017   2.936   9.737  0.0696  0.1334  0.0561
  480POPI   C4B 7666   0.031   2.797   9.254  0.0041  0.0991  0.0409
  481POPI    C1 7667   7.843  13.045  10.919 -0.1139  0.2117 -0.0548
  481POPI    C2 7668   8.069  13.362  10.828  0.4478 -0.1723 -0.0466
  481POPI    C3 7669   7.999  13.270  11.210 -0.0559  0.1635 -0.0486
  481POPI   PO4 7670   7.789  12.874  10.823  0.1166 -0.3396 -0.2668
  481POPI   GL1 7671   7.628  12.663  10.461  0.0852  0.1244  0.0590
  481POPI   GL2 7672   7.318  12.651  10.472  0.1761  0.0258  0.2809
  481POPI   C1A 7673   7.606  12.789  10.104  0.2236  0.2229  0.2389
  481POPI   D2A 7674   7.449  12.649   9.691  0.2417  0.2354  0.3146
  481POPI   C3A 7675   7.533  12.784   9.396  0.0538  0.1464  0.1228
  481POPI   C4A 7676   7.702  12.743   8.892 -0.4150 -0.0213 -0.1523
  481POPI   C1B 7677   7.052  12.557  10.144 -0.1878 -0.0141 -0.0553
  481POPI   C2B 7678   6.958  12.603   9.717  0.0919  0.1394  0.1007
  481POPI   C3B 7679   6.897  12.679   9.225 -0.2489 -0.0875  0.1820
  481POPI   C4B 7680   6.911  12.775   8.857  0.0818 -0.1990  0.1809
  482POPI    C1 7681   2.798  11.446  11.364 -0.0808  0.3249 -0.0842
  482POPI    C2 7682   3.028  11.600  11.652  0.1347  0.1271 -0.1469
  482POPI    C3 7683   2.643  11.517  11.726  0.1355  0.2658  0.0215
  482POPI   PO4 7684   2.926  11.434  11.195 -0.1494  0.2206  0.1476
  482POPI   GL1 7685   3.009  11.756  10.986  0.2424 -0.1592  0.0332
  482POPI   GL2 7686   3.175  11.624  10.744 -0.0371 -0.3151 -0.1987
  482POPI   C1A 7687   2.799  11.902  10.574  0.0655 -0.0650 -0.1550
  482POPI   D2A 7688   2.573  11.954  10.273  0.1366  0.0959 -0.1420
  482POPI   C3A 7689   2.771  11.928   9.903 -0.3196 -0.1361 -0.1123
  482POPI   C4A 7690   2.831  11.980   9.497 -0.1238  0.4267 -0.2433
  482POPI   C1B 7691   3.218  11.661  10.318  0.1356  0.2257 -0.2984
  482POPI   C2B 7692   3.220  11.649   9.812  0.2926  0.0645 -0.3958
  482POPI   C3B 7693   3.295  11.743   9.259 -0.4328  0.1784 -0.1039
  482POPI   C4B 7694   3.593  11.855   8.918 -0.3276 -0.0685 -0.1061
  483POPI    C1 7695   8.751   7.328  11.528  0.1602 -0.1293  0.1956
  483POPI    C2 7696   8.429   7.539  11.637  0.0127 -0.2515  0.0027
  483POPI    C3 7697   8.709   7.448  11.907  0.0751  0.1812  0.0915
  483POPI   PO4 7698   8.857   7.436  11.209  0.0532 -0.1166  0.0415
  483POPI   GL1 7699   8.674   7.336  10.869 -0.0300 -0.0297  0.0323
  483POPI   GL2 7700   8.992   7.628  10.758  0.0910 -0.1681  0.4486
  483POPI   C1A 7701   8.607   7.444  10.463  0.0358  0.0275  0.1052
  483POPI   D2A 7702   8.676   7.448  10.025  0.3477  0.1306 -0.3078
  483POPI   C3A 7703   8.558   7.188   9.807 -0.2110  0.1495 -0.1847
  483POPI   C4A 7704   8.530   7.334   9.373 -0.2048  0.1141 -0.0877
  483POPI   C1B 7705   9.081   7.593  10.263  0.0870 -0.0845 -0.0161
  483POPI   C2B 7706   9.171   7.413   9.927  0.1871 -0.0029 -0.2767
  483POPI   C3B 7707   8.987   7.483   9.538  0.2807 -0.1851 -0.1448
  483POPI   C4B 7708   9.060   7.417   9.123  0.2537  0.1263  0.0445
  484POPI    C1 7709  14.187   9.027  11.239  0.2050 -0.1246  0.0040
  484POPI    C2 7710  14.175   8.898  11.617  0.0418  0.2119  0.1178
  484POPI    C3 7711  14.524   8.919  11.424  0.1397  0.1369  0.2845
  484POPI   PO4 7712  13.995   8.931  11.148 -0.0339  0.2307  0.2548
  484POPI   GL1 7713  13.886   9.008  10.764 -0.1374 -0.0297  0.0220
  484POPI   GL2 7714  14.148   9.195  10.666  0.4843  0.4525 -0.1943
  484POPI   C1A 7715  13.781   8.753  10.385  0.0535  0.0711 -0.1076
  484POPI   D2A 7716  13.908   8.897   9.971 -0.1987 -0.1111  0.2645
  484POPI   C3A 7717  13.802   8.712   9.648  0.3555  0.1769  0.3482
  484POPI   C4A 7718  13.836   8.639   9.260 -0.0967  0.0488 -0.0965
  484POPI   C1B 7719  14.310   8.982  10.253 -0.1945  0.0352 -0.0504
  484POPI   C2B 7720  14.353   8.990   9.845 -0.1790  0.0225 -0.2994
  484POPI   C3B 7721  14.319   8.815   9.422 -0.1716 -0.2812  0.0632
  484POPI   C4B 7722  14.275   8.799   9.007  0.5385  0.1758 -0.1591
  485POPI    C1 7723   7.188   6.136  11.415  0.0979 -0.0627  0.0444
  485POPI    C2 7724   7.152   5.871  11.117 -0.1666  0.1115 -0.0823
  485POPI    C3 7725   7.329   5.765  11.460  0.2647 -0.0520 -0.3482
  485POPI   PO4 7726   7.290   6.356  11.274 -0.2190 -0.0506 -0.0482
  485POPI   GL1 7727   7.573   6.268  10.999  0.2120  0.2133  0.0091
  485POPI   GL2 7728   7.507   6.490  10.830  0.2197  0.3983  0.0905
  485POPI   C1A 7729   7.493   5.843  10.801  0.0032  0.0689  0.4735
  485POPI   D2A 7730   7.401   5.798  10.364  0.3003 -0.1824  0.1294
  485POPI   C3A 7731   7.382   5.793   9.886  0.2966 -0.1542 -0.0046
  485POPI   C4A 7732   7.437   5.921   9.496  0.0265 -0.1771 -0.0389
  485POPI   C1B 7733   7.472   6.239  10.527 -0.1416  0.2094  0.2846
  485POPI   C2B 7734   7.496   6.279  10.008 -0.1266  0.1896 -0.2844
  485POPI   C3B 7735   7.542   6.385   9.579 -0.1287 -0.0457 -0.0798
  485POPI   C4B 7736   7.555   6.434   9.164  0.4925 -0.0694 -0.0977
  486POPI    C1 7737   2.063  11.925  11.729  0.1032  0.2767  0.0717
  486POPI    C2 7738   2.224  11.682  12.002  0.0563  0.0912 -0.0633
  486POPI    C3 7739   2.170  12.070  12.086  0.4470  0.1298  0.0325
  486POPI   PO4 7740   2.312  11.887  11.510 -0.1770  0.0106 -0.1000
  486POPI   GL1 7741   2.494  11.797  11.100 -0.0467 -0.0390 -0.1572
  486POPI   GL2 7742   2.439  11.993  11.011  0.1810 -0.1281  0.0020
  486POPI   C1A 7743   2.286  11.745  10.629 -0.0935  0.1271 -0.0657
  486POPI   D2A 7744   2.138  11.635  10.175  0.0154 -0.0114  0.2345
  486POPI   C3A 7745   2.325  11.754   9.779  0.0020 -0.4527 -0.0009
  486POPI   C4A 7746   2.284  11.819   9.374  0.1708  0.1006  0.1258
  486POPI   C1B 7747   2.309  12.306  10.637  0.3017 -0.1612  0.0004
  486POPI   C2B 7748   2.389  12.579  10.359 -0.0534  0.0180  0.0600
  486POPI   C3B 7749   2.544  12.669  10.087 -0.0701 -0.0742  0.0050
  486POPI   C4B 7750   2.522  12.784   9.631 -0.2515  0.2532 -0.0166
  487POPI    C1 7751  13.135   5.236  11.649 -0.1154 -0.0072 -0.1351
  487POPI    C2 7752  12.808   5.313  11.867 -0.0168  0.2155 -0.0632
  487POPI    C3 7753  13.131   5.155  12.041 -0.1427 -0.1688 -0.1679
  487POPI   PO4 7754  12.979   5.356  11.417 -0.0396 -0.1463  0.2324
  487POPI   GL1 7755  12.954   5.341  11.041 -0.0650 -0.0547 -0.0800
  487POPI   GL2 7756  12.970   5.494  10.839  0.1673  0.2061 -0.0554
  487POPI   C1A 7757  12.752   5.075  10.721 -0.0621 -0.2076  0.1563
  487POPI   D2A 7758  12.989   4.987  10.414  0.1131 -0.0061  0.0309
  487POPI   C3A 7759  12.822   4.948  10.086  0.0197  0.1102  0.0083
  487POPI   C4A 7760  12.688   4.932   9.696 -0.2540  0.0738  0.1864
  487POPI   C1B 7761  12.834   5.512  10.343  0.2311 -0.1316 -0.1546
  487POPI   C2B 7762  12.909   5.493   9.887 -0.0674 -0.5911 -0.3116
  487POPI   C3B 7763  12.784   5.441   9.506 -0.2814 -0.0072  0.0843
  487POPI   C4B 7764  12.772   5.060   9.123  0.2733  0.0224 -0.4129
  488POPI    C1 7765   7.431  16.706  11.703  0.0680 -0.0985  0.0210
  488POPI    C2 7766   7.708  16.873  11.939 -0.0096  0.1205 -0.0410
  488POPI    C3 7767   7.581  16.501  12.012 -0.0205  0.1801  0.2531
  488POPI   PO4 7768   7.510  16.772  11.454 -0.1780 -0.1459  0.1639
  488POPI   GL1 7769   7.687  16.846  11.125 -0.1409 -0.4175  0.1017
  488POPI   GL2 7770   7.703  16.557  10.819 -0.3817 -0.2294  0.1823
  488POPI   C1A 7771   7.590  16.970  10.676  0.5482 -0.1518 -0.0209
  488POPI   D2A 7772   7.453  17.067  10.202  0.0423 -0.1740  0.1002
  488POPI   C3A 7773   7.275  17.042   9.760  0.2414  0.1535  0.0453
  488POPI   C4A 7774   7.216  17.041   9.256 -0.0190  0.1654 -0.1108
  488POPI   C1B 7775   7.772  16.721  10.277  0.0724  0.1124 -0.4332
  488POPI   C2B 7776   7.725  16.724   9.862 -0.1568  0.1590  0.1564
  488POPI   C3B 7777   7.722  16.665   9.442 -0.0035 -0.1039 -0.1186
  488POPI   C4B 7778   7.633  16.625   9.060 -0.1825 -0.2757  0.0718
  489POPI    C1 7779   5.239   2.258  11.543 -0.1379  0.0078  0.0197
  489POPI    C2 7780   5.421   2.393  11.872 -0.0300 -0.0990  0.0047
  489POPI    C3 7781   5.136   2.114  11.901 -0.2204  0.0952  0.0315
  489POPI   PO4 7782   5.385   2.396  11.305  0.1762  0.1896 -0.3053
  489POPI   GL1 7783   5.426   2.640  11.069  0.3960  0.1981 -0.4741
  489POPI   GL2 7784   5.169   2.823  11.021  0.0316 -0.0174  0.0432
  489POPI   C1A 7785   5.467   2.733  10.630  0.0519  0.2496  0.1629
  489POPI   D2A 7786   5.420   2.701  10.217 -0.1310 -0.2897  0.2368
  489POPI   C3A 7787   5.569   2.669   9.762 -0.2098 -0.0402  0.3006
  489POPI   C4A 7788   5.489   2.687   9.416 -0.1722 -0.0203 -0.0032
  489POPI   C1B 7789   5.030   3.001  10.623  0.0968  0.0315  0.2201
  489POPI   C2B 7790   5.062   3.014  10.102  0.0855 -0.1755 -0.0164
  489POPI   C3B 7791   5.096   3.010   9.641  0.3218 -0.3275  0.1894
  489POPI   C4B 7792   4.941   3.018   9.282 -0.0031 -0.0977 -0.2398
  490POPI    C1 7793   5.910   5.528  11.440 -0.0768  0.0573  0.0336
  490POPI    C2 7794   6.083   5.180  11.536  0.0340  0.0879 -0.0520
  490POPI    C3 7795   5.800   5.336  11.773  0.0864  0.0112  0.0617
  490POPI   PO4 7796   5.873   5.489  11.182  0.1768  0.3104 -0.1271
  490POPI   GL1 7797   5.546   5.369  10.955 -0.0714 -0.2867 -0.1175
  490POPI   GL2 7798   5.753   5.304  10.739 -0.1639  0.2331  0.1065
  490POPI   C1A 7799   5.384   5.487  10.508 -0.1345 -0.0131 -0.0672
  490POPI   D2A 7800   5.426   5.619  10.040  0.0204 -0.0459  0.1457
  490POPI   C3A 7801   5.496   5.513   9.702  0.1790 -0.3168  0.2273
  490POPI   C4A 7802   5.596   5.462   9.226 -0.0762  0.1294 -0.0606
  490POPI   C1B 7803   5.830   5.288  10.259  0.1333 -0.0462 -0.1937
  490POPI   C2B 7804   5.870   5.219   9.888  0.2887  0.1930  0.1287
  490POPI   C3B 7805   6.021   5.279   9.475 -0.1634 -0.2400 -0.1272
  490POPI   C4B 7806   6.054   5.397   9.027  0.0052  0.2472 -0.2869
  491POPI    C1 7807   2.217   7.942  11.045 -0.0534 -0.0385 -0.0175
  491POPI    C2 7808   2.035   7.627  11.211 -0.1656  0.1534  0.2305
  491POPI    C3 7809   2.185   7.916  11.443  0.1446  0.1709  0.0142
  491POPI   PO4 7810   2.266   7.959  10.793 -0.2238  0.0829 -0.0232
  491POPI   GL1 7811   2.566   7.966  10.468  0.1583  0.0750  0.3037
  491POPI   GL2 7812   2.711   8.218  10.706 -0.1968  0.1001 -0.0490
  491POPI   C1A 7813   2.591   7.999  10.104  0.2899 -0.1001 -0.4280
  491POPI   D2A 7814   2.781   7.927   9.766  0.3230 -0.3502 -0.0184
  491POPI   C3A 7815   2.661   7.895   9.347 -0.0803 -0.1776 -0.1785
  491POPI   C4A 7816   2.580   7.952   8.876  0.1212  0.1299 -0.4760
  491POPI   C1B 7817   2.720   8.492  10.299 -0.2579 -0.0217 -0.0070
  491POPI   C2B 7818   2.785   8.484   9.858  0.2149  0.2208  0.0898
  491POPI   C3B 7819   2.739   8.435   9.474 -0.3632 -0.1984 -0.0269
  491POPI   C4B 7820   2.834   8.326   9.073 -0.1454 -0.0215  0.0210
  492POPI    C1 7821   9.351  14.584  11.449 -0.0697  0.0417 -0.1807
  492POPI    C2 7822   9.704  14.769  11.412  0.1917 -0.3706  0.1583
  492POPI    C3 7823   9.444  14.888  11.691  0.0711 -0.0886 -0.0692
  492POPI   PO4 7824   9.336  14.419  11.060  0.1708 -0.1130 -0.2433
  492POPI   GL1 7825   9.222  14.389  10.623 -0.0826  0.2682 -0.3753
  492POPI   GL2 7826   9.262  14.764  10.653  0.1482  0.1264 -0.5487
  492POPI   C1A 7827   8.998  14.273  10.284  0.2206  0.0658 -0.3535
  492POPI   D2A 7828   8.792  14.284   9.874  0.1453 -0.0716 -0.3313
  492POPI   C3A 7829   8.770  14.277   9.422 -0.3270 -0.1516  0.0501
  492POPI   C4A 7830   8.854  14.299   9.034  0.0039  0.0565 -0.2260
  492POPI   C1B 7831   9.056  14.778  10.215  0.3388  0.0220  0.0228
  492POPI   C2B 7832   8.912  14.776   9.832  0.0682 -0.0255 -0.1336
  492POPI   C3B 7833   8.904  15.127   9.527 -0.1605 -0.1916 -0.0165
  492POPI   C4B 7834   8.877  15.245   9.098  0.0777 -0.0113 -0.2093
  493POPI    C1 7835   8.459  16.655  11.438 -0.1663  0.0349 -0.2341
  493POPI    C2 7836   8.646  16.843  11.737  0.0781 -0.1537 -0.2654
  493POPI    C3 7837   8.433  17.052  11.471 -0.3782 -0.0084  0.1980
  493POPI   PO4 7838   8.552  16.461  11.268 -0.0004 -0.2427  0.2166
  493POPI   GL1 7839   8.631  16.287  10.924 -0.2026 -0.0209  0.1653
  493POPI   GL2 7840   8.914  16.532  10.897 -0.0875 -0.1783 -0.1099
  493POPI   C1A 7841   8.412  16.418  10.621 -0.3811  0.0661 -0.1628
  493POPI   D2A 7842   8.100  16.381  10.316  0.2310 -0.1579 -0.0902
  493POPI   C3A 7843   8.130  16.440   9.884  0.2304  0.3167 -0.1481
  493POPI   C4A 7844   8.151  16.356   9.433 -0.0537 -0.0281  0.1960
  493POPI   C1B 7845   8.813  16.589  10.413  0.0472  0.0164  0.0418
  493POPI   C2B 7846   8.598  16.563   9.953 -0.0037 -0.1449 -0.0527
  493POPI   C3B 7847   8.551  16.612   9.584  0.1234 -0.0118 -0.1713
  493POPI   C4B 7848   8.533  16.494   9.158 -0.4898 -0.2291 -0.0367
  494POPI    C1 7849  11.286  14.743  11.142 -0.0064 -0.2469 -0.0719
  494POPI    C2 7850  11.380  14.409  11.340 -0.3291 -0.1539  0.2483
  494POPI    C3 7851  11.317  14.749  11.541  0.0471  0.1173 -0.0781
  494POPI   PO4 7852  11.198  14.662  10.878 -0.0162  0.0083  0.0775
  494POPI   GL1 7853  11.196  14.532  10.534  0.1486 -0.0463  0.0771
  494POPI   GL2 7854  11.489  14.661  10.485  0.1000  0.2090 -0.0015
  494POPI   C1A 7855  11.098  14.761  10.112 -0.0121 -0.1683 -0.0975
  494POPI   D2A 7856  11.103  14.760   9.705 -0.0884 -0.0743 -0.2131
  494POPI   C3A 7857  10.781  15.004   9.523 -0.0021 -0.0682 -0.4010
  494POPI   C4A 7858  10.731  15.163   9.152 -0.1119 -0.1625  0.2878
  494POPI   C1B 7859  11.842  14.987  10.377  0.2412  0.0394 -0.3374
  494POPI   C2B 7860  12.270  14.868  10.184  0.0253 -0.2434 -0.0675
  494POPI   C3B 7861  12.396  14.583   9.907 -0.2764 -0.0351 -0.0940
  494POPI   C4B 7862  12.560  14.372   9.551  0.1024 -0.1635 -0.2179
  495POPI    C1 7863   3.070  17.223  11.636 -0.1350 -0.2199 -0.3087
  495POPI    C2 7864   3.408  17.009  11.649  0.0233  0.0431  0.1428
  495POPI    C3 7865   3.225  17.114  11.989 -0.1910  0.4061 -0.0778
  495POPI   PO4 7866   2.939  17.163  11.486 -0.1792 -0.0095 -0.3855
  495POPI   GL1 7867   2.563  16.961  11.197  0.0127  0.2050  0.0996
  495POPI   GL2 7868   2.483  17.183  11.049  0.0487  0.1118 -0.3038
  495POPI   C1A 7869   2.581  16.660  10.807  0.0713  0.0799  0.0424
  495POPI   D2A 7870   2.639  16.769  10.325 -0.1309  0.0387  0.0429
  495POPI   C3A 7871   2.556  16.695   9.915 -0.0306  0.1364  0.0324
  495POPI   C4A 7872   2.662  16.783   9.515  0.0141 -0.0185  0.1350
  495POPI   C1B 7873   2.726  17.139  10.668  0.4225 -0.1397  0.1311
  495POPI   C2B 7874   2.582  17.233  10.249  0.0934 -0.0581  0.2182
  495POPI   C3B 7875   2.745  17.223   9.804  0.1251  0.0781 -0.0029
  495POPI   C4B 7876   2.803  17.199   9.350 -0.1154 -0.2147  0.1187
  496POPI    C1 7877   8.825  11.234  11.198 -0.1454  0.0173  0.1246
  496POPI    C2 7878   8.644  11.137  11.541 -0.0140 -0.0230  0.1830
  496POPI    C3 7879   9.010  11.298  11.546  0.0910 -0.2519  0.0524
  496POPI   PO4 7880   8.642  11.274  11.037  0.2086  0.1380  0.1150
  496POPI   GL1 7881   8.615  11.287  10.593 -0.3179  0.0439 -0.2882
  496POPI   GL2 7882   8.279  11.168  10.710 -0.0628  0.2824  0.0841
  496POPI   C1A 7883   8.745  11.267  10.132  0.1166 -0.0237 -0.3954
  496POPI   D2A 7884   8.890  11.333   9.727  0.2307  0.0601  0.2780
  496POPI   C3A 7885   8.725  11.263   9.414  0.1924  0.2115  0.2479
  496POPI   C4A 7886   8.649  11.226   8.960  0.2155 -0.1847 -0.1486
  496POPI   C1B 7887   8.176  11.182  10.188  0.2143  0.3076  0.2306
  496POPI   C2B 7888   8.200  11.018   9.706 -0.0657  0.0614 -0.0323
  496POPI   C3B 7889   8.261  11.052   9.248  0.2466 -0.1346 -0.2904
  496POPI   C4B 7890   8.167  11.040   8.831  0.0177 -0.0439  0.4944
  497POPI    C1 7891  10.278  14.854  11.415  0.1926  0.2791  0.1023
  497POPI    C2 7892  10.180  14.501  11.576 -0.0988  0.1681 -0.3029
  497POPI    C3 7893  10.439  14.742  11.763  0.1566 -0.2869 -0.0544
  497POPI   PO4 7894  10.252  14.747  11.117  0.1706 -0.2265 -0.1395
  497POPI   GL1 7895  10.278  14.804  10.654 -0.0083  0.3767 -0.4357
  497POPI   GL2 7896  10.414  15.060  10.780 -0.1728 -0.1657  0.1072
  497POPI   C1A 7897   9.934  14.989  10.514  0.2886  0.1492 -0.1174
  497POPI   D2A 7898   9.610  14.944  10.316 -0.2141 -0.2644  0.1203
  497POPI   C3A 7899   9.414  14.747   9.919  0.1853  0.0434  0.0493
  497POPI   C4A 7900   9.277  14.805   9.493 -0.0454 -0.3215 -0.1501
  497POPI   C1B 7901  10.389  15.164  10.268  0.0504  0.3783 -0.0135
  497POPI   C2B 7902  10.305  15.131   9.780 -0.0638  0.1435  0.0881
  497POPI   C3B 7903  10.254  15.235   9.391  0.0506  0.2409 -0.0268
  497POPI   C4B 7904   9.892  15.182   8.995  0.1881 -0.0232  0.1952
  498POPI    C1 7905  16.410  10.582  11.211 -0.1393 -0.2816  0.1016
  498POPI    C2 7906  16.184  10.894  11.319  0.0140 -0.1351  0.0041
  498POPI    C3 7907  16.083  10.524  11.434 -0.0873 -0.0345  0.2451
  498POPI   PO4 7908  16.500  10.655  10.939  0.1613  0.2470  0.1253
  498POPI   GL1 7909  16.627  10.786  10.476 -0.0745 -0.0124  0.1047
  498POPI   GL2 7910  17.004  10.950  10.285 -0.0893 -0.1554  0.1055
  498POPI   C1A 7911  16.483  10.579  10.113 -0.0945  0.1437 -0.3456
  498POPI   D2A 7912  16.554  10.680   9.784 -0.1853 -0.1978 -0.2114
  498POPI   C3A 7913  16.795  10.490   9.447 -0.1394 -0.1576 -0.1887
  498POPI   C4A 7914  16.899  10.336   9.093 -0.1612  0.2700 -0.0268
  498POPI   C1B 7915  16.956  10.978   9.784  0.0273 -0.1945 -0.0197
  498POPI   C2B 7916  16.936  10.976   9.410  0.0836 -0.3143 -0.2131
  498POPI   C3B 7917  16.923  10.849   8.983 -0.0392  0.1983  0.1709
  498POPI   C4B 7918  17.056  10.933   8.563  0.2857  0.1542 -0.0470
  499POPI    C1 7919   1.818  10.266  11.256 -0.0613 -0.0142  0.0099
  499POPI    C2 7920   2.007  10.043  11.529 -0.1496 -0.1328 -0.0252
  499POPI    C3 7921   1.664  10.225  11.623  0.0311  0.1652  0.0702
  499POPI   PO4 7922   1.808  10.092  11.039 -0.1720 -0.0942  0.1894
  499POPI   GL1 7923   1.646  10.144  10.690 -0.0132  0.4107 -0.0568
  499POPI   GL2 7924   1.783  10.371  10.431 -0.1091  0.1694  0.1040
  499POPI   C1A 7925   1.522   9.980  10.240  0.1440 -0.4364 -0.0061
  499POPI   D2A 7926   1.492   9.978   9.760 -0.1776 -0.1300 -0.0190
  499POPI   C3A 7927   1.675   9.883   9.344  0.0623  0.3605  0.0376
  499POPI   C4A 7928   1.662  10.066   9.071 -0.2719  0.1545  0.0908
  499POPI   C1B 7929   1.710  10.387   9.922 -0.2441 -0.0368 -0.1700
  499POPI   C2B 7930   1.720  10.365   9.479 -0.1755  0.0122  0.0111
  499POPI   C3B 7931   1.715  10.579   9.121 -0.0365 -0.2186 -0.1953
  499POPI   C4B 7932   1.452  10.468   8.780 -0.0272 -0.0508  0.1382
  500POPI    C1 7933  14.357   3.140  11.557 -0.1253  0.0188  0.1385
  500POPI    C2 7934  14.353   3.407  11.855  0.0248 -0.0226  0.1783
  500POPI    C3 7935  14.579   3.078  11.883  0.0106 -0.0452  0.0348
  500POPI   PO4 7936  14.362   3.253  11.336  0.0353 -0.1650  0.2175
  500POPI   GL1 7937  14.559   3.313  11.005  0.0539 -0.1393 -0.2800
  500POPI   GL2 7938  14.804   3.323  11.001  0.2024  0.1613  0.0023
  500POPI   C1A 7939  14.494   3.162  10.476  0.0882 -0.2888 -0.1716
  500POPI   D2A 7940  14.440   3.068  10.120  0.1340 -0.2306 -0.1307
  500POPI   C3A 7941  14.339   3.191   9.708  0.1202  0.1304  0.0336
  500POPI   C4A 7942  14.305   3.164   9.345  0.1444 -0.1343 -0.1407
  500POPI   C1B 7943  15.032   3.381  10.715 -0.1109 -0.2498  0.3717
  500POPI   C2B 7944  14.949   3.329  10.300 -0.0330 -0.0263  0.3597
  500POPI   C3B 7945  14.916   3.356   9.868 -0.2712  0.0236  0.4185
  500POPI   C4B 7946  14.798   3.316   9.504  0.1630  0.1909  0.1767
  501POPI    C1 7947   0.395   3.937  11.763 -0.0546  0.2491 -0.0894
  501POPI    C2 7948   0.162   3.709  11.994 -0.0986  0.0999 -0.2791
  501POPI    C3 7949   0.428   3.956  12.161 -0.0238 -0.1168 -0.0714
  501POPI   PO4 7950   0.259   4.082  11.602  0.0389 -0.0733  0.0064
  501POPI   GL1 7951   0.092   4.218  11.182  0.2289 -0.1424 -0.2005
  501POPI   GL2 7952   0.295   4.144  11.002  0.2930  0.2780 -0.2005
  501POPI   C1A 7953  -0.120   4.365  10.748 -0.2154 -0.1375 -0.2401
  501POPI   D2A 7954  -0.145   4.268  10.345 -0.1804  0.1931  0.3972
  501POPI   C3A 7955  -0.148   4.291   9.764 -0.0336 -0.0770  0.3868
  501POPI   C4A 7956  -0.341   4.414   9.306 -0.0501  0.6540 -0.0549
  501POPI   C1B 7957   0.226   3.999  10.600  0.0527 -0.0829  0.3287
  501POPI   C2B 7958   0.215   3.963  10.160 -0.0266 -0.1022 -0.1815
  501POPI   C3B 7959   0.198   3.966   9.758  0.0500 -0.0367 -0.0314
  501POPI   C4B 7960   0.068   3.909   9.305 -0.0961  0.0140  0.1036
  502POPI    C1 7961   0.718   7.434  11.243  0.1671 -0.2496  0.0521
  502POPI    C2 7962   0.837   7.764  11.437 -0.0742 -0.0606 -0.1157
  502POPI    C3 7963   0.726   7.439  11.643 -0.0492  0.0386  0.0556
  502POPI   PO4 7964   0.832   7.460  11.008  0.0904  0.0188  0.1559
  502POPI   GL1 7965   0.718   7.623  10.652 -0.0676 -0.0319 -0.0113
  502POPI   GL2 7966   0.664   7.864  10.448 -0.1270 -0.3904 -0.0590
  502POPI   C1A 7967   0.655   7.350  10.314  0.1717 -0.2043 -0.1387
  502POPI   D2A 7968   0.636   7.109  10.058 -0.0376 -0.2373 -0.2219
  502POPI   C3A 7969   0.708   7.166   9.556  0.0945 -0.0453  0.1238
  502POPI   C4A 7970   0.614   7.098   9.132  0.1683 -0.0945  0.1116
  502POPI   C1B 7971   0.705   7.794  10.087 -0.2899 -0.0034  0.4800
  502POPI   C2B 7972   0.662   7.674   9.648 -0.1123  0.0401  0.1494
  502POPI   C3B 7973   0.813   7.580   9.307 -0.2079 -0.1590 -0.0474
  502POPI   C4B 7974   0.681   7.536   8.875 -0.1597 -0.2064 -0.1057
  503POPI    C1 7975  14.571  10.661  10.877  0.0960 -0.0356 -0.2566
  503POPI    C2 7976  14.290  10.566  11.145  0.1929  0.1095 -0.1012
  503POPI    C3 7977  14.188  10.638  10.765  0.0830 -0.3256 -0.1594
  503POPI   PO4 7978  14.866  10.623  10.979 -0.1364  0.0996  0.0347
  503POPI   GL1 7979  15.146  10.417  10.677  0.0903  0.1526  0.1438
  503POPI   GL2 7980  14.842  10.418  10.473  0.0950 -0.0039 -0.1791
  503POPI   C1A 7981  15.244  10.439  10.149  0.0138  0.2794 -0.2628
  503POPI   D2A 7982  15.090  10.435   9.749 -0.3585 -0.0036  0.0782
  503POPI   C3A 7983  15.067  10.102   9.405 -0.0626  0.0469  0.1620
  503POPI   C4A 7984  15.009   9.988   8.998 -0.1925  0.4033  0.0089
  503POPI   C1B 7985  14.795  10.166  10.128 -0.2590  0.3150 -0.1172
  503POPI   C2B 7986  14.671  10.177   9.653  0.0373  0.2266  0.3158
  503POPI   C3B 7987  14.581  10.341   9.207  0.3131 -0.2035  0.2357
  503POPI   C4B 7988  14.453  10.451   8.814  0.2564 -0.3002 -0.2626
  504POPI    C1 7989  12.482  12.654  11.283 -0.0260 -0.0192  0.0536
  504POPI    C2 7990  12.568  12.777  11.654 -0.0140 -0.0332  0.0554
  504POPI    C3 7991  12.848  12.595  11.433  0.0644  0.2270 -0.0640
  504POPI   PO4 7992  12.360  12.919  11.201 -0.0568  0.1722 -0.1411
  504POPI   GL1 7993  12.227  12.799  10.782  0.0794 -0.0625 -0.0301
  504POPI   GL2 7994  12.328  13.067  10.640  0.3147 -0.0333  0.1993
  504POPI   C1A 7995  12.498  12.635  10.506  0.1071 -0.1810 -0.1300
  504POPI   D2A 7996  12.737  12.391  10.266 -0.0094 -0.3537  0.0204
  504POPI   C3A 7997  12.779  12.374   9.858 -0.1638 -0.0205  0.3438
  504POPI   C4A 7998  12.869  12.334   9.396  0.0487 -0.0011 -0.0795
  504POPI   C1B 7999  12.432  13.059  10.165  0.0319 -0.0555 -0.0426
  504POPI   C2B 8000  12.463  13.311   9.731  0.1153 -0.1325 -0.0201
  504POPI   C3B 8001  12.205  13.433   9.377  0.2307  0.1013  0.5133
  504POPI   C4B 8002  12.010  13.563   8.996 -0.1442  0.1172  0.0746
  505POPI    C1 8003   9.427  12.363  11.031 -0.2165  0.0484 -0.0789
  505POPI    C2 8004   9.445  12.762  11.041  0.0401  0.0323  0.2969
  505POPI    C3 8005   9.104  12.576  11.132 -0.1071  0.1649  0.0293
  505POPI   PO4 8006   9.662  12.328  10.847  0.1285 -0.0968 -0.1409
  505POPI   GL1 8007   9.811  12.623  10.544 -0.1673  0.1035 -0.1228
  505POPI   GL2 8008   9.935  12.965  10.462  0.1431 -0.1668 -0.0605
  505POPI   C1A 8009   9.550  12.525  10.143 -0.4323 -0.1047 -0.1357
  505POPI   D2A 8010   9.498  12.508   9.670  0.2850  0.3760  0.0853
  505POPI   C3A 8011   9.343  12.134   9.380 -0.1111 -0.2682 -0.3543
  505POPI   C4A 8012   9.103  11.960   9.140 -0.1226  0.2621  0.2211
  505POPI   C1B 8013   9.951  12.892  10.113  0.0416 -0.2663 -0.2024
  505POPI   C2B 8014  10.056  13.122   9.852 -0.1361 -0.1303  0.1603
  505POPI   C3B 8015  10.060  13.366   9.524  0.1589  0.0892  0.0962
  505POPI   C4B 8016  10.140  13.634   9.088 -0.0994  0.1697 -0.1146
  506POPI    C1 8017   4.027  14.422  11.737 -0.0680 -0.1455 -0.0786
  506POPI    C2 8018   3.750  14.343  12.015  0.0699  0.2749  0.1864
  506POPI    C3 8019   4.130  14.405  12.123  0.2532 -0.1858 -0.1636
  506POPI   PO4 8020   3.942  14.590  11.545 -0.0135  0.1854  0.3838
  506POPI   GL1 8021   3.835  14.741  11.241  0.0672 -0.0295  0.0485
  506POPI   GL2 8022   3.833  15.003  11.145  0.1121  0.1408 -0.2522
  506POPI   C1A 8023   3.694  14.786  10.697  0.0222  0.0981  0.0571
  506POPI   D2A 8024   3.758  14.642  10.370 -0.4971 -0.1427  0.0476
  506POPI   C3A 8025   3.795  14.663   9.931  0.1797  0.0479 -0.1730
  506POPI   C4A 8026   3.722  14.778   9.511  0.0644  0.0562  0.1682
  506POPI   C1B 8027   3.975  15.240  10.765 -0.0932  0.2922  0.0561
  506POPI   C2B 8028   3.791  15.169  10.397 -0.0717  0.0465  0.3207
  506POPI   C3B 8029   3.873  15.102  10.023 -0.3256 -0.3291  0.0588
  506POPI   C4B 8030   3.731  15.274   9.643 -0.2943 -0.2175 -0.0422
  507POPI    C1 8031   4.987   6.970  11.581  0.1763 -0.2259  0.0846
  507POPI    C2 8032   4.995   6.828  11.955 -0.1571  0.0120  0.1869
  507POPI    C3 8033   4.724   7.103  11.852  0.1345  0.1810 -0.1490
  507POPI   PO4 8034   4.915   6.880  11.379 -0.0561  0.1178  0.2205
  507POPI   GL1 8035   4.903   6.888  10.931  0.2057  0.0705  0.3501
  507POPI   GL2 8036   4.899   7.185  10.923  0.1957 -0.0616  0.2094
  507POPI   C1A 8037   4.720   6.834  10.557  0.0506  0.2690  0.1387
  507POPI   D2A 8038   4.763   6.909  10.100  0.0569  0.0673  0.1159
  507POPI   C3A 8039   4.669   6.677   9.813  0.1318 -0.0966  0.0409
  507POPI   C4A 8040   4.747   6.598   9.376 -0.0167 -0.0734 -0.0787
  507POPI   C1B 8041   4.932   7.318  10.516  0.2934  0.0072 -0.2272
  507POPI   C2B 8042   4.778   7.403  10.207 -0.0784 -0.1019  0.2964
  507POPI   C3B 8043   4.817   7.380   9.755 -0.0085  0.0962 -0.1608
  507POPI   C4B 8044   4.787   7.115   9.454 -0.5073  0.0172  0.0227
  508POPI    C1 8045   6.696   6.297  11.349  0.3388 -0.1401 -0.0814
  508POPI    C2 8046   6.858   6.656  11.418  0.1050 -0.0469 -0.0083
  508POPI    C3 8047   6.681   6.455  11.716  0.0606 -0.1341 -0.0930
  508POPI   PO4 8048   6.687   6.149  11.090 -0.0609  0.1693 -0.0523
  508POPI   GL1 8049   6.636   5.931  10.828  0.0967 -0.1072 -0.2830
  508POPI   GL2 8050   6.794   5.583  10.889 -0.2614 -0.1026 -0.0948
  508POPI   C1A 8051   6.358   5.978  10.429 -0.3982  0.1693  0.0908
  508POPI   D2A 8052   6.380   5.901  10.016 -0.0092 -0.2479  0.1127
  508POPI   C3A 8053   6.365   6.116   9.595 -0.0669 -0.1487 -0.2498
  508POPI   C4A 8054   6.548   6.109   9.186 -0.1110 -0.0742 -0.2059
  508POPI   C1B 8055   6.835   5.657  10.445  0.0666  0.3959  0.2802
  508POPI   C2B 8056   6.853   5.571  10.026 -0.0066 -0.1121 -0.1679
  508POPI   C3B 8057   6.922   5.690   9.641  0.1554 -0.1991 -0.1360
  508POPI   C4B 8058   6.895   5.743   9.210 -0.0850 -0.1572 -0.0110
  509POPI    C1 8059   2.514   6.621  11.586 -0.1008 -0.2198 -0.2728
  509POPI    C2 8060   2.183   6.619  11.811  0.0256 -0.0583 -0.0822
  509POPI    C3 8061   2.535   6.520  11.972  0.1119  0.0225 -0.2187
  509POPI   PO4 8062   2.395   6.561  11.299 -0.1015 -0.0213 -0.0320
  509POPI   GL1 8063   2.233   6.300  10.926 -0.0508 -0.0577 -0.1670
  509POPI   GL2 8064   2.108   6.586  10.792  0.2472  0.1129 -0.2657
  509POPI   C1A 8065   2.315   6.271  10.538  0.1481 -0.1010  0.0527
  509POPI   D2A 8066   2.434   6.294  10.108  0.0936 -0.0583  0.1343
  509POPI   C3A 8067   2.437   6.223   9.707  0.0017 -0.3891 -0.1604
  509POPI   C4A 8068   2.369   6.377   9.302  0.1445  0.0669  0.0403
  509POPI   C1B 8069   2.077   6.728  10.385  0.0939 -0.3073  0.0155
  509POPI   C2B 8070   1.994   6.646   9.997 -0.1347 -0.1617 -0.2817
  509POPI   C3B 8071   1.973   6.604   9.529  0.3147 -0.2426  0.2405
  509POPI   C4B 8072   1.953   6.587   9.117 -0.1310  0.2148 -0.0511
  510POPI    C1 8073  15.716   4.554  11.894  0.1985 -0.0320  0.1656
  510POPI    C2 8074  15.749   4.951  11.926 -0.2906  0.0467 -0.1852
  510POPI    C3 8075  15.688   4.729  12.252 -0.0294  0.2564  0.0116
  510POPI   PO4 8076  15.579   4.534  11.683 -0.0634 -0.1055 -0.2921
  510POPI   GL1 8077  15.326   4.669  11.256 -0.1213  0.0985 -0.1606
  510POPI   GL2 8078  15.281   4.922  11.046  0.0689 -0.1121 -0.0138
  510POPI   C1A 8079  15.429   4.361  10.914  0.0404 -0.2383  0.4145
  510POPI   D2A 8080  15.483   4.228  10.503 -0.0817  0.3027 -0.0486
  510POPI   C3A 8081  15.447   4.128  10.088 -0.0846 -0.2196  0.2841
  510POPI   C4A 8082  15.433   4.034   9.558 -0.1991 -0.0459  0.1269
  510POPI   C1B 8083  15.246   4.949  10.655  0.2133  0.3510 -0.1711
  510POPI   C2B 8084  15.123   4.983  10.317  0.0098 -0.0527  0.1198
  510POPI   C3B 8085  15.160   4.961   9.833 -0.4261 -0.0832 -0.2267
  510POPI   C4B 8086  15.155   4.963   9.445  0.2682 -0.1335  0.1997
  511POPI    C1 8087  15.497  15.883  11.653  0.0524 -0.0530  0.1148
  511POPI    C2 8088  15.683  15.530  11.673  0.2301  0.0535  0.4137
  511POPI    C3 8089  15.365  15.602  11.905 -0.0814 -0.0632  0.0342
  511POPI   PO4 8090  15.739  15.988  11.413  0.0024 -0.2543 -0.1477
  511POPI   GL1 8091  15.820  16.362  11.232 -0.1150  0.2566 -0.1212
  511POPI   GL2 8092  15.503  16.438  11.009  0.1744 -0.1394 -0.0068
  511POPI   C1A 8093  15.929  16.520  10.819  0.0270  0.1164 -0.0252
  511POPI   D2A 8094  15.937  16.604  10.375  0.0952  0.0449 -0.2101
  511POPI   C3A 8095  15.952  16.549   9.998  0.0489 -0.0853  0.0987
  511POPI   C4A 8096  16.081  16.573   9.509  0.2586 -0.0729  0.0639
  511POPI   C1B 8097  15.519  16.303  10.590  0.2133 -0.1601 -0.1033
  511POPI   C2B 8098  15.483  16.332  10.167 -0.1283  0.0206 -0.2752
  511POPI   C3B 8099  15.474  16.382   9.838 -0.0731 -0.0064  0.0545
  511POPI   C4B 8100  15.443  16.285   9.329  0.1516 -0.1577 -0.2853
  512POPI    C1 8101  14.107   6.574  11.888 -0.0754 -0.0037 -0.2377
  512POPI    C2 8102  13.784   6.728  12.066  0.0652  0.1488 -0.1111
  512POPI    C3 8103  13.961   6.404  12.219  0.1033  0.1968 -0.0533
  512POPI   PO4 8104  14.034   6.551  11.635  0.4160  0.3163  0.2272
  512POPI   GL1 8105  14.059   6.630  11.222  0.0661 -0.2420  0.0351
  512POPI   GL2 8106  14.361   6.591  11.249 -0.3132 -0.1759 -0.1081
  512POPI   C1A 8107  13.922   6.533  10.787  0.2095  0.0110  0.0374
  512POPI   D2A 8108  13.965   6.494  10.359 -0.0161 -0.1527  0.1912
  512POPI   C3A 8109  13.948   6.495   9.935  0.0572 -0.4172  0.0831
  512POPI   C4A 8110  14.023   6.371   9.602 -0.1974  0.4184 -0.0695
  512POPI   C1B 8111  14.398   6.686  10.809 -0.0032 -0.0043 -0.2667
  512POPI   C2B 8112  14.503   6.624  10.399  0.1829 -0.0515 -0.1744
  512POPI   C3B 8113  14.459   6.516   9.939 -0.3047 -0.1098  0.1944
  512POPI   C4B 8114  14.460   6.543   9.527  0.2488  0.1009 -0.0663
  513POPI    C1 8115  16.812  17.003  11.796  0.0849  0.0384 -0.0059
  513POPI    C2 8116  16.902  17.196  12.134 -0.2217 -0.0736  0.1444
  513POPI    C3 8117  16.820  16.805  12.143 -0.2135 -0.0816 -0.0639
  513POPI   PO4 8118  16.842  17.257  11.606 -0.2697 -0.2172 -0.0837
  513POPI   GL1 8119  16.854  17.186  11.135 -0.0073  0.1131 -0.0472
  513POPI   GL2 8120  16.477  17.272  11.209  0.3795 -0.0200 -0.1155
  513POPI   C1A 8121  16.985  17.331  10.752 -0.3889 -0.1181  0.1385
  513POPI   D2A 8122  16.904  17.464  10.442  0.1689  0.0678 -0.0867
  513POPI   C3A 8123  16.994  17.470  10.073 -0.1439 -0.3086  0.4509
  513POPI   C4A 8124  17.100  17.423   9.639 -0.0530 -0.2300  0.0874
  513POPI   C1B 8125  16.483  17.219  10.792 -0.3314 -0.0123  0.1822
  513POPI   C2B 8126  16.465  17.341  10.385 -0.0132  0.4076  0.1427
  513POPI   C3B 8127  16.502  17.321   9.908  0.0399 -0.2224  0.2095
  513POPI   C4B 8128  16.621  17.388   9.490  0.0289 -0.0765 -0.0800
  514POPI    C1 8129  15.323  12.595  11.570 -0.2419  0.0898 -0.0817
  514POPI    C2 8130  15.286  12.246  11.763 -0.3065  0.1142 -0.0498
  514POPI    C3 8131  14.961  12.465  11.680 -0.2490  0.2589  0.1010
  514POPI   PO4 8132  15.455  12.627  11.193  0.0833 -0.2827 -0.0474
  514POPI   GL1 8133  15.310  12.693  10.733 -0.0367 -0.1803  0.1137
  514POPI   GL2 8134  15.062  12.861  10.685 -0.2489 -0.0233 -0.2310
  514POPI   C1A 8135  15.073  12.373  10.486  0.1699 -0.0285 -0.1644
  514POPI   D2A 8136  14.707  12.153  10.207 -0.1171  0.1864 -0.1150
  514POPI   C3A 8137  14.663  12.115   9.791 -0.1323  0.2290  0.2723
  514POPI   C4A 8138  14.734  12.180   9.447  0.3264 -0.1631 -0.2082
  514POPI   C1B 8139  15.176  12.867  10.291 -0.0113 -0.3657 -0.0310
  514POPI   C2B 8140  15.256  12.883   9.866 -0.1069 -0.2035  0.0108
  514POPI   C3B 8141  15.211  12.582   9.464 -0.2898  0.3486  0.0104
  514POPI   C4B 8142  15.255  12.224   9.165 -0.0614 -0.1893  0.0928
  515POPI    C1 8143  15.516   7.598  11.756 -0.0361 -0.1543 -0.0888
  515POPI    C2 8144  15.533   7.218  11.879 -0.2254 -0.1071  0.0904
  515POPI    C3 8145  15.513   7.513  12.147  0.2161  0.0489 -0.0400
  515POPI   PO4 8146  15.680   7.596  11.549  0.0119  0.0473  0.2753
  515POPI   GL1 8147  15.849   7.589  11.185 -0.0801  0.0962 -0.3152
  515POPI   GL2 8148  15.662   7.420  11.070 -0.0901  0.0116 -0.0990
  515POPI   C1A 8149  15.912   7.819  10.831  0.0677  0.2516  0.0940
  515POPI   D2A 8150  16.072   7.665  10.368  0.2188  0.0355  0.1917
  515POPI   C3A 8151  15.967   7.674   9.913 -0.3492  0.1060  0.1160
  515POPI   C4A 8152  15.988   7.604   9.475  0.1189  0.0749 -0.2465
  515POPI   C1B 8153  15.504   7.556  10.727 -0.1994  0.0034  0.0200
  515POPI   C2B 8154  15.455   7.591  10.480  0.0902  0.1427 -0.0398
  515POPI   C3B 8155  15.464   7.518  10.054  0.3020 -0.0161  0.0273
  515POPI   C4B 8156  15.504   7.336   9.616 -0.0186  0.1382 -0.0380
  516POPI    C1 8157  10.066   7.619  11.319  0.1539  0.0879 -0.0567
  516POPI    C2 8158  10.418   7.441  11.253  0.2758  0.2056  0.2625
  516POPI    C3 8159  10.250   7.425  11.616 -0.1005  0.0619  0.0871
  516POPI   PO4 8160   9.919   7.511  11.186 -0.1362 -0.1863 -0.0699
  516POPI   GL1 8161   9.843   7.728  10.866  0.0769 -0.2689  0.1642
  516POPI   GL2 8162   9.804   7.947  10.640 -0.0374 -0.0772  0.1264
  516POPI   C1A 8163   9.990   7.419  10.503 -0.4757 -0.1380  0.1195
  516POPI   D2A 8164  10.036   7.287  10.060  0.1495  0.0577  0.0513
  516POPI   C3A 8165   9.879   7.316   9.671  0.0737  0.0955  0.0681
  516POPI   C4A 8166   9.859   7.351   9.269  0.0728 -0.0214 -0.2236
  516POPI   C1B 8167   9.974   7.985  10.308 -0.0767 -0.1541  0.1160
  516POPI   C2B 8168  10.078   7.758   9.893  0.0181 -0.2553  0.0490
  516POPI   C3B 8169  10.069   7.844   9.498  0.0296  0.0120 -0.1686
  516POPI   C4B 8170   9.992   7.949   9.043 -0.2260 -0.0753 -0.0086
  517POPI    C1 8171  15.300  11.829  11.060 -0.1256  0.0496  0.2953
  517POPI    C2 8172  15.253  12.154  11.289  0.1167  0.0603  0.3329
  517POPI    C3 8173  15.375  12.192  10.910 -0.1510  0.0327  0.2416
  517POPI   PO4 8174  15.048  11.661  11.120 -0.2661 -0.1098 -0.0654
  517POPI   GL1 8175  14.850  11.635  10.797  0.3558 -0.3932  0.0196
  517POPI   GL2 8176  14.955  11.841  10.637  0.3344  0.1481 -0.0059
  517POPI   C1A 8177  14.749  11.450  10.363 -0.0006  0.3463 -0.1241
  517POPI   D2A 8178  14.622  11.170  10.097  0.1606 -0.1965 -0.1231
  517POPI   C3A 8179  14.689  11.235   9.717 -0.1876 -0.2086 -0.1461
  517POPI   C4A 8180  14.860  11.156   9.326 -0.2389  0.2437 -0.3956
  517POPI   C1B 8181  15.201  11.895  10.357 -0.1177 -0.0611 -0.3425
  517POPI   C2B 8182  15.586  12.099  10.077 -0.1571 -0.0199  0.0223
  517POPI   C3B 8183  15.554  12.320   9.654  0.1327 -0.4055  0.0989
  517POPI   C4B 8184  15.639  12.537   9.332 -0.1984 -0.1627 -0.0936
  518POPI    C1 8185   1.353  15.203  11.413 -0.3440  0.1176 -0.0102
  518POPI    C2 8186   1.244  15.093  11.781  0.3136 -0.1981  0.1038
  518POPI    C3 8187   1.499  15.397  11.731 -0.0395  0.0689 -0.1171
  518POPI   PO4 8188   1.438  15.049  11.320 -0.0552 -0.0928 -0.1019
  518POPI   GL1 8189   1.397  14.762  10.952  0.0091  0.1172  0.0002
  518POPI   GL2 8190   1.687  14.703  10.888 -0.2165  0.0608 -0.2022
  518POPI   C1A 8191   1.365  14.729  10.481  0.1653  0.2280 -0.2907
  518POPI   D2A 8192   1.290  14.760  10.130  0.0733  0.1410 -0.0368
  518POPI   C3A 8193   1.501  14.776   9.731  0.1684 -0.0496 -0.2111
  518POPI   C4A 8194   1.394  14.663   9.282 -0.6019 -0.0283  0.3859
  518POPI   C1B 8195   1.841  14.887  10.485  0.1421 -0.1450 -0.0369
  518POPI   C2B 8196   1.893  14.937  10.114 -0.1009  0.1106 -0.0258
  518POPI   C3B 8197   1.943  15.014   9.807 -0.0107 -0.1000  0.2390
  518POPI   C4B 8198   1.897  14.828   9.380 -0.0314 -0.2271  0.0775
  519POPI    C1 8199   9.584  10.707  11.522  0.0448  0.3353  0.1111
  519POPI    C2 8200   9.658  10.334  11.646 -0.1499  0.1819 -0.2212
  519POPI    C3 8201   9.609  10.628  11.913 -0.1775 -0.0643  0.0490
  519POPI   PO4 8202   9.641  10.642  11.230  0.0950  0.0901 -0.0850
  519POPI   GL1 8203   9.451  10.774  10.857 -0.0187  0.0930 -0.2585
  519POPI   GL2 8204   9.223  10.529  10.844  0.2563 -0.3508 -0.0228
  519POPI   C1A 8205   9.586  10.835  10.465  0.0673 -0.3029 -0.2259
  519POPI   D2A 8206   9.677  10.746  10.044  0.1258 -0.0164 -0.0680
  519POPI   C3A 8207   9.907  10.445   9.753  0.4659 -0.3313 -0.0372
  519POPI   C4A 8208  10.219  10.305   9.550  0.0988  0.4696 -0.3374
  519POPI   C1B 8209   9.007  10.544  10.460 -0.2710  0.2448  0.2335
  519POPI   C2B 8210   9.006  10.544  10.005 -0.0491  0.3648  0.1089
  519POPI   C3B 8211   9.091  10.521   9.676 -0.2272 -0.0578  0.0888
  519POPI   C4B 8212   9.008  10.404   9.283  0.4398 -0.0747  0.1250
  520POPI    C1 8213  16.910   9.825  11.379  0.2746 -0.2509 -0.3143
  520POPI    C2 8214  16.623   9.644  11.167 -0.2346  0.0782  0.0666
  520POPI    C3 8215  16.709   9.517  11.536  0.1479 -0.0417 -0.0582
  520POPI   PO4 8216  16.987  10.041  11.108  0.1430  0.0885  0.0226
  520POPI   GL1 8217  16.709   9.954  10.766 -0.0799 -0.1095  0.2688
  520POPI   GL2 8218  16.645   9.787  10.456  0.0456 -0.0250  0.1834
  520POPI   C1A 8219  16.427  10.260  10.502 -0.1133 -0.1047  0.1028
  520POPI   D2A 8220  16.037  10.416  10.345 -0.0576  0.1755  0.3987
  520POPI   C3A 8221  16.065  10.394   9.940 -0.0362  0.0159  0.1916
  520POPI   C4A 8222  16.106  10.414   9.498 -0.2152  0.1368  0.1206
  520POPI   C1B 8223  16.654   9.917  10.026 -0.0081  0.0021 -0.2008
  520POPI   C2B 8224  16.541  10.176   9.770 -0.0385  0.0370  0.3236
  520POPI   C3B 8225  16.788  10.004   9.472  0.0920 -0.1762 -0.1829
  520POPI   C4B 8226  16.745   9.849   9.049  0.1893  0.1424 -0.0583
  521POPI    C1 8227  16.350  12.234  11.089  0.0681 -0.2534  0.2700
  521POPI    C2 8228  16.695  12.160  10.902 -0.0590  0.2669 -0.1991
  521POPI    C3 8229  16.695  12.354  11.252  0.1386 -0.0721 -0.0056
  521POPI   PO4 8230  16.213  12.326  10.950  0.2046  0.0665 -0.0733
  521POPI   GL1 8231  16.004  12.366  10.664  0.2353 -0.1318 -0.1307
  521POPI   GL2 8232  15.786  12.495  10.759  0.2046  0.0938  0.0249
  521POPI   C1A 8233  16.068  12.408  10.255  0.0873 -0.1873 -0.1877
  521POPI   D2A 8234  16.335  12.765  10.128 -0.0000  0.0840  0.1196
  521POPI   C3A 8235  16.666  12.922   9.833 -0.2005  0.0691 -0.0224
  521POPI   C4A 8236  16.783  12.994   9.438 -0.1005  0.0311 -0.0352
  521POPI   C1B 8237  15.530  12.477  10.380  0.0699  0.1211  0.2240
  521POPI   C2B 8238  15.664  12.614  10.000 -0.1616  0.2282 -0.1912
  521POPI   C3B 8239  16.046  12.629   9.709 -0.0244 -0.1553 -0.0458
  521POPI   C4B 8240  16.304  12.720   9.352  0.1737  0.0521  0.1806
  522POPI    C1 8241   7.119  12.631  11.479 -0.0284  0.0216 -0.0363
  522POPI    C2 8242   6.768  12.536  11.644 -0.0390  0.2799  0.0953
  522POPI    C3 8243   7.093  12.574  11.874  0.1069 -0.0876 -0.0422
  522POPI   PO4 8244   7.051  12.739  11.225  0.0263 -0.2625 -0.1143
  522POPI   GL1 8245   6.879  12.715  10.875 -0.1763 -0.3736 -0.0886
  522POPI   GL2 8246   6.621  12.938  10.989 -0.0606  0.0626 -0.0331
  522POPI   C1A 8247   6.749  12.774  10.475 -0.1199 -0.0311 -0.2999
  522POPI   D2A 8248   6.693  12.934  10.008 -0.0133  0.1887  0.0497
  522POPI   C3A 8249   6.614  12.938   9.554 -0.1404  0.2856  0.1791
  522POPI   C4A 8250   6.495  13.046   9.078 -0.0453  0.2819  0.0124
  522POPI   C1B 8251   6.759  13.262  10.708 -0.1798 -0.2186 -0.0030
  522POPI   C2B 8252   6.781  13.411  10.276 -0.0382  0.2050 -0.0177
  522POPI   C3B 8253   6.752  13.462   9.898  0.2760  0.1136 -0.0786
  522POPI   C4B 8254   6.732  13.412   9.422  0.0436 -0.1584 -0.0695
  523POPI    C1 8255  11.074  15.793  11.382 -0.0344  0.0294 -0.0222
  523POPI    C2 8256  10.780  15.522  11.381 -0.1077  0.1088 -0.0420
  523POPI    C3 8257  11.062  15.509  11.663 -0.0427 -0.0614 -0.1135
  523POPI   PO4 8258  11.249  15.777  11.064  0.4217  0.0493 -0.4444
  523POPI   GL1 8259  11.032  15.838  10.709  0.1470  0.1221  0.0052
  523POPI   GL2 8260  11.019  15.634  10.489 -0.2233  0.0263  0.0394
  523POPI   C1A 8261  11.312  16.052  10.439 -0.3636  0.1481  0.0629
  523POPI   D2A 8262  11.381  16.251  10.062  0.0269 -0.1028 -0.1004
  523POPI   C3A 8263  11.837  16.457   9.826 -0.1936  0.2635 -0.0350
  523POPI   C4A 8264  12.041  16.559   9.495 -0.2153  0.1589 -0.0646
  523POPI   C1B 8265  11.183  15.626  10.131  0.1248 -0.4963  0.1012
  523POPI   C2B 8266  11.298  15.849   9.767  0.0483 -0.0004 -0.0802
  523POPI   C3B 8267  11.348  15.863   9.421 -0.0458 -0.0080 -0.0599
  523POPI   C4B 8268  11.658  15.679   9.104 -0.0592 -0.2495 -0.0047
  524DPPI    C1 8269  10.267   6.165  11.625 -0.0151 -0.1226 -0.3004
  524DPPI    C2 8270  10.200   5.794  11.758 -0.1278  0.0200  0.0541
  524DPPI    C3 8271  10.431   6.043  11.969 -0.1413  0.1872 -0.1260
  524DPPI   PO4 8272  10.223   6.121  11.339 -0.0398  0.2625  0.0359
  524DPPI   GL1 8273  10.391   6.295  10.974 -0.0899  0.2792 -0.0435
  524DPPI   GL2 8274  10.622   6.056  11.076  0.0276 -0.3722  0.0292
  524DPPI   C1A 8275  10.316   6.321  10.633 -0.0978  0.0800  0.1976
  524DPPI   C2A 8276  10.299   6.444  10.140 -0.0018  0.2882 -0.0751
  524DPPI   C3A 8277  10.318   6.477   9.682  0.0116  0.3004 -0.0284
  524DPPI   C4A 8278  10.229   6.486   9.249  0.0028  0.0067 -0.1473
  524DPPI   C1B 8279  10.764   6.168  10.714 -0.0333  0.1066  0.1920
  524DPPI   C2B 8280  10.647   6.085  10.282 -0.1785  0.1904  0.1330
  524DPPI   C3B 8281  10.625   6.067   9.859 -0.0475 -0.1934 -0.0037
  524DPPI   C4B 8282  10.628   6.200   9.406  0.0904  0.0467  0.2661
  525DPPI    C1 8283   1.282  14.580  11.423  0.2955  0.0738  0.0621
  525DPPI    C2 8284   1.229  14.231  11.612 -0.1356 -0.0113 -0.2024
  525DPPI    C3 8285   1.200  14.575  11.814 -0.0207 -0.1171 -0.0032
  525DPPI   PO4 8286   1.061  14.461  11.160 -0.3406  0.1066 -0.0219
  525DPPI   GL1 8287   0.894  14.409  10.772  0.0707 -0.0686  0.1041
  525DPPI   GL2 8288   0.822  14.836  10.801 -0.1134  0.0514 -0.1822
  525DPPI   C1A 8289   0.821  14.511  10.354 -0.0873  0.0034 -0.2224
  525DPPI   C2A 8290   0.893  14.535   9.950  0.4053  0.1758  0.2139
  525DPPI   C3A 8291   0.982  14.515   9.555  0.0535 -0.0838 -0.2282
  525DPPI   C4A 8292   0.985  14.481   9.183 -0.3827  0.1569  0.1877
  525DPPI   C1B 8293   0.934  15.063  10.364  0.1007  0.1435  0.0665
  525DPPI   C2B 8294   0.905  15.078   9.931 -0.0472  0.1309  0.1778
  525DPPI   C3B 8295   1.074  14.986   9.524  0.2180 -0.3213  0.0454
  525DPPI   C4B 8296   1.097  14.944   9.032 -0.0707 -0.1839 -0.1032
  526DPPI    C1 8297   8.121   8.120  11.308  0.2629 -0.4411 -0.0113
  526DPPI    C2 8298   8.503   8.195  11.400  0.0780  0.1741  0.3134
  526DPPI    C3 8299   8.258   8.035  11.674  0.0762 -0.1428  0.1320
  526DPPI   PO4 8300   8.111   8.047  11.080  0.0863  0.1642  0.3822
  526DPPI   GL1 8301   8.101   8.241  10.734  0.0313  0.0062  0.4606
  526DPPI   GL2 8302   8.026   8.567  10.746  0.0850 -0.1324 -0.0309
  526DPPI   C1A 8303   8.219   8.202  10.273 -0.1517  0.2616 -0.0251
  526DPPI   C2A 8304   8.245   8.129   9.930  0.0134  0.1849  0.2889
  526DPPI   C3A 8305   8.264   8.255   9.532 -0.3603 -0.2041  0.2633
  526DPPI   C4A 8306   8.147   8.309   9.172 -0.2138 -0.0442  0.0845
  526DPPI   C1B 8307   8.008   8.965  10.550  0.2515 -0.2283 -0.1860
  526DPPI   C2B 8308   7.870   9.021  10.196  0.0779  0.0348  0.2739
  526DPPI   C3B 8309   7.951   9.062   9.755 -0.1231 -0.1451 -0.0975
  526DPPI   C4B 8310   7.900   9.043   9.374  0.1389  0.1402 -0.0312
  527DPPI    C1 8311  13.780  14.874  11.258  0.0391 -0.1465  0.0891
  527DPPI    C2 8312  13.397  14.959  11.333  0.0436 -0.0340 -0.0124
  527DPPI    C3 8313  13.649  14.886  11.636 -0.0182  0.0645  0.0634
  527DPPI   PO4 8314  13.729  14.657  11.020  0.1057 -0.1651 -0.1195
  527DPPI   GL1 8315  13.764  14.365  10.608  0.1463  0.2899 -0.1530
  527DPPI   GL2 8316  13.674  14.120  10.845 -0.1703 -0.1247 -0.0403
  527DPPI   C1A 8317  13.601  14.270  10.241  0.0756  0.0466  0.1026
  527DPPI   C2A 8318  13.572  14.322   9.821 -0.1237  0.0839 -0.1866
  527DPPI   C3A 8319  13.679  14.226   9.332 -0.0911  0.1567  0.1950
  527DPPI   C4A 8320  13.534  14.392   8.913 -0.0587 -0.2150 -0.0338
  527DPPI   C1B 8321  13.858  13.873  10.480 -0.0847  0.2494 -0.2665
  527DPPI   C2B 8322  13.840  13.750  10.048 -0.0144  0.0568  0.1653
  527DPPI   C3B 8323  13.737  13.860   9.671  0.2588  0.2172 -0.0749
  527DPPI   C4B 8324  13.822  13.701   9.218  0.2353  0.0075  0.2503
  528DPPI    C1 8325  16.060   4.791  11.559 -0.0137 -0.1275  0.0413
  528DPPI    C2 8326  16.256   5.087  11.375  0.0363 -0.0777  0.1736
  528DPPI    C3 8327  16.459   4.810  11.579 -0.0280 -0.0518  0.2734
  528DPPI   PO4 8328  15.910   4.691  11.377 -0.0039 -0.0252  0.1781
  528DPPI   GL1 8329  15.875   4.867  10.991  0.1733  0.0216 -0.1044
  528DPPI   GL2 8330  15.680   4.780  10.824 -0.1992 -0.1868 -0.1259
  528DPPI   C1A 8331  16.124   4.876  10.559  0.1787 -0.1088 -0.2161
  528DPPI   C2A 8332  16.032   4.815  10.128  0.1505  0.1290  0.2950
  528DPPI   C3A 8333  16.013   4.737   9.716 -0.3092  0.1453  0.3650
  528DPPI   C4A 8334  16.028   4.958   9.350 -0.0749 -0.0676  0.1568
  528DPPI   C1B 8335  15.571   4.734  10.389 -0.1567  0.0065 -0.0636
  528DPPI   C2B 8336  15.572   4.612  10.026  0.1093 -0.1027 -0.2504
  528DPPI   C3B 8337  15.512   4.543   9.575  0.0342  0.0097  0.0313
  528DPPI   C4B 8338  15.623   4.729   9.184 -0.0785  0.0526 -0.2046
  529DPPI    C1 8339   6.323  14.453  11.525  0.2105 -0.2545  0.1468
  529DPPI    C2 8340   6.482  14.820  11.517 -0.1452 -0.1008 -0.1414
  529DPPI    C3 8341   6.308  14.685  11.851 -0.1144  0.0366 -0.0691
  529DPPI   PO4 8342   6.194  14.397  11.316 -0.2111 -0.0905 -0.2568
  529DPPI   GL1 8343   6.381  14.287  10.927  0.0668  0.0337  0.0179
  529DPPI   GL2 8344   6.222  14.541  10.805 -0.0683  0.1061  0.3076
  529DPPI   C1A 8345   6.435  14.158  10.574 -0.3979  0.0597 -0.1225
  529DPPI   C2A 8346   6.447  14.256  10.096  0.3372 -0.0443 -0.2704
  529DPPI   C3A 8347   6.349  14.248   9.651  0.0844 -0.3923 -0.0053
  529DPPI   C4A 8348   6.295  14.128   9.252 -0.3372  0.3618 -0.1842
  529DPPI   C1B 8349   6.028  14.520  10.322 -0.1821 -0.1101 -0.2227
  529DPPI   C2B 8350   6.009  14.601   9.871  0.5588 -0.0612 -0.1758
  529DPPI   C3B 8351   5.968  14.490   9.551 -0.1556 -0.0326 -0.1101
  529DPPI   C4B 8352   6.226  14.596   9.132 -0.3147  0.1851  0.1832
  530DPPI    C1 8353  14.451   8.373  11.573  0.1297  0.1806 -0.0572
  530DPPI    C2 8354  14.544   8.651  11.846  0.1418 -0.0077  0.1328
  530DPPI    C3 8355  14.218   8.425  11.894 -0.0173  0.1536 -0.1586
  530DPPI   PO4 8356  14.444   8.438  11.315  0.1255  0.0598 -0.0823
  530DPPI   GL1 8357  14.335   8.617  10.983 -0.0144  0.0568 -0.0571
  530DPPI   GL2 8358  14.483   8.931  10.874 -0.1166  0.1340 -0.0987
  530DPPI   C1A 8359  14.221   8.585  10.604 -0.3550  0.0504  0.0673
  530DPPI   C2A 8360  14.267   8.428  10.244  0.2585 -0.3484  0.0963
  530DPPI   C3A 8361  14.254   8.465   9.753 -0.1107 -0.0104  0.0561
  530DPPI   C4A 8362  14.229   8.304   9.401  0.0105 -0.2397  0.2214
  530DPPI   C1B 8363  14.702   8.753  10.533 -0.0387  0.1796 -0.0843
  530DPPI   C2B 8364  14.689   8.704  10.085 -0.1294 -0.0010  0.1587
  530DPPI   C3B 8365  14.724   8.608   9.625 -0.0238 -0.3161  0.1280
  530DPPI   C4B 8366  14.703   8.499   9.164 -0.0884  0.0094 -0.0038
  531DPPI    C1 8367   1.813  12.340  11.597 -0.0986 -0.0283 -0.1043
  531DPPI    C2 8368   1.553  12.046  11.522 -0.0257 -0.0984 -0.0832
  531DPPI    C3 8369   1.624  12.158  11.899 -0.1556  0.0395 -0.0989
  531DPPI   PO4 8370   1.962  12.273  11.345  0.1446 -0.1135 -0.0946
  531DPPI   GL1 8371   1.957  12.059  10.922  0.2662 -0.3982  0.0122
  531DPPI   GL2 8372   1.752  12.319  10.748 -0.1836 -0.0785 -0.1021
  531DPPI   C1A 8373   1.925  12.004  10.423  0.2637  0.2160 -0.1286
  531DPPI   C2A 8374   2.175  12.181  10.111  0.1190 -0.2722  0.1263
  531DPPI   C3A 8375   2.383  12.288   9.803 -0.4366 -0.1957  0.0857
  531DPPI   C4A 8376   2.485  12.324   9.406  0.0484 -0.6140  0.0243
  531DPPI   C1B 8377   1.878  12.536  10.383  0.1240  0.2044  0.1126
  531DPPI   C2B 8378   1.824  12.507   9.979 -0.0625  0.0652 -0.0124
  531DPPI   C3B 8379   2.019  12.610   9.623  0.2813  0.3563  0.0836
  531DPPI   C4B 8380   2.223  12.702   9.189 -0.0005  0.0261 -0.1012
  532DPPI    C1 8381   7.023   9.523  11.334 -0.0254  0.0129  0.1168
  532DPPI    C2 8382   6.811   9.818  11.503 -0.1957 -0.0641  0.0396
  532DPPI    C3 8383   6.736   9.437  11.600 -0.2839 -0.1083 -0.1953
  532DPPI   PO4 8384   6.983   9.559  11.090  0.3426 -0.0580  0.0714
  532DPPI   GL1 8385   6.783   9.536  10.696 -0.0792  0.0244  0.1927
  532DPPI   GL2 8386   6.634   9.408  10.630  0.2661  0.2711 -0.1105
  532DPPI   C1A 8387   6.712   9.923  10.457 -0.0064  0.0446 -0.0818
  532DPPI   C2A 8388   6.738  10.018   9.987 -0.0357  0.1986  0.0568
  532DPPI   C3A 8389   6.759   9.909   9.615  0.1919 -0.0334 -0.1655
  532DPPI   C4A 8390   6.644  10.013   9.226 -0.2949 -0.0268  0.2789
  532DPPI   C1B 8391   6.668   9.472  10.213  0.0755 -0.0378 -0.3178
  532DPPI   C2B 8392   6.731   9.446   9.830  0.0590  0.1552  0.0875
  532DPPI   C3B 8393   6.623   9.386   9.268 -0.0974  0.2284  0.1930
  532DPPI   C4B 8394   6.418   9.584   8.926  0.1346  0.2538  0.3122
  533DPPI    C1 8395  13.782  16.976  11.525  0.1962 -0.0983 -0.0915
  533DPPI    C2 8396  13.940  16.703  11.771  0.4061  0.0245 -0.0877
  533DPPI    C3 8397  13.662  16.957  11.907  0.4799  0.0547  0.0081
  533DPPI   PO4 8398  13.846  16.823  11.285 -0.0018  0.1731 -0.1660
  533DPPI   GL1 8399  13.834  16.841  10.872  0.0762  0.6149 -0.2127
  533DPPI   GL2 8400  14.170  16.738  10.919 -0.1547  0.1762  0.0364
  533DPPI   C1A 8401  13.774  16.984  10.498  0.1336 -0.0850 -0.0115
  533DPPI   C2A 8402  13.768  17.062  10.062 -0.2359  0.2211 -0.1685
  533DPPI   C3A 8403  13.773  17.121   9.607  0.1600 -0.0719  0.0515
  533DPPI   C4A 8404  13.584  17.094   9.197  0.1501 -0.1647 -0.1679
  533DPPI   C1B 8405  14.264  16.761  10.526  0.0512 -0.1310  0.2257
  533DPPI   C2B 8406  14.242  16.736  10.143  0.5608 -0.1875 -0.2057
  533DPPI   C3B 8407  14.173  16.868   9.787 -0.2488 -0.0472  0.0310
  533DPPI   C4B 8408  14.225  17.109   9.368 -0.0069  0.0427 -0.1294
  534DPPI    C1 8409   1.490   5.221  11.383 -0.0888  0.0085  0.1877
  534DPPI    C2 8410   1.331   5.051  11.709 -0.2971 -0.0333  0.0660
  534DPPI    C3 8411   1.190   5.402  11.576  0.0730  0.1973  0.2654
  534DPPI   PO4 8412   1.591   5.121  11.182  0.5011 -0.1033  0.3056
  534DPPI   GL1 8413   1.676   4.913  10.792 -0.0856 -0.2269  0.1769
  534DPPI   GL2 8414   1.484   4.670  10.835  0.1841 -0.2953  0.4708
  534DPPI   C1A 8415   1.834   5.032  10.399  0.4485  0.1838 -0.0099
  534DPPI   C2A 8416   1.863   5.048   9.925 -0.3066  0.0364  0.3114
  534DPPI   C3A 8417   1.774   5.097   9.446 -0.1700  0.1055  0.5159
  534DPPI   C4A 8418   1.854   5.002   8.998 -0.1764  0.1477  0.0461
  534DPPI   C1B 8419   1.733   4.529  10.562 -0.0532  0.2665 -0.1913
  534DPPI   C2B 8420   1.740   4.601  10.129  0.3194  0.0715 -0.0828
  534DPPI   C3B 8421   1.666   4.571   9.689 -0.0697 -0.1190  0.5475
  534DPPI   C4B 8422   1.648   4.530   9.259 -0.2041  0.0730 -0.2358
  535DPPI    C1 8423  16.764   6.641  11.795 -0.1255 -0.2631 -0.2652
  535DPPI    C2 8424  16.879   6.400  12.093 -0.0739 -0.1053 -0.1558
  535DPPI    C3 8425  16.497   6.516  12.066 -0.0324  0.0695 -0.0124
  535DPPI   PO4 8426  16.849   6.462  11.581 -0.1235 -0.1549 -0.0264
  535DPPI   GL1 8427  16.689   6.558  11.127 -0.1094 -0.2089 -0.0721
  535DPPI   GL2 8428  16.460   6.781  11.016  0.2543 -0.2033 -0.4064
  535DPPI   C1A 8429  16.824   6.527  10.720 -0.1633 -0.2633 -0.1323
  535DPPI   C2A 8430  16.854   6.574  10.242  0.0703 -0.1635 -0.2666
  535DPPI   C3A 8431  16.805   6.554   9.719 -0.0243  0.0396 -0.1060
  535DPPI   C4A 8432  16.696   6.349   9.352 -0.0011 -0.1287  0.3137
  535DPPI   C1B 8433  16.399   6.936  10.649  0.0348  0.1607 -0.4788
  535DPPI   C2B 8434  16.364   6.877  10.175 -0.2758  0.1000 -0.1712
  535DPPI   C3B 8435  16.367   6.805   9.824  0.3919  0.0917  0.1583
  535DPPI   C4B 8436  16.261   6.728   9.411  0.1070 -0.0772  0.2251
  536DPPI    C1 8437   6.519   4.801  11.545  0.5981 -0.0329 -0.0239
  536DPPI    C2 8438   6.562   5.112  11.793  0.0659  0.0747 -0.0550
  536DPPI    C3 8439   6.285   4.833  11.868  0.0762 -0.0295 -0.3892
  536DPPI   PO4 8440   6.448   4.909  11.258 -0.2758 -0.3269 -0.0650
  536DPPI   GL1 8441   6.066   4.952  11.011  0.2202  0.3345  0.0168
  536DPPI   GL2 8442   5.745   4.797  10.848 -0.2071 -0.1460  0.2056
  536DPPI   C1A 8443   6.176   4.998  10.639 -0.0424  0.0097  0.2786
  536DPPI   C2A 8444   6.245   4.951  10.213 -0.1004 -0.0150 -0.0298
  536DPPI   C3A 8445   6.293   4.975   9.803 -0.5483 -0.0406  0.0233
  536DPPI   C4A 8446   6.454   5.062   9.302  0.2094  0.3069  0.2856
  536DPPI   C1B 8447   5.691   4.783  10.427 -0.1625  0.0258 -0.0034
  536DPPI   C2B 8448   5.772   4.707   9.956 -0.2632 -0.1166 -0.2102
  536DPPI   C3B 8449   5.837   4.695   9.504 -0.3041 -0.3786  0.2512
  536DPPI   C4B 8450   5.977   4.924   9.126 -0.0606 -0.0908  0.3495
  537DPPI    C1 8451   8.794  16.033  11.417 -0.0359  0.0993  0.1970
  537DPPI    C2 8452   9.095  16.231  11.245 -0.1320  0.1331  0.0660
  537DPPI    C3 8453   8.980  16.325  11.617  0.0770  0.0593  0.1507
  537DPPI   PO4 8454   8.727  15.850  11.210  0.2934  0.1515  0.0390
  537DPPI   GL1 8455   8.836  15.813  10.868 -0.2414  0.2671 -0.0470
  537DPPI   GL2 8456   9.060  15.649  10.780  0.1184 -0.0117  0.1150
  537DPPI   C1A 8457   8.633  15.997  10.512  0.1400 -0.1024  0.2228
  537DPPI   C2A 8458   8.568  16.159  10.175  0.2929 -0.0490  0.0521
  537DPPI   C3A 8459   8.520  16.093   9.861 -0.1950  0.1489 -0.0067
  537DPPI   C4A 8460   8.554  16.090   9.419 -0.2561  0.1333  0.0012
  537DPPI   C1B 8461   9.059  15.775  10.295  0.1279 -0.2817 -0.1400
  537DPPI   C2B 8462   9.034  15.629   9.860  0.0663 -0.0443 -0.1353
  537DPPI   C3B 8463   8.993  15.767   9.475  0.0421 -0.0942  0.0270
  537DPPI   C4B 8464   9.102  15.870   9.011 -0.1651  0.2899 -0.0050
  538DPPI    C1 8465   2.737   6.410  11.001 -0.2469 -0.0783  0.0235
  538DPPI    C2 8466   2.686   6.725  10.761  0.0015  0.0287  0.1086
  538DPPI    C3 8467   2.910   6.759  11.091  0.0459 -0.2418  0.1083
  538DPPI   PO4 8468   2.912   6.172  10.898  0.1243 -0.0249 -0.2881
  538DPPI   GL1 8469   2.749   6.064  10.519  0.3063 -0.0532  0.1395
  538DPPI   GL2 8470   2.902   6.370  10.414  0.2767 -0.1595  0.0197
  538DPPI   C1A 8471   2.833   5.934  10.104  0.1272  0.1137 -0.0208
  538DPPI   C2A 8472   2.826   5.959   9.633 -0.2243  0.1180  0.0473
  538DPPI   C3A 8473   2.793   5.939   9.283 -0.2318  0.0351  0.0570
  538DPPI   C4A 8474   2.607   5.674   8.932 -0.2311  0.0004 -0.1506
  538DPPI   C1B 8475   2.957   6.493  10.027  0.3459  0.0068  0.0375
  538DPPI   C2B 8476   2.862   6.458   9.604  0.1546 -0.4021 -0.0359
  538DPPI   C3B 8477   2.822   6.516   9.178  0.0082  0.1954 -0.1213
  538DPPI   C4B 8478   2.752   6.167   8.870  0.0384  0.0292  0.3015
  539DPPI    C1 8479  11.085  13.695  11.044  0.0021 -0.2217  0.2047
  539DPPI    C2 8480  10.908  13.542  11.368 -0.1910 -0.1279  0.1454
  539DPPI    C3 8481  11.108  13.887  11.394 -0.3135 -0.0559  0.1384
  539DPPI   PO4 8482  10.827  13.563  10.855  0.3962  0.1080 -0.0240
  539DPPI   GL1 8483  10.690  13.566  10.532 -0.3551  0.4007 -0.0871
  539DPPI   GL2 8484  10.449  13.376  10.434 -0.0442  0.0989  0.2276
  539DPPI   C1A 8485  10.853  13.783  10.161  0.3111  0.2500  0.1092
  539DPPI   C2A 8486  10.705  13.801   9.693 -0.1571 -0.1741 -0.2171
  539DPPI   C3A 8487  10.541  13.813   9.280 -0.0703 -0.1433 -0.1074
  539DPPI   C4A 8488  10.538  13.649   8.811 -0.0900  0.2370 -0.1883
  539DPPI   C1B 8489  10.383  13.483   9.999  0.1175 -0.1426 -0.0303
  539DPPI   C2B 8490  10.207  13.808   9.813 -0.1330  0.2123  0.0008
  539DPPI   C3B 8491  10.015  13.946   9.439 -0.2131  0.1765 -0.1912
  539DPPI   C4B 8492   9.914  14.095   9.090  0.0337 -0.5951 -0.3435
  540DPPI    C1 8493   2.822   3.434  11.538 -0.1305 -0.1727 -0.1355
  540DPPI    C2 8494   2.624   3.175  11.769 -0.1254  0.0742  0.1521
  540DPPI    C3 8495   2.613   3.566  11.853  0.1914  0.1277 -0.0412
  540DPPI   PO4 8496   2.769   3.391  11.294  0.1182  0.2484  0.0336
  540DPPI   GL1 8497   2.928   3.760  11.022 -0.0328  0.2916 -0.0401
  540DPPI   GL2 8498   2.834   4.091  10.948 -0.3262 -0.3190 -0.2477
  540DPPI   C1A 8499   2.934   3.623  10.516 -0.0108 -0.0965 -0.3165
  540DPPI   C2A 8500   2.846   3.637  10.055 -0.0301  0.2090 -0.1010
  540DPPI   C3A 8501   2.810   3.599   9.587 -0.2941  0.0792  0.2324
  540DPPI   C4A 8502   2.748   3.565   9.092 -0.0131  0.2705 -0.1491
  540DPPI   C1B 8503   3.012   4.117  10.554  0.0756 -0.0360 -0.2368
  540DPPI   C2B 8504   2.950   4.125  10.019  0.0842 -0.1890 -0.0774
  540DPPI   C3B 8505   2.982   4.036   9.608  0.0265 -0.3176  0.1719
  540DPPI   C4B 8506   2.894   3.992   9.265 -0.0367 -0.0069 -0.0872
  541DPPI    C1 8507   3.202   4.397  11.690  0.1948 -0.0624 -0.1563
  541DPPI    C2 8508   3.268   4.637  12.003 -0.2943  0.0898 -0.1604
  541DPPI    C3 8509   3.103   4.277  12.058  0.2320 -0.1649 -0.1794
  541DPPI   PO4 8510   3.209   4.562  11.485 -0.1260 -0.2337 -0.0361
  541DPPI   GL1 8511   3.076   4.839  11.079  0.0727  0.1814 -0.0518
  541DPPI   GL2 8512   3.263   4.980  10.963 -0.2213  0.1068  0.0827
  541DPPI   C1A 8513   3.036   4.581  10.717 -0.1747 -0.0547  0.0150
  541DPPI   C2A 8514   3.060   4.583  10.285  0.0642 -0.0663 -0.1223
  541DPPI   C3A 8515   3.073   4.619   9.815  0.0317 -0.1230 -0.1107
  541DPPI   C4A 8516   3.139   4.559   9.403 -0.5069  0.0519  0.2020
  541DPPI   C1B 8517   3.477   4.791  10.514  0.0589 -0.1143 -0.1937
  541DPPI   C2B 8518   3.538   4.745  10.014  0.2471  0.1902 -0.1817
  541DPPI   C3B 8519   3.511   4.789   9.601 -0.0422  0.1642 -0.0061
  541DPPI   C4B 8520   3.536   4.773   9.188 -0.1630  0.3015  0.5118
  542DPPI    C1 8521  10.331   9.450  11.559 -0.1736  0.3496  0.0699
  542DPPI    C2 8522   9.958   9.308  11.584 -0.0789  0.1085  0.1447
  542DPPI    C3 8523  10.141   9.449  11.911 -0.0702  0.1392  0.1267
  542DPPI   PO4 8524  10.332   9.624  11.425 -0.1685 -0.2573  0.2844
  542DPPI   GL1 8525  10.306   9.842  11.008 -0.5104 -0.3123  0.2280
  542DPPI   GL2 8526  10.083  10.020  10.824 -0.1069  0.2247 -0.0657
  542DPPI   C1A 8527  10.390   9.653  10.609 -0.2366  0.2443  0.1267
  542DPPI   C2A 8528  10.448   9.579  10.207  0.0949  0.3942 -0.2230
  542DPPI   C3A 8529  10.434   9.416   9.743  0.1485  0.4364  0.0928
  542DPPI   C4A 8530  10.373   9.345   9.358  0.0904 -0.1018 -0.1684
  542DPPI   C1B 8531   9.955  10.059  10.495 -0.1566  0.4188 -0.3062
  542DPPI   C2B 8532   9.870  10.022  10.034 -0.0058 -0.3579 -0.0204
  542DPPI   C3B 8533   9.894   9.879   9.590  0.4265 -0.0011 -0.0090
  542DPPI   C4B 8534   9.979   9.670   9.221 -0.2171  0.0098 -0.0863
  543DPPI    C1 8535  11.079   4.596  11.578 -0.1273  0.0021 -0.1403
  543DPPI    C2 8536  11.437   4.460  11.692 -0.2160 -0.0418  0.0916
  543DPPI    C3 8537  11.259   4.753  11.899 -0.3024 -0.0008 -0.0394
  543DPPI   PO4 8538  11.156   4.647  11.335  0.2368  0.0618  0.0392
  543DPPI   GL1 8539  10.949   4.703  10.990 -0.0171 -0.1111 -0.1295
  543DPPI   GL2 8540  10.908   4.338  10.867  0.1061  0.2817 -0.1190
  543DPPI   C1A 8541  10.963   4.792  10.553 -0.1058 -0.2286 -0.1630
  543DPPI   C2A 8542  10.961   4.758  10.120 -0.0362 -0.3579  0.0590
  543DPPI   C3A 8543  10.888   4.864   9.703 -0.0126  0.0126  0.1199
  543DPPI   C4A 8544  10.899   4.840   9.268 -0.1010  0.3499 -0.0887
  543DPPI   C1B 8545  10.848   4.343  10.389 -0.0373 -0.0163 -0.0764
  543DPPI   C2B 8546  10.772   4.315   9.890 -0.1737 -0.2681 -0.2142
  543DPPI   C3B 8547  10.792   4.324   9.511 -0.3352 -0.0867  0.0120
  543DPPI   C4B 8548  10.706   4.385   9.051 -0.0568  0.1760 -0.1392
  544DPPI    C1 8549   3.063  16.171  11.664 -0.1070 -0.0105 -0.0158
  544DPPI    C2 8550   3.397  16.359  11.778  0.0348 -0.2556 -0.0195
  544DPPI    C3 8551   3.123  16.254  12.050 -0.0007 -0.1292 -0.0060
  544DPPI   PO4 8552   3.045  16.169  11.414  0.0645  0.0264  0.1922
  544DPPI   GL1 8553   2.996  16.310  11.027 -0.1111 -0.0095  0.0773
  544DPPI   GL2 8554   2.668  16.237  11.065 -0.0710 -0.0751  0.0455
  544DPPI   C1A 8555   3.041  16.546  10.510 -0.1278 -0.1148 -0.0128
  544DPPI   C2A 8556   3.007  16.486  10.016 -0.0995  0.5981  0.1134
  544DPPI   C3A 8557   2.947  16.404   9.612 -0.0157  0.0937 -0.0659
  544DPPI   C4A 8558   2.947  16.359   9.192 -0.0885  0.1031  0.0072
  544DPPI   C1B 8559   2.679  16.238  10.600  0.0558 -0.3987 -0.2625
  544DPPI   C2B 8560   2.527  16.281  10.197 -0.1829  0.1193 -0.0315
  544DPPI   C3B 8561   2.533  16.148   9.837 -0.0575  0.1403  0.2374
  544DPPI   C4B 8562   2.574  16.201   9.414  0.0050  0.0222 -0.0988
  545DPPI    C1 8563   3.849   3.205  11.448  0.1842 -0.0764 -0.0033
  545DPPI    C2 8564   4.159   3.314  11.221  0.3174  0.0957  0.2571
  545DPPI    C3 8565   4.122   3.460  11.592 -0.0016 -0.0315  0.2774
  545DPPI   PO4 8566   3.655   3.186  11.334  0.2214 -0.0873  0.0922
  545DPPI   GL1 8567   3.500   2.874  10.956 -0.0451 -0.0693  0.1256
  545DPPI   GL2 8568   3.255   2.760  10.764  0.0103 -0.1373  0.0542
  545DPPI   C1A 8569   3.743   2.842  10.536 -0.0594  0.0262  0.1466
  545DPPI   C2A 8570   3.673   2.985  10.186  0.1036 -0.1629  0.2326
  545DPPI   C3A 8571   3.683   3.040   9.805 -0.1785  0.0488  0.1949
  545DPPI   C4A 8572   3.693   2.918   9.380 -0.4176 -0.0175 -0.1159
  545DPPI   C1B 8573   3.220   2.838  10.315  0.0819 -0.0243  0.2842
  545DPPI   C2B 8574   3.234   2.735   9.892  0.0224  0.0151 -0.1826
  545DPPI   C3B 8575   3.116   2.734   9.458 -0.2593  0.0649  0.1157
  545DPPI   C4B 8576   3.372   2.616   9.048 -0.1803 -0.0117 -0.2051
  546DPPI    C1 8577  17.472   1.579  11.677 -0.1160 -0.0443  0.1950
  546DPPI    C2 8578  17.360   1.292  11.932  0.0626 -0.1091  0.2020
  546DPPI    C3 8579  17.455   1.655  12.069  0.2004 -0.1564  0.2338
  546DPPI   PO4 8580  17.625   1.490  11.443 -0.4740  0.4051  0.0986
  546DPPI   GL1 8581  17.708   1.687  11.069 -0.2922  0.0951  0.1292
  546DPPI   GL2 8582  17.977   1.608  10.939 -0.2915  0.0432  0.0279
  546DPPI   C1A 8583  17.503   1.902  10.718  0.1171 -0.2196 -0.1063
  546DPPI   C2A 8584  17.504   1.934  10.305  0.0713  0.2782  0.0945
  546DPPI   C3A 8585  17.358   1.939   9.947 -0.1950  0.0438 -0.1211
  546DPPI   C4A 8586  17.345   1.825   9.597  0.0375  0.0333 -0.0194
  546DPPI   C1B 8587  17.857   1.642  10.516 -0.0811 -0.1623 -0.2685
  546DPPI   C2B 8588  17.889   1.693  10.117  0.0038 -0.1885  0.2238
  546DPPI   C3B 8589  17.825   1.680   9.688 -0.2274 -0.2514  0.2171
  546DPPI   C4B 8590  17.709   1.657   9.345 -0.2127  0.1773  0.3499
  547DPPI    C1 8591   8.838   4.803  11.776  0.1797 -0.0634  0.0739
  547DPPI    C2 8592   8.926   5.096  12.033 -0.1202 -0.0639  0.1804
  547DPPI    C3 8593   8.814   4.737  12.170 -0.0401 -0.1396  0.0491
  547DPPI   PO4 8594   8.873   4.980  11.544  0.0215  0.4119  0.2587
  547DPPI   GL1 8595   8.906   4.999  11.158  0.1325  0.1644 -0.2242
  547DPPI   GL2 8596   8.670   4.706  11.106 -0.1945 -0.3732 -0.0332
  547DPPI   C1A 8597   9.088   5.012  10.813  0.2814  0.1174  0.0401
  547DPPI   C2A 8598   9.186   5.097  10.381 -0.1962  0.0979 -0.2972
  547DPPI   C3A 8599   9.170   5.013   9.895 -0.3459 -0.0662  0.0675
  547DPPI   C4A 8600   9.101   5.009   9.516 -0.0195  0.0006  0.0148
  547DPPI   C1B 8601   8.525   4.831  10.679  0.1380  0.1599  0.2815
  547DPPI   C2B 8602   8.533   4.797  10.160 -0.6922 -0.0345  0.0756
  547DPPI   C3B 8603   8.566   4.810   9.769 -0.1536  0.2826 -0.0256
  547DPPI   C4B 8604   8.624   4.906   9.424 -0.0478  0.5392  0.1037
  548DPPI    C1 8605   7.700   0.241  11.693  0.1265 -0.0143  0.0447
  548DPPI    C2 8606   7.571   0.017  11.998 -0.0214  0.1148  0.0783
  548DPPI    C3 8607   7.594   0.414  12.037 -0.1056  0.1382 -0.1011
  548DPPI   PO4 8608   7.628   0.181  11.530 -0.1504 -0.0997  0.1900
  548DPPI   GL1 8609   7.704   0.062  11.084  0.0530  0.4040 -0.1377
  548DPPI   GL2 8610   7.550  -0.242  11.063  0.0385 -0.1534 -0.1261
  548DPPI   C1A 8611   7.999   0.130  10.639 -0.0217 -0.2334 -0.2130
  548DPPI   C2A 8612   8.013   0.127  10.218  0.0156  0.1363  0.0337
  548DPPI   C3A 8613   7.803   0.151   9.778  0.1429 -0.2377  0.1215
  548DPPI   C4A 8614   7.822   0.265   9.327 -0.0488  0.3288  0.0772
  548DPPI   C1B 8615   7.545  -0.095  10.646 -0.0919 -0.0208  0.0459
  548DPPI   C2B 8616   7.476   0.025  10.136  0.1317  0.0270 -0.0665
  548DPPI   C3B 8617   7.310  -0.001   9.688 -0.0967 -0.1553  0.0583
  548DPPI   C4B 8618   7.454   0.002   9.251 -0.1696 -0.0348  0.1401
  549DPPI    C1 8619   0.570  13.373  11.501 -0.1619  0.1799 -0.1968
  549DPPI    C2 8620   0.546  13.581  11.842 -0.3936  0.1054 -0.1654
  549DPPI    C3 8621   0.713  13.217  11.841  0.0885  0.3197 -0.2366
  549DPPI   PO4 8622   0.723  13.506  11.304 -0.1050 -0.2604 -0.0826
  549DPPI   GL1 8623   0.781  13.499  10.762 -0.0055  0.0193  0.2120
  549DPPI   GL2 8624   1.087  13.686  10.799 -0.0830 -0.1273  0.3167
  549DPPI   C1A 8625   0.761  13.476  10.285  0.1162  0.2700  0.0174
  549DPPI   C2A 8626   0.822  13.552   9.848  0.0033 -0.0944 -0.0035
  549DPPI   C3A 8627   0.703  13.447   9.525  0.0288  0.1637 -0.0566
  549DPPI   C4A 8628   0.818  13.536   9.134 -0.1252  0.4464 -0.2829
  549DPPI   C1B 8629   1.211  13.716  10.362 -0.0418  0.0589 -0.0503
  549DPPI   C2B 8630   1.313  13.674   9.867 -0.1946 -0.2954 -0.3041
  549DPPI   C3B 8631   1.196  13.621   9.503  0.1533 -0.1017  0.0039
  549DPPI   C4B 8632   1.424  13.644   9.123 -0.0220 -0.0037 -0.2237
  550DPPI    C1 8633  15.079   3.929  11.475 -0.2495  0.0132  0.0531
  550DPPI    C2 8634  15.198   4.142  11.792  0.0518 -0.1960  0.0846
  550DPPI    C3 8635  14.930   3.849  11.837 -0.2444  0.0676  0.0671
  550DPPI   PO4 8636  14.993   4.039  11.339 -0.1260 -0.0742  0.0168
  550DPPI   GL1 8637  15.090   4.023  10.850  0.5053 -0.1281 -0.2002
  550DPPI   GL2 8638  15.169   3.756  10.959 -0.1882 -0.0168 -0.0169
  550DPPI   C1A 8639  14.982   3.865  10.439 -0.0001  0.2312  0.1069
  550DPPI   C2A 8640  14.982   3.972  10.017  0.0509 -0.2776 -0.0018
  550DPPI   C3A 8641  14.949   3.847   9.586  0.2179  0.1509 -0.2911
  550DPPI   C4A 8642  14.831   3.843   9.147  0.0308  0.0041  0.0310
  550DPPI   C1B 8643  15.445   3.670  10.545 -0.0891  0.0794  0.1952
  550DPPI   C2B 8644  15.418   3.593  10.140  0.1298 -0.2868 -0.0129
  550DPPI   C3B 8645  15.356   3.479   9.678  0.2319 -0.3912  0.0734
  550DPPI   C4B 8646  15.247   3.623   9.257 -0.2123 -0.1578  0.0641
  551DPPI    C1 8647   2.437   4.721  11.619 -0.0298 -0.2545  0.0668
  551DPPI    C2 8648   2.513   5.079  11.782 -0.1087 -0.1270 -0.1719
  551DPPI    C3 8649   2.267   4.823  11.967 -0.0995 -0.0344 -0.0302
  551DPPI   PO4 8650   2.398   4.695  11.348  0.0127  0.1020 -0.0391
  551DPPI   GL1 8651   2.428   4.657  11.020 -0.3519 -0.1784 -0.3264
  551DPPI   GL2 8652   2.612   4.546  10.941  0.3917  0.3449 -0.0883
  551DPPI   C1A 8653   2.673   4.924  10.619 -0.2480 -0.0381  0.1606
  551DPPI   C2A 8654   2.699   4.967  10.225 -0.0525 -0.0036  0.1996
  551DPPI   C3A 8655   2.659   4.892   9.830  0.1843 -0.5060 -0.0698
  551DPPI   C4A 8656   2.642   4.842   9.419 -0.2803  0.1243 -0.1137
  551DPPI   C1B 8657   2.598   4.434  10.465  0.0283 -0.0391 -0.2316
  551DPPI   C2B 8658   2.561   4.443   9.976 -0.5092 -0.0515 -0.1481
  551DPPI   C3B 8659   2.652   4.408   9.582  0.2441  0.1242  0.1910
  551DPPI   C4B 8660   2.596   4.351   9.119  0.0689 -0.4852  0.0159
  552DPPI    C1 8661   2.204   2.977  11.591  0.1919 -0.0617  0.0735
  552DPPI    C2 8662   2.031   2.700  11.822  0.0560  0.0595  0.1188
  552DPPI    C3 8663   2.421   2.674  11.735  0.0724 -0.0741  0.2295
  552DPPI   PO4 8664   2.144   2.972  11.398 -0.0252  0.0929 -0.2221
  552DPPI   GL1 8665   2.224   3.181  10.997  0.1836 -0.2436  0.1353
  552DPPI   GL2 8666   2.324   2.972  10.722  0.2343 -0.1021 -0.0950
  552DPPI   C1A 8667   2.417   3.413  10.672 -0.2070 -0.2346  0.4776
  552DPPI   C2A 8668   2.417   3.396  10.289  0.2536  0.2408 -0.1869
  552DPPI   C3A 8669   2.390   3.428   9.784 -0.0735  0.0142  0.1082
  552DPPI   C4A 8670   2.363   3.404   9.338  0.1622  0.0787  0.0278
  552DPPI   C1B 8671   2.385   2.864  10.357 -0.0796  0.1548  0.2803
  552DPPI   C2B 8672   2.250   2.883   9.906 -0.0089  0.2096 -0.1701
  552DPPI   C3B 8673   2.329   2.873   9.483  0.1591  0.0298 -0.0186
  552DPPI   C4B 8674   2.197   2.990   9.043  0.1472  0.0483  0.1092
  553DPPI    C1 8675   4.594   8.727  11.413 -0.4359 -0.1362  0.0331
  553DPPI    C2 8676   4.541   9.055  11.636 -0.2881 -0.0806 -0.0120
  553DPPI    C3 8677   4.583   8.698  11.812 -0.2774 -0.0516  0.0445
  553DPPI   PO4 8678   4.497   8.720  11.244 -0.1075  0.2218 -0.1015
  553DPPI   GL1 8679   4.552   8.791  10.764 -0.1002  0.0711 -0.2974
  553DPPI   GL2 8680   4.231   8.877  10.755 -0.1336 -0.1824 -0.2732
  553DPPI   C1A 8681   4.549   8.735  10.305 -0.0456 -0.0872  0.5203
  553DPPI   C2A 8682   4.553   8.721   9.870 -0.4051  0.0591 -0.2850
  553DPPI   C3A 8683   4.587   8.803   9.494 -0.2456  0.3209  0.1090
  553DPPI   C4A 8684   4.580   8.807   9.012  0.0606 -0.4198  0.0741
  553DPPI   C1B 8685   4.164   9.041  10.415  0.0380 -0.2420 -0.2777
  553DPPI   C2B 8686   4.203   9.026   9.978 -0.1527 -0.0212 -0.1260
  553DPPI   C3B 8687   4.088   9.001   9.616 -0.0539 -0.1200 -0.0467
  553DPPI   C4B 8688   4.179   9.213   9.376 -0.0141  0.1140  0.2586
  554PYPI    C1 8689   2.073  13.549  11.459 -0.1950  0.0039 -0.0349
  554PYPI    C2 8690   2.144  13.227  11.684  0.1808  0.0072 -0.1430
  554PYPI    C3 8691   1.928  13.530  11.831 -0.0849 -0.2449 -0.0034
  554PYPI   PO4 8692   2.410  13.655  11.281 -0.1337 -0.0859 -0.0338
  554PYPI   GL1 8693   2.493  13.491  10.845  0.0410  0.0957  0.1236
  554PYPI   GL2 8694   2.510  13.190  10.715 -0.0115 -0.0425 -0.0263
  554PYPI   C1A 8695   2.600  13.731  10.609  0.1223 -0.0309 -0.0054
  554PYPI   C2A 8696   2.617  13.743  10.146  0.1458  0.0433 -0.0096
  554PYPI   D3A 8697   2.688  13.840   9.749 -0.1174 -0.2530  0.0467
  554PYPI   C4A 8698   2.632  13.805   9.395  0.0577  0.2112 -0.1472
  554PYPI   C1B 8699   2.535  13.262  10.264 -0.1476  0.1852 -0.0287
  554PYPI   C2B 8700   2.540  13.330   9.819 -0.0073  0.1148 -0.2306
  554PYPI   C3B 8701   2.595  13.238   9.443  0.1641  0.1886 -0.3288
  554PYPI   C4B 8702   2.711  13.340   8.972  0.1560  0.1569  0.3721
  555PYPI    C1 8703  13.127   3.996  11.367 -0.0182 -0.1741  0.1414
  555PYPI    C2 8704  13.199   3.699  11.625  0.2470 -0.1248  0.1275
  555PYPI    C3 8705  13.451   4.008  11.601  0.1075 -0.0217 -0.0376
  555PYPI   PO4 8706  13.049   3.897  11.116 -0.0077  0.0094  0.2057
  555PYPI   GL1 8707  12.863   4.085  10.798  0.0636 -0.0820 -0.0265
  555PYPI   GL2 8708  13.042   4.162  10.621  0.0680 -0.0775 -0.2572
  555PYPI   C1A 8709  12.595   4.087  10.508  0.0759  0.0869  0.2497
  555PYPI   C2A 8710  12.634   3.980  10.006  0.0624 -0.0413 -0.1908
  555PYPI   D3A 8711  12.658   3.911   9.633  0.0471  0.0777  0.2469
  555PYPI   C4A 8712  12.553   3.972   9.251 -0.0710  0.0669 -0.0277
  555PYPI   C1B 8713  13.012   4.198  10.179  0.2048 -0.0224 -0.1640
  555PYPI   C2B 8714  13.012   4.189   9.697 -0.1157 -0.2299 -0.0870
  555PYPI   C3B 8715  13.035   4.112   9.248 -0.3446 -0.1870 -0.0229
  555PYPI   C4B 8716  12.753   4.126   8.842  0.2384  0.2360  0.2332
  556PYPI    C1 8717   8.600  15.348  11.089  0.2867  0.3035 -0.1381
  556PYPI    C2 8718   8.686  15.065  11.358 -0.1203  0.0855 -0.2292
  556PYPI    C3 8719   8.613  15.440  11.478  0.0299  0.0646 -0.0693
  556PYPI   PO4 8720   8.431  15.132  10.915  0.2679 -0.2254  0.1198
  556PYPI   GL1 8721   8.438  15.264  10.583 -0.0367 -0.0568  0.0134
  556PYPI   GL2 8722   8.585  15.482  10.557 -0.1022  0.0643  0.3106
  556PYPI   C1A 8723   8.524  15.102  10.110  0.2738 -0.0678 -0.3445
  556PYPI   C2A 8724   8.426  15.107   9.657  0.0585 -0.2250 -0.2353
  556PYPI   D3A 8725   8.317  14.984   9.266  0.0626 -0.2008  0.2088
  556PYPI   C4A 8726   8.561  14.916   8.832 -0.2983  0.2155  0.0336
  556PYPI   C1B 8727   8.559  15.564  10.212  0.1344  0.0506  0.2224
  556PYPI   C2B 8728   8.493  15.625   9.792 -0.3122  0.0064  0.0140
  556PYPI   C3B 8729   8.509  15.552   9.443  0.2206  0.2101 -0.0192
  556PYPI   C4B 8730   8.592  15.737   9.064  0.1838  0.2359  0.1319
  557PYPI    C1 8731   0.075  11.757  10.954 -0.0374 -0.0069 -0.0624
  557PYPI    C2 8732   0.083  11.606  11.324 -0.0721  0.3739  0.0983
  557PYPI    C3 8733   0.420  11.739  11.155 -0.0201  0.0156 -0.0900
  557PYPI   PO4 8734  -0.275  11.525  10.824  0.0318 -0.1027  0.1395
  557PYPI   GL1 8735  -0.352  11.632  10.380 -0.1425 -0.0925 -0.0163
  557PYPI   GL2 8736  -0.592  11.479  10.405  0.1205 -0.1397  0.0831
  557PYPI   C1A 8737  -0.239  11.685   9.912  0.0153 -0.1800  0.2750
  557PYPI   C2A 8738  -0.188  11.713   9.461  0.0011  0.0421 -0.1617
  557PYPI   D3A 8739  -0.197  11.629   9.079 -0.0703 -0.2843 -0.1444
  557PYPI   C4A 8740   0.241  11.371   9.046  0.0557  0.1237  0.1719
  557PYPI   C1B 8741  -0.656  11.450   9.986 -0.0823  0.1597  0.0759
  557PYPI   C2B 8742  -0.625  11.474   9.582  0.1905 -0.0399  0.2819
  557PYPI   C3B 8743  -0.722  11.562   9.093 -0.0803  0.0055  0.1086
  557PYPI   C4B 8744  -1.086  11.608   8.884 -0.2700  0.0189  0.0561
  558PYPI    C1 8745  17.439  15.158  11.460  0.0942 -0.0239 -0.0985
  558PYPI    C2 8746  17.047  15.174  11.537  0.0909 -0.2077 -0.0727
  558PYPI    C3 8747  17.310  15.163  11.838  0.1108 -0.2025 -0.0897
  558PYPI   PO4 8748  17.405  15.103  11.174 -0.0012 -0.0057 -0.3506
  558PYPI   GL1 8749  17.510  14.956  10.751 -0.2158 -0.1786 -0.0484
  558PYPI   GL2 8750  17.770  14.715  10.753 -0.3519  0.0226 -0.2761
  558PYPI   C1A 8751  17.567  15.127  10.326  0.0308  0.1927 -0.1488
  558PYPI   C2A 8752  17.612  15.197   9.881  0.1505  0.0008  0.0355
  558PYPI   D3A 8753  17.782  15.231   9.433  0.0157  0.1061 -0.0083
  558PYPI   C4A 8754  17.864  15.058   9.030 -0.1979 -0.0963 -0.0222
  558PYPI   C1B 8755  18.021  14.838  10.465  0.0585  0.0423 -0.1397
  558PYPI   C2B 8756  17.935  14.746  10.111 -0.0015 -0.2746  0.2880
  558PYPI   C3B 8757  18.103  14.828   9.641 -0.1509  0.1233 -0.2141
  558PYPI   C4B 8758  18.193  14.812   9.250 -0.1044 -0.0878 -0.0675
  559PYPI    C1 8759   6.855   5.415  11.558 -0.0134  0.0957 -0.0179
  559PYPI    C2 8760   6.786   5.793  11.448 -0.1454  0.1043  0.0919
  559PYPI    C3 8761   6.531   5.606  11.693 -0.0260 -0.0218  0.1212
  559PYPI   PO4 8762   7.018   5.380  11.301  0.4016 -0.0667  0.0518
  559PYPI   GL1 8763   7.103   5.125  10.965  0.1174  0.0810 -0.0064
  559PYPI   GL2 8764   6.831   5.088  10.891  0.0593  0.0125  0.0677
  559PYPI   C1A 8765   7.170   5.335  10.622 -0.3772  0.0115 -0.1113
  559PYPI   C2A 8766   7.222   5.339  10.214 -0.0667  0.1443  0.0978
  559PYPI   D3A 8767   7.284   5.302   9.740  0.0789 -0.1854  0.0484
  559PYPI   C4A 8768   7.318   5.465   9.306  0.1731  0.0436 -0.2766
  559PYPI   C1B 8769   6.811   5.115  10.344 -0.0301 -0.1861  0.2924
  559PYPI   C2B 8770   6.791   5.143   9.844 -0.3126 -0.0370  0.0207
  559PYPI   C3B 8771   6.876   5.268   9.389  0.0692 -0.0072 -0.1720
  559PYPI   C4B 8772   7.069   5.367   8.854 -0.0695  0.0809 -0.0752
  560PYPI    C1 8773  11.829   1.970  11.893  0.0248 -0.0783 -0.0330
  560PYPI    C2 8774  11.776   1.908  12.285 -0.0513  0.0552 -0.0216
  560PYPI    C3 8775  11.890   2.268  12.152  0.1721 -0.0444 -0.1055
  560PYPI   PO4 8776  11.606   1.955  11.713 -0.1042  0.0392 -0.1136
  560PYPI   GL1 8777  11.689   2.130  11.258 -0.0063 -0.2363 -0.1128
  560PYPI   GL2 8778  11.619   1.722  11.274  0.2045 -0.1637 -0.0492
  560PYPI   C1A 8779  11.403   2.187  10.877  0.1710 -0.2467  0.2312
  560PYPI   C2A 8780  11.386   2.058  10.458  0.1707  0.0419  0.0049
  560PYPI   D3A 8781  11.326   2.097  10.025 -0.3393  0.3093 -0.1121
  560PYPI   C4A 8782  11.383   2.178   9.554  0.3518 -0.0670  0.1882
  560PYPI   C1B 8783  11.671   1.779  10.815  0.0124 -0.1591 -0.2314
  560PYPI   C2B 8784  11.832   1.899  10.372 -0.0979 -0.0268  0.2130
  560PYPI   C3B 8785  11.853   1.815   9.921 -0.1524  0.1365  0.0408
  560PYPI   C4B 8786  11.950   1.759   9.465 -0.1471  0.0013  0.1926
  561PYPI    C1 8787   7.600  12.211  11.432  0.2335  0.2070  0.1101
  561PYPI    C2 8788   7.872  11.938  11.539 -0.1168 -0.2429 -0.1142
  561PYPI    C3 8789   7.638  12.106  11.816  0.1043 -0.1626  0.0261
  561PYPI   PO4 8790   7.456  12.026  11.220  0.0470  0.1194  0.0967
  561PYPI   GL1 8791   7.385  11.761  10.907  0.0732 -0.3605 -0.0159
  561PYPI   GL2 8792   7.074  11.952  10.728  0.0144 -0.2981 -0.3420
  561PYPI   C1A 8793   7.447  11.745  10.476  0.0022  0.2592  0.1558
  561PYPI   C2A 8794   7.376  11.743  10.128 -0.1719  0.0407  0.1211
  561PYPI   D3A 8795   7.478  11.673   9.642 -0.4070 -0.0137 -0.2079
  561PYPI   C4A 8796   7.321  11.721   9.307  0.2132 -0.0052  0.4123
  561PYPI   C1B 8797   6.987  12.072  10.369 -0.0730 -0.0761  0.1387
  561PYPI   C2B 8798   7.005  12.105   9.915  0.4118 -0.4437  0.0374
  561PYPI   C3B 8799   6.947  12.044   9.510 -0.0103  0.0137 -0.1522
  561PYPI   C4B 8800   6.959  12.104   9.112  0.3857  0.0429  0.1316
  562PYPI    C1 8801   4.462  14.002  11.689 -0.0702  0.1670  0.0671
  562PYPI    C2 8802   4.537  14.359  11.853  0.2541  0.0733  0.1289
  562PYPI    C3 8803   4.448  14.047  12.086  0.3001  0.0373  0.0986
  562PYPI   PO4 8804   4.333  14.038  11.503 -0.1494 -0.0481  0.2558
  562PYPI   GL1 8805   4.151  13.687  11.196 -0.1860 -0.1052  0.0824
  562PYPI   GL2 8806   3.910  13.504  11.176 -0.2575  0.0812  0.5366
  562PYPI   C1A 8807   4.174  13.851  10.816 -0.3222  0.3989 -0.1379
  562PYPI   C2A 8808   3.981  13.773  10.398  0.0972 -0.2549  0.0493
  562PYPI   D3A 8809   4.056  13.806  10.003  0.0116  0.1639  0.0476
  562PYPI   C4A 8810   4.054  13.955   9.589 -0.1449 -0.1073  0.1311
  562PYPI   C1B 8811   4.001  13.275  10.820  0.2676  0.0340 -0.0435
  562PYPI   C2B 8812   3.912  13.276  10.444 -0.1147 -0.3396  0.2627
  562PYPI   C3B 8813   3.886  13.350  10.011  0.1160 -0.2473  0.1358
  562PYPI   C4B 8814   3.966  13.432   9.600 -0.0705  0.0594  0.1321
  563PYPI    C1 8815   0.836   4.869  11.607 -0.2604  0.1469  0.1413
  563PYPI    C2 8816   0.663   5.186  11.779  0.0384  0.3262  0.1179
  563PYPI    C3 8817   0.936   4.974  11.980 -0.0049  0.2115  0.0564
  563PYPI   PO4 8818   0.987   5.021  11.332 -0.1127 -0.0961  0.0136
  563PYPI   GL1 8819   1.034   4.931  10.945 -0.0592  0.2108  0.0178
  563PYPI   GL2 8820   1.187   5.067  10.857 -0.1741 -0.0490  0.0832
  563PYPI   C1A 8821   0.780   4.682  10.635 -0.0666 -0.0311 -0.1789
  563PYPI   C2A 8822   0.677   4.632  10.215  0.1111 -0.0813 -0.1461
  563PYPI   D3A 8823   0.860   4.754   9.872  0.2187 -0.0060  0.0292
  563PYPI   C4A 8824   0.698   4.663   9.511 -0.1331 -0.1246 -0.3493
  563PYPI   C1B 8825   1.243   4.891  10.420 -0.0877 -0.0265 -0.0586
  563PYPI   C2B 8826   1.324   4.867   9.936 -0.0529  0.0636  0.0105
  563PYPI   C3B 8827   1.210   4.875   9.506 -0.0286  0.0174 -0.1038
  563PYPI   C4B 8828   1.363   5.001   9.142 -0.1697 -0.0498 -0.4828
  564PYPI    C1 8829   1.286  13.040  11.210  0.0859  0.0696  0.1775
  564PYPI    C2 8830   1.154  13.417  11.196 -0.0497  0.0167  0.0061
  564PYPI    C3 8831   1.019  13.168  11.479 -0.1693  0.0189 -0.0483
  564PYPI   PO4 8832   1.332  12.930  10.950 -0.2933 -0.1230  0.1153
  564PYPI   GL1 8833   1.524  12.774  10.602 -0.2949  0.2269  0.0318
  564PYPI   GL2 8834   1.299  12.614  10.574 -0.1074  0.1637  0.1113
  564PYPI   C1A 8835   1.428  12.813  10.115  0.0676 -0.0714 -0.0832
  564PYPI   C2A 8836   1.573  12.854   9.690  0.0388 -0.0620 -0.0010
  564PYPI   D3A 8837   1.737  12.799   9.221 -0.1511  0.0452  0.0995
  564PYPI   C4A 8838   1.417  12.891   8.837 -0.1087 -0.0952  0.1410
  564PYPI   C1B 8839   1.429  12.316  10.181  0.2171 -0.1255 -0.3098
  564PYPI   C2B 8840   1.466  12.288   9.748  0.0159  0.0857 -0.0904
  564PYPI   C3B 8841   1.486  12.401   9.367  0.0427  0.2409  0.1797
  564PYPI   C4B 8842   1.444  12.260   9.000  0.2181 -0.0642  0.0885
  565PYPI    C1 8843  16.653  11.528  11.004 -0.3542  0.0496 -0.0394
  565PYPI    C2 8844  16.600  11.845  11.243  0.1068  0.0566  0.0625
  565PYPI    C3 8845  16.673  11.485  11.401  0.0499 -0.0108 -0.0626
  565PYPI   PO4 8846  16.788  11.654  10.823 -0.1911  0.0061  0.1192
  565PYPI   GL1 8847  16.674  11.917  10.481 -0.0686  0.0153  0.2869
  565PYPI   GL2 8848  16.460  12.200  10.444  0.1518  0.0793  0.0076
  565PYPI   C1A 8849  16.528  11.665  10.196 -0.1843  0.2192  0.5495
  565PYPI   C2A 8850  16.509  11.707   9.748 -0.0520 -0.2136 -0.1584
  565PYPI   D3A 8851  16.532  11.962   9.273 -0.0825 -0.2465 -0.2520
  565PYPI   C4A 8852  16.434  12.083   8.786  0.0854 -0.0038  0.2098
  565PYPI   C1B 8853  16.537  12.254   9.977  0.0735  0.0941 -0.0529
  565PYPI   C2B 8854  16.644  12.316   9.646 -0.1910 -0.3147  0.1299
  565PYPI   C3B 8855  16.757  12.513   9.216  0.1307  0.0681  0.0171
  565PYPI   C4B 8856  16.448  12.611   8.877  0.0031  0.2847  0.0860
  566PYPI    C1 8857  17.182  14.732  11.405 -0.0821  0.0594 -0.1106
  566PYPI    C2 8858  16.844  14.715  11.619  0.0328 -0.1466  0.0576
  566PYPI    C3 8859  17.196  14.648  11.796  0.1766  0.2079 -0.0860
  566PYPI   PO4 8860  17.140  14.565  11.152  0.0883  0.0168 -0.0334
  566PYPI   GL1 8861  17.084  14.563  10.758  0.1200  0.0200 -0.0765
  566PYPI   GL2 8862  17.038  14.292  10.484  0.0963  0.0193  0.3562
  566PYPI   C1A 8863  17.398  14.587  10.369 -0.1665  0.0592  0.1162
  566PYPI   C2A 8864  17.408  14.773   9.953 -0.2411  0.3475  0.1742
  566PYPI   D3A 8865  17.570  14.823   9.562 -0.1603 -0.1505  0.0450
  566PYPI   C4A 8866  17.593  14.687   9.113  0.1305  0.0098 -0.0767
  566PYPI   C1B 8867  17.077  14.349  10.094 -0.0324 -0.0167 -0.2677
  566PYPI   C2B 8868  17.133  14.506   9.694  0.0272  0.1044  0.0141
  566PYPI   C3B 8869  17.055  14.570   9.249  0.3803 -0.2257 -0.0239
  566PYPI   C4B 8870  17.195  14.459   8.749 -0.0697  0.2657 -0.1376
  567PYPI    C1 8871  13.901   4.007  11.392 -0.0726 -0.0629  0.1273
  567PYPI    C2 8872  14.066   4.351  11.272 -0.0906 -0.1244 -0.0771
  567PYPI    C3 8873  13.970   4.299  11.657 -0.0215  0.0712 -0.0323
  567PYPI   PO4 8874  13.703   4.061  11.163  0.0120 -0.3341 -0.1590
  567PYPI   GL1 8875  13.619   3.816  10.766  0.1398  0.1129 -0.1236
  567PYPI   GL2 8876  13.456   3.801  10.662  0.3124 -0.1250 -0.1660
  567PYPI   C1A 8877  13.743   3.768  10.310  0.3596 -0.2082  0.1525
  567PYPI   C2A 8878  13.508   3.813   9.865  0.0857  0.1027 -0.3307
  567PYPI   D3A 8879  13.536   3.750   9.367 -0.1344 -0.0008 -0.1326
  567PYPI   C4A 8880  13.636   3.781   8.897  0.0411 -0.0074 -0.0335
  567PYPI   C1B 8881  13.283   3.732  10.273 -0.0525  0.2563 -0.1535
  567PYPI   C2B 8882  13.019   3.596   9.928 -0.1332 -0.2801 -0.0823
  567PYPI   C3B 8883  13.040   3.603   9.474 -0.1035 -0.2674 -0.0185
  567PYPI   C4B 8884  12.824   3.463   9.065 -0.2411  0.1935  0.1679
  568PYPI    C1 8885   1.783   8.318  11.137 -0.1966 -0.0699 -0.1253
  568PYPI    C2 8886   1.390   8.309  11.211 -0.1742 -0.0337  0.0006
  568PYPI    C3 8887   1.646   8.411  11.501 -0.0716 -0.0573 -0.0809
  568PYPI   PO4 8888   1.795   8.416  10.915 -0.0311  0.1846 -0.0378
  568PYPI   GL1 8889   1.930   8.279  10.565 -0.1759 -0.1567  0.0541
  568PYPI   GL2 8890   2.218   8.326  10.463 -0.0355  0.3420 -0.1453
  568PYPI   C1A 8891   1.686   8.120  10.194 -0.2262  0.1999 -0.1457
  568PYPI   C2A 8892   1.705   8.021   9.736  0.0928 -0.2640 -0.2355
  568PYPI   D3A 8893   1.723   8.086   9.244 -0.2753 -0.3040  0.0253
  568PYPI   C4A 8894   1.619   7.963   8.809  0.2246 -0.0210 -0.0082
  568PYPI   C1B 8895   2.097   8.264  10.001  0.0757  0.3200 -0.1045
  568PYPI   C2B 8896   2.289   8.214   9.636  0.2702  0.0253  0.1170
  568PYPI   C3B 8897   2.257   8.304   9.198  0.0928 -0.2415 -0.0298
  568PYPI   C4B 8898   2.084   8.325   8.914  0.0704  0.0671  0.0513
  569PYPI    C1 8899  10.655  10.010  11.518 -0.0777 -0.1110  0.0866
  569PYPI    C2 8900  10.591  10.402  11.563  0.1448 -0.0570 -0.0476
  569PYPI    C3 8901  10.863  10.216  11.790 -0.0193 -0.1530  0.0737
  569PYPI   PO4 8902  10.724   9.982  11.234  0.0851 -0.1851  0.1160
  569PYPI   GL1 8903  10.644  10.118  10.713  0.1803  0.0209 -0.0797
  569PYPI   GL2 8904  10.961  10.064  10.781  0.2420  0.3619  0.2202
  569PYPI   C1A 8905  10.393  10.091  10.271  0.1017  0.1287  0.0354
  569PYPI   C2A 8906  10.350   9.906   9.879  0.0500 -0.5150  0.1893
  569PYPI   D3A 8907  10.439   9.852   9.489  0.0322  0.3061 -0.0192
  569PYPI   C4A 8908  10.427  10.061   9.130  0.0004 -0.2820 -0.0059
  569PYPI   C1B 8909  10.895   9.733  10.530  0.4496  0.2964 -0.0524
  569PYPI   C2B 8910  10.934   9.727  10.045 -0.0985  0.1193 -0.2949
  569PYPI   C3B 8911  10.888   9.597   9.570  0.2145  0.4529  0.0653
  569PYPI   C4B 8912  10.876   9.533   9.085  0.1745  0.0701 -0.2285
  570PYPI    C1 8913   8.885  13.506  11.119  0.1577 -0.4772 -0.0496
  570PYPI    C2 8914   9.210  13.666  11.287  0.0693 -0.1401 -0.1895
  570PYPI    C3 8915   8.972  13.426  11.501  0.0139  0.1975  0.1389
  570PYPI   PO4 8916   8.994  13.562  10.888  0.0002  0.1440  0.2064
  570PYPI   GL1 8917   9.100  13.853  10.564 -0.4116  0.4734  0.0592
  570PYPI   GL2 8918   9.471  13.878  10.360  0.2040  0.0280 -0.1583
  570PYPI   C1A 8919   8.950  13.823  10.185 -0.1874 -0.2453 -0.3402
  570PYPI   C2A 8920   9.254  13.815   9.840 -0.0249  0.2312 -0.0543
  570PYPI   D3A 8921   9.581  13.944   9.619  0.0163 -0.1594 -0.1087
  570PYPI   C4A 8922   9.646  13.733   9.247 -0.1826 -0.0097  0.2550
  570PYPI   C1B 8923   9.501  14.238  10.126  0.3339 -0.1998  0.0699
  570PYPI   C2B 8924   9.217  14.308   9.690  0.0090  0.0084 -0.0469
  570PYPI   C3B 8925   9.156  14.004   9.333 -0.0774  0.0307  0.1610
  570PYPI   C4B 8926   9.151  13.766   9.001 -0.3292  0.2759 -0.0440
  571PYPI    C1 8927  11.207  13.161  11.422 -0.0678  0.2615 -0.1604
  571PYPI    C2 8928  11.443  13.482  11.448  0.0031  0.1919  0.0811
  571PYPI    C3 8929  11.575  13.126  11.574 -0.0446  0.0492 -0.2607
  571PYPI   PO4 8930  11.205  13.200  11.117  0.2185 -0.1259 -0.0756
  571PYPI   GL1 8931  11.516  13.098  10.800 -0.0872  0.2258 -0.1918
  571PYPI   GL2 8932  11.799  12.841  10.589  0.3960  0.1372  0.1318
  571PYPI   C1A 8933  11.499  13.094  10.390  0.1475 -0.0139  0.0289
  571PYPI   C2A 8934  11.271  12.998  10.057  0.0653 -0.2646  0.1439
  571PYPI   D3A 8935  11.303  12.862   9.608  0.2612  0.0075  0.1123
  571PYPI   C4A 8936  11.252  13.118   9.257 -0.2431 -0.0827  0.0198
  571PYPI   C1B 8937  11.985  12.709  10.219 -0.0486 -0.5175  0.1870
  571PYPI   C2B 8938  12.324  12.552   9.973  0.3507  0.0021 -0.0978
  571PYPI   C3B 8939  12.374  12.478   9.466  0.1039  0.2992  0.2811
  571PYPI   C4B 8940  12.495  12.318   9.017  0.0705  0.0665  0.2947
  572PYPI    C1 8941  15.859  11.885  11.053 -0.2202 -0.0766  0.0563
  572PYPI    C2 8942  15.802  12.257  11.190 -0.0294 -0.0804  0.1495
  572PYPI    C3 8943  15.669  11.944  11.400 -0.0184 -0.0727  0.1679
  572PYPI   PO4 8944  15.804  11.955  10.814 -0.0234 -0.2783 -0.3634
  572PYPI   GL1 8945  15.611  11.827  10.596  0.1450 -0.3328 -0.2328
  572PYPI   GL2 8946  15.849  11.493  10.651 -0.1179 -0.1103 -0.1017
  572PYPI   C1A 8947  15.621  11.629  10.177 -0.0169 -0.1090  0.2676
  572PYPI   C2A 8948  15.577  11.652   9.748  0.0400  0.0045 -0.0367
  572PYPI   D3A 8949  15.592  11.872   9.327 -0.0425 -0.1367  0.2196
  572PYPI   C4A 8950  15.333  11.754   8.954  0.1484 -0.1866 -0.2160
  572PYPI   C1B 8951  16.099  11.414  10.246 -0.0074 -0.1820 -0.4291
  572PYPI   C2B 8952  16.149  11.429   9.818 -0.3667 -0.0966 -0.0098
  572PYPI   C3B 8953  16.196  11.568   9.397 -0.1652 -0.1695 -0.0044
  572PYPI   C4B 8954  16.078  11.792   9.080 -0.1285  0.1458 -0.0835
  573PYPI    C1 8955   4.947  14.167  11.594 -0.0854  0.0836 -0.2374
  573PYPI    C2 8956   5.034  14.431  11.882 -0.2117 -0.0074 -0.1149
  573PYPI    C3 8957   4.932  14.056  11.978 -0.1024 -0.0819 -0.2853
  573PYPI   PO4 8958   4.796  14.280  11.346  0.2635 -0.2002  0.3199
  573PYPI   GL1 8959   4.537  14.136  11.017 -0.3778  0.2527  0.1584
  573PYPI   GL2 8960   4.860  13.926  10.987  0.1848  0.0976 -0.1015
  573PYPI   C1A 8961   4.535  14.029  10.551  0.2054  0.0887  0.2984
  573PYPI   C2A 8962   4.549  14.018  10.081  0.0350  0.1302 -0.2334
  573PYPI   D3A 8963   4.551  14.056   9.639  0.3125 -0.0344 -0.0486
  573PYPI   C4A 8964   4.570  14.124   9.179 -0.0249 -0.1428 -0.0697
  573PYPI   C1B 8965   4.896  13.714  10.570  0.1387 -0.1584 -0.0779
  573PYPI   C2B 8966   4.940  13.680  10.140  0.1806 -0.0456  0.1548
  573PYPI   C3B 8967   4.888  13.725   9.741  0.0114 -0.0361 -0.0044
  573PYPI   C4B 8968   4.903  13.727   9.401  0.1324  0.2101  0.4134
  574ERGO   ROH 8969  16.807   1.951  11.110 -0.0484  0.1964 -0.0366
  574ERGO    R1 8970  16.944   1.907  10.866 -0.0119  0.2389 -0.0237
  574ERGO    R2 8971  16.892   1.691  10.703  0.1908  0.1271  0.0570
  574ERGO    R3 8972  16.857   1.884  10.514  0.0009  0.0256 -0.0143
  574ERGO    R4 8973  16.925   1.643  10.362  0.3716  0.0590  0.0832
  574ERGO    R5 8974  17.024   1.837  10.349  0.1239  0.1896  0.0584
  574ERGO    C1 8975  16.912   1.796   9.987  0.2986 -0.0759  0.0315
  574ERGO    C2 8976  16.773   1.751   9.628 -0.2138 -0.0160  0.0572
  575ERGO   ROH 8977   8.537   5.416  10.889 -0.0949 -0.1800 -0.1580
  575ERGO    R1 8978   8.693   5.438  10.654 -0.0560 -0.1513 -0.1292
  575ERGO    R2 8979   8.723   5.229  10.475 -0.0705 -0.1118 -0.1762
  575ERGO    R3 8980   8.636   5.413  10.295 -0.0072 -0.0499 -0.1445
  575ERGO    R4 8981   8.761   5.205  10.132 -0.1934 -0.1292 -0.1892
  575ERGO    R5 8982   8.806   5.418  10.127 -0.0558 -0.1570 -0.1978
  575ERGO    C1 8983   8.701   5.364   9.764 -0.2054 -0.0812 -0.1672
  575ERGO    C2 8984   8.648   5.520   9.583  0.0234 -0.0229 -0.0037
  576ERGO   ROH 8985   4.898   8.301  10.514 -0.1441  0.0720  0.0354
  576ERGO    R1 8986   4.986   8.447  10.288 -0.1250  0.0401  0.0225
  576ERGO    R2 8987   5.134   8.332  10.084 -0.1126  0.0107  0.0502
  576ERGO    R3 8988   4.936   8.433   9.928 -0.0980 -0.0065  0.0199
  576ERGO    R4 8989   5.132   8.326   9.739 -0.0464  0.0285  0.0492
  576ERGO    R5 8990   5.051   8.528   9.741 -0.0740  0.0194  0.0459
  576ERGO    C1 8991   4.946   8.418   9.391  0.0059  0.0228  0.0202
  576ERGO    C2 8992   5.170   8.310   9.144 -0.0354 -0.1594 -0.0388
  577ERGO   ROH 8993   6.009  16.536  10.773  0.1212 -0.0294 -0.1368
  577ERGO    R1 8994   5.893  16.439  10.534 -0.0462  0.0266 -0.0802
  577ERGO    R2 8995   5.743  16.599  10.366  0.0785  0.1424 -0.0846
  577ERGO    R3 8996   5.920  16.513  10.179 -0.0600 -0.0993 -0.1077
  577ERGO    R4 8997   5.680  16.582  10.026 -0.0413  0.0793 -0.0591
  577ERGO    R5 8998   5.786  16.392  10.021 -0.2263 -0.0282 -0.0234
  577ERGO    C1 8999   5.809  16.490   9.653 -0.2410 -0.1841 -0.0661
  577ERGO    C2 9000   5.867  16.534   9.410 -0.1327  0.0391  0.0330
  578ERGO   ROH 9001   6.100   9.397  10.838  0.0791  0.2045  0.0774
  578ERGO    R1 9002   6.148   9.244  10.605 -0.0106  0.1050  0.1236
  578ERGO    R2 9003   5.978   9.250  10.386  0.0336  0.1987  0.0934
  578ERGO    R3 9004   6.206   9.312  10.252  0.1132 -0.0331  0.1160
  578ERGO    R4 9005   6.021   9.220  10.045  0.0488  0.1123  0.1025
  578ERGO    R5 9006   6.222   9.145  10.081 -0.0226 -0.0742  0.1402
  578ERGO    C1 9007   6.259   9.260   9.720  0.1325 -0.1555  0.1292
  578ERGO    C2 9008   6.099   9.301   9.418 -0.1858  0.2205 -0.1986
  579ERGO   ROH 9009  14.268  13.488  10.533  0.0457  0.0355  0.0669
  579ERGO    R1 9010  14.301  13.598  10.274  0.2542 -0.0059  0.0751
  579ERGO    R2 9011  14.498  13.511  10.100  0.0612 -0.4105  0.0491
  579ERGO    R3 9012  14.288  13.475   9.931 -0.0400  0.0513  0.0628
  579ERGO    R4 9013  14.518  13.521   9.755  0.1284 -0.7191  0.0411
  579ERGO    R5 9014  14.328  13.629   9.752  0.4148 -0.1797 -0.0495
  579ERGO    C1 9015  14.333  13.493   9.396  0.0726 -0.4652  0.0494
  579ERGO    C2 9016  14.487  13.616   9.164 -0.0679  0.2460 -0.1132
  580ERGO   ROH 9017   6.081  11.593  10.644  0.0566  0.2194 -0.0777
  580ERGO    R1 9018   5.981  11.712  10.408  0.0618  0.0966 -0.1427
  580ERGO    R2 9019   6.146  11.809  10.208  0.0697  0.1196 -0.1272
  580ERGO    R3 9020   5.997  11.645  10.050  0.1965 -0.0057 -0.1174
  580ERGO    R4 9021   6.151  11.810   9.863  0.2448 -0.0677 -0.1268
  580ERGO    R5 9022   5.935  11.782   9.864  0.2533 -0.1254 -0.2244
  580ERGO    C1 9023   6.015  11.656   9.513  0.4659 -0.2944 -0.1174
  580ERGO    C2 9024   5.945  11.839   9.268  0.1962 -0.0072  0.3537
  581ERGO   ROH 9025   0.319  10.991  10.564  0.2022 -0.0245 -0.1460
  581ERGO    R1 9026   0.352  11.095  10.303  0.1406  0.0296 -0.1315
  581ERGO    R2 9027   0.483  10.958  10.104  0.0238  0.0402 -0.2095
  581ERGO    R3 9028   0.252  11.001   9.966 -0.0094  0.1470 -0.1233
  581ERGO    R4 9029   0.452  10.934   9.760 -0.1360 -0.0996 -0.1868
  581ERGO    R5 9030   0.324  11.111   9.765 -0.0079  0.0044 -0.2084
  581ERGO    C1 9031   0.218  10.960   9.431 -0.2603 -0.0806 -0.0927
  581ERGO    C2 9032   0.234  10.834   9.058 -0.0830  0.1713  0.2097
  582ERGO   ROH 9033  14.665  14.365  10.664  0.1615  0.0706 -0.0452
  582ERGO    R1 9034  14.723  14.457  10.403  0.1001  0.0548 -0.0632
  582ERGO    R2 9035  14.572  14.384  10.183  0.0013  0.1096 -0.0065
  582ERGO    R3 9036  14.553  14.653  10.148  0.0790  0.1168 -0.0043
  582ERGO    R4 9037  14.472  14.538   9.891  0.1448  0.1334 -0.0452
  582ERGO    R5 9038  14.626  14.689   9.923  0.1745  0.1000  0.0181
  582ERGO    C1 9039  14.395  14.881   9.687  0.3014  0.1539 -0.0657
  582ERGO    C2 9040  14.198  14.980   9.510  0.0548  0.3942 -0.1652
  583ERGO   ROH 9041  13.553  17.305  10.936  0.0550  0.0287 -0.1238
  583ERGO    R1 9042  13.393  17.348  10.706  0.0520 -0.0985 -0.1461
  583ERGO    R2 9043  13.452  17.542  10.518 -0.1050 -0.0145 -0.1116
  583ERGO    R3 9044  13.441  17.333  10.345  0.1318 -0.0073 -0.1392
  583ERGO    R4 9045  13.417  17.570  10.175 -0.1746 -0.0155 -0.1049
  583ERGO    R5 9046  13.281  17.400  10.180  0.0324 -0.1815 -0.1134
  583ERGO    C1 9047  13.385  17.389   9.814  0.0072 -0.0091 -0.1269
  583ERGO    C2 9048  13.384  17.501   9.539 -0.0769  0.3193 -0.1083
  584ERGO   ROH 9049   8.923  12.916  10.324  0.0954  0.2141 -0.0246
  584ERGO    R1 9050   8.955  12.820  10.059  0.0414  0.1218  0.0010
  584ERGO    R2 9051   8.843  12.947   9.840  0.1221  0.1330 -0.0394
  584ERGO    R3 9052   9.099  12.943   9.749  0.1235 -0.0491 -0.0285
  584ERGO    R4 9053   8.936  12.987   9.510  0.1801  0.2211 -0.0122
  584ERGO    R5 9054   9.085  12.831   9.538  0.0370  0.0742 -0.0855
  584ERGO    C1 9055   9.229  13.007   9.231  0.2152  0.1015  0.0140
  584ERGO    C2 9056   9.330  13.287   9.024  0.1949 -0.1610 -0.2552
  585ERGO   ROH 9057  15.292   6.991  11.125 -0.0207  0.1624  0.0632
  585ERGO    R1 9058  15.357   7.091  10.868  0.0877  0.0082  0.0267
  585ERGO    R2 9059  15.560   6.985  10.713 -0.0482 -0.2951  0.0407
  585ERGO    R3 9060  15.363   6.962  10.528 -0.0971 -0.1071  0.0643
  585ERGO    R4 9061  15.608   7.002  10.372 -0.0945 -0.1311  0.0445
  585ERGO    R5 9062  15.424   7.118  10.357 -0.0524 -0.0368  0.1396
  585ERGO    C1 9063  15.451   6.990   9.998 -0.1673  0.1409  0.0690
  585ERGO    C2 9064  15.390   6.864   9.744 -0.1209 -0.1988  0.4014
  586ERGO   ROH 9065  14.909   6.501  11.311 -0.0056 -0.0945  0.0344
  586ERGO    R1 9066  14.951   6.370  11.064  0.1844 -0.0498  0.0411
  586ERGO    R2 9067  14.744   6.302  10.893  0.2823 -0.3071  0.0150
  586ERGO    R3 9068  14.890   6.442  10.712  0.1364 -0.1281  0.0337
  586ERGO    R4 9069  14.774   6.222  10.559  0.1477 -0.0664 -0.0566
  586ERGO    R5 9070  14.985   6.275  10.569  0.1306  0.0072 -0.1284
  586ERGO    C1 9071  14.928   6.307  10.193 -0.0676  0.2420 -0.0806
  586ERGO    C2 9072  14.921   6.221   9.797 -0.0659 -0.1251  0.1979
  587ERGO   ROH 9073   8.632   9.401  10.706  0.0375 -0.3028  0.0121
  587ERGO    R1 9074   8.623   9.317  10.436 -0.1213 -0.2297 -0.0070
  587ERGO    R2 9075   8.404   9.189  10.327 -0.2798 -0.0011  0.0224
  587ERGO    R3 9076   8.417   9.389  10.144 -0.1443  0.0354  0.0732
  587ERGO    R4 9077   8.390   9.144   9.985 -0.1083  0.0841  0.0048
  587ERGO    R5 9078   8.545   9.296   9.964 -0.0706  0.0554  0.1195
  587ERGO    C1 9079   8.396   9.307   9.613  0.1187  0.1678  0.0422
  587ERGO    C2 9080   8.368   9.201   9.325  0.1759 -0.0426  0.2800
  588ERGO   ROH 9081  17.173   4.458  11.148 -0.2418 -0.2343  0.0269
  588ERGO    R1 9082  17.007   4.537  10.933 -0.1356 -0.0914 -0.0053
  588ERGO    R2 9083  17.079   4.736  10.755  0.0346 -0.0961  0.0504
  588ERGO    R3 9084  17.030   4.543  10.570 -0.0283 -0.0339  0.0030
  588ERGO    R4 9085  16.971   4.794  10.431 -0.0174  0.0096  0.0871
  588ERGO    R5 9086  16.839   4.622  10.450 -0.0370  0.0263  0.0610
  588ERGO    C1 9087  16.863   4.647  10.070 -0.1065  0.1295  0.0640
  588ERGO    C2 9088  16.966   4.594   9.738  0.0337 -0.0668 -0.0275
  589ERGO   ROH 9089   9.268   7.154  10.918  0.5985 -0.0156 -0.0620
  589ERGO    R1 9090   9.178   7.017  10.688  0.2606  0.0757  0.0104
  589ERGO    R2 9091   8.949   7.089  10.551  0.2320  0.3306  0.1881
  589ERGO    R3 9092   9.118   7.097  10.338  0.0779  0.1305  0.0532
  589ERGO    R4 9093   8.868   6.991  10.229 -0.0200  0.0881  0.3209
  589ERGO    R5 9094   9.066   6.901  10.212 -0.0500  0.0391  0.2465
  589ERGO    C1 9095   8.980   6.942   9.843 -0.3113 -0.2409  0.2715
  589ERGO    C2 9096   8.896   7.015   9.424  0.0935  0.1459  0.0313
  590ERGO   ROH 9097  11.607   2.766  11.285  0.0438 -0.1717 -0.0215
  590ERGO    R1 9098  11.524   2.642  11.044  0.0692 -0.0970 -0.0692
  590ERGO    R2 9099  11.289   2.711  10.915 -0.0715 -0.2652  0.0888
  590ERGO    R3 9100  11.455   2.748  10.703 -0.2078  0.0690  0.0349
  590ERGO    R4 9101  11.205   2.651  10.585 -0.1594 -0.1115  0.0827
  590ERGO    R5 9102  11.404   2.568  10.554 -0.0820  0.1223 -0.0735
  590ERGO    C1 9103  11.313   2.652  10.194 -0.3384  0.2918  0.0285
  590ERGO    C2 9104  11.359   2.576   9.863  0.1392  0.2283 -0.2825
  591ERGO   ROH 9105  10.012  13.409  10.735  0.2104 -0.3535 -0.0541
  591ERGO    R1 9106   9.859  13.481  10.508 -0.1016 -0.2930  0.1674
  591ERGO    R2 9107   9.972  13.518  10.259 -0.3542  0.2867  0.1211
  591ERGO    R3 9108   9.785  13.336  10.182 -0.0795  0.0451  0.0083
  591ERGO    R4 9109   9.779  13.541   9.973 -0.3728  0.1530  0.1226
  591ERGO    R5 9110   9.609  13.468  10.087 -0.2735 -0.1667  0.0707
  591ERGO    C1 9111   9.492  13.383   9.734 -0.1257 -0.1518  0.0177
  591ERGO    C2 9112   9.401  13.453   9.506 -0.1271 -0.0603  0.5693
  592ERGO   ROH 9113   8.543  14.036  10.447 -0.1364  0.2405 -0.0239
  592ERGO    R1 9114   8.412  13.924  10.223 -0.0809  0.1881 -0.0299
  592ERGO    R2 9115   8.382  14.060   9.985  0.0033  0.1211 -0.0782
  592ERGO    R3 9116   8.501  13.839   9.880  0.0117  0.0784  0.0201
  592ERGO    R4 9117   8.447  14.012   9.649  0.0155 -0.0184 -0.0565
  592ERGO    R5 9118   8.387  13.803   9.672  0.0185 -0.0112  0.0303
  592ERGO    C1 9119   8.597  13.776   9.355  0.0306 -0.1397  0.0484
  592ERGO    C2 9120   8.648  13.851   9.056 -0.0769 -0.2538 -0.0548
  593ERGO   ROH 9121   8.714   3.548  11.131  0.0030 -0.3016 -0.0280
  593ERGO    R1 9122   8.873   3.501  10.901 -0.0033 -0.2056 -0.0529
  593ERGO    R2 9123   8.790   3.338  10.694  0.0015 -0.1395 -0.1087
  593ERGO    R3 9124   8.843   3.558  10.543 -0.0257 -0.0802 -0.0315
  593ERGO    R4 9125   8.890   3.331  10.363 -0.0302 -0.0111 -0.1208
  593ERGO    R5 9126   9.029   3.493  10.407 -0.0354 -0.0194 -0.0735
  593ERGO    C1 9127   8.998   3.534  10.029 -0.0741  0.1193 -0.0554
  593ERGO    C2 9128   8.879   3.549   9.699  0.2461 -0.2270 -0.1527
  594ERGO   ROH 9129   2.358   9.252  10.594 -0.2257 -0.0029 -0.0553
  594ERGO    R1 9130   2.270   9.208  10.329 -0.1182 -0.0921 -0.0771
  594ERGO    R2 9131   2.262   9.409  10.139 -0.2721 -0.0971 -0.0793
  594ERGO    R3 9132   2.412   9.234   9.995 -0.0605  0.0496 -0.0418
  594ERGO    R4 9133   2.282   9.403   9.794 -0.1975 -0.0981 -0.0752
  594ERGO    R5 9134   2.278   9.185   9.802  0.0279 -0.1020 -0.0652
  594ERGO    C1 9135   2.434   9.236   9.458  0.0446  0.0390 -0.0375
  594ERGO    C2 9136   2.397   9.373   9.172 -0.1144  0.3704 -0.3112
  595ERGO   ROH 9137   0.070   1.148  10.978  0.0553  0.2254  0.0420
  595ERGO    R1 9138   0.212   1.206  10.740  0.0273  0.2210  0.0236
  595ERGO    R2 9139   0.284   1.011  10.557  0.1219  0.1977  0.0813
  595ERGO    R3 9140   0.153   1.173  10.383  0.0415  0.0821  0.0345
  595ERGO    R4 9141   0.289   0.977  10.214  0.3100  0.2309  0.0804
  595ERGO    R5 9142   0.302   1.194  10.197  0.1044  0.2439  0.1037
  595ERGO    C1 9143   0.170   1.109   9.849  0.3441  0.1418  0.0359
  595ERGO    C2 9144   0.185   1.220   9.570  0.2199  0.2621 -0.1035
  596ERGO   ROH 9145   0.470   6.988  11.027 -0.3057 -0.3272  0.2271
  596ERGO    R1 9146   0.303   6.986  10.799 -0.1773 -0.0878  0.1272
  596ERGO    R2 9147   0.321   7.176  10.599  0.0994 -0.0164  0.2186
  596ERGO    R3 9148   0.348   6.958  10.439  0.0064  0.0298  0.1389
  596ERGO    R4 9149   0.207   7.155  10.274 -0.1710  0.0543  0.3056
  596ERGO    R5 9150   0.144   6.951  10.314 -0.1012  0.0289  0.3067
  596ERGO    C1 9151   0.166   6.939   9.933 -0.4158  0.1388  0.2813
  596ERGO    C2 9152   0.217   6.936   9.565 -0.0278  0.2390  0.3400
  597ERGO   ROH 9153   9.174   8.747  10.478  0.0158  0.0313 -0.1767
  597ERGO    R1 9154   9.276   8.608  10.253 -0.0040 -0.0714 -0.1231
  597ERGO    R2 9155   9.113   8.481  10.070 -0.0236 -0.1018 -0.0853
  597ERGO    R3 9156   9.248   8.635   9.891  0.0180 -0.1944 -0.1341
  597ERGO    R4 9157   9.098   8.445   9.727 -0.1520 -0.1084 -0.0793
  597ERGO    R5 9158   9.312   8.483   9.718 -0.1305 -0.2428 -0.1473
  597ERGO    C1 9159   9.216   8.568   9.359 -0.1876 -0.1993 -0.1216
  597ERGO    C2 9160   9.301   8.653   9.003 -0.0256 -0.1817 -0.0887
  598ERGO   ROH 9161   4.664  16.609  10.900 -0.0309  0.0324  0.0372
  598ERGO    R1 9162   4.609  16.449  10.673  0.1523  0.0561 -0.0241
  598ERGO    R2 9163   4.402  16.504  10.498  0.1171 -0.0891 -0.0211
  598ERGO    R3 9164   4.600  16.495  10.312  0.1426  0.1708 -0.0110
  598ERGO    R4 9165   4.351  16.495  10.157  0.1354 -0.1490 -0.0232
  598ERGO    R5 9166   4.514  16.351  10.141  0.3303  0.0565 -0.0177
  598ERGO    C1 9167   4.507  16.483   9.783  0.1700  0.0602 -0.0151
  598ERGO    C2 9168   4.452  16.538   9.418  0.0147 -0.3509  0.0519
  599ERGO   ROH 9169   6.093   6.683  10.808 -0.0325  0.3589  0.2037
  599ERGO    R1 9170   6.027   6.775  10.549  0.0189  0.2266  0.1425
  599ERGO    R2 9171   6.208   6.908  10.388  0.0848  0.0459  0.0654
  599ERGO    R3 9172   6.142   6.714  10.209  0.0053 -0.0379  0.1838
  599ERGO    R4 9173   6.210   6.947  10.045  0.1567 -0.1861  0.0372
  599ERGO    R5 9174   6.026   6.831  10.035  0.0951 -0.0909  0.0882
  599ERGO    C1 9175   6.149   6.788   9.677  0.1240 -0.3999  0.1318
  599ERGO    C2 9176   6.213   6.694   9.311  0.0334  0.2510 -0.0092
  600ERGO   ROH 9177   5.891   3.499  11.064  0.0045  0.1312  0.0775
  600ERGO    R1 9178   6.020   3.485  10.812  0.0725 -0.0028  0.1184
  600ERGO    R2 9179   5.975   3.279  10.633 -0.1429  0.0791  0.0724
  600ERGO    R3 9180   5.918   3.482  10.463  0.1838  0.1848  0.0834
  600ERGO    R4 9181   6.026   3.270  10.292  0.0129  0.0853  0.0957
  600ERGO    R5 9182   6.095   3.477  10.302  0.2574  0.0032  0.1686
  600ERGO    C1 9183   6.003   3.457   9.933  0.4104  0.1882  0.1195
  600ERGO    C2 9184   6.097   3.461   9.650 -0.0738  0.0516 -0.0768
  601ERGO   ROH 9185  14.289  10.153  10.834 -0.0613 -0.1058 -0.0373
  601ERGO    R1 9186  14.185  10.194  10.574 -0.1870 -0.2119 -0.0050
  601ERGO    R2 9187  14.345  10.256  10.357 -0.3351  0.1780 -0.0122
  601ERGO    R3 9188  14.223  10.040  10.246  0.0594 -0.0268 -0.0663
  601ERGO    R4 9189  14.320  10.195  10.018 -0.2512  0.2338 -0.0286
  601ERGO    R5 9190  14.116  10.126  10.050 -0.1243 -0.1644 -0.0290
  601ERGO    C1 9191  14.191   9.957   9.716  0.1679  0.0741 -0.0889
  601ERGO    C2 9192  14.132   9.938   9.480 -0.3031 -0.2860 -0.0219
  602ERGO   ROH 9193   8.886  12.154   6.374  0.1947 -0.0905  0.0426
  602ERGO    R1 9194   9.004  12.170   6.631  0.0396 -0.1348  0.1179
  602ERGO    R2 9195   8.980  12.394   6.792  0.0081 -0.1317  0.1110
  602ERGO    R3 9196   8.887  12.214   6.973 -0.1618 -0.1092  0.0471
  602ERGO    R4 9197   8.974  12.443   7.134  0.0601 -0.2467  0.1287
  602ERGO    R5 9198   9.035  12.236   7.160 -0.1371 -0.3167  0.0540
  602ERGO    C1 9199   8.882  12.303   7.503 -0.0691 -0.2925  0.0790
  602ERGO    C2 9200   8.858  12.219   7.837  0.2340  0.1796 -0.2903
  603ERGO   ROH 9201   1.526   5.519  10.862  0.0135 -0.0930  0.0550
  603ERGO    R1 9202   1.518   5.379  10.616 -0.0440 -0.0034  0.0057
  603ERGO    R2 9203   1.294   5.373  10.454 -0.0656  0.0922  0.0365
  603ERGO    R3 9204   1.468   5.463  10.266 -0.0789  0.1294  0.0410
  603ERGO    R4 9205   1.255   5.331  10.114 -0.0453  0.0687  0.0368
  603ERGO    R5 9206   1.468   5.291  10.099 -0.0315  0.1203  0.0471
  603ERGO    C1 9207   1.396   5.390   9.738 -0.0459  0.0900  0.0410
  603ERGO    C2 9208   1.325   5.462   9.402 -0.0703 -0.0769  0.1358
  604ERGO   ROH 9209   2.923  17.451  11.059 -0.2233 -0.1025 -0.0317
  604ERGO    R1 9210   2.768  17.567  10.853 -0.1658 -0.0715 -0.0580
  604ERGO    R2 9211   2.858  17.779  10.699 -0.1166 -0.0579 -0.0123
  604ERGO    R3 9212   2.798  17.612  10.493 -0.0725 -0.0325 -0.0453
  604ERGO    R4 9213   2.864  17.868  10.366  0.1031 -0.0603 -0.0103
  604ERGO    R5 9214   2.682  17.751  10.336  0.0708  0.0153 -0.1096
  604ERGO    C1 9215   2.811  17.764   9.978  0.2724 -0.0378 -0.0401
  604ERGO    C2 9216   2.774  17.735   9.682  0.1546  0.2778 -0.1942
  605ERGO   ROH 9217  16.712   5.941  10.939  0.1003 -0.2930  0.0535
  605ERGO    R1 9218  16.665   6.069  10.691  0.0382 -0.2205  0.1022
  605ERGO    R2 9219  16.857   6.081  10.491  0.0231 -0.0716  0.0988
  605ERGO    R3 9220  16.659   5.971  10.340  0.0608 -0.0936  0.0652
  605ERGO    R4 9221  16.858   6.065  10.146  0.0255  0.0550  0.0924
  605ERGO    R5 9222  16.645   6.113  10.148  0.0038 -0.0264  0.1160
  605ERGO    C1 9223  16.673   5.953   9.803  0.0621  0.1081  0.0572
  605ERGO    C2 9224  16.795   5.966   9.599  0.0950  0.0436  0.1913
  606ERGO   ROH 9225  12.564   3.012  11.092  0.0273  0.1216  0.0193
  606ERGO    R1 9226  12.438   3.024  10.839 -0.0096  0.0945  0.0362
  606ERGO    R2 9227  12.524   3.193  10.638 -0.0202  0.0512 -0.0046
  606ERGO    R3 9228  12.534   2.963  10.493 -0.0692  0.0262  0.0313
  606ERGO    R4 9229  12.444   3.167  10.303  0.0054  0.0237 -0.0086
  606ERGO    R5 9230  12.346   2.978  10.346 -0.0514  0.0566  0.0108
  606ERGO    C1 9231  12.407   2.936   9.972 -0.0257 -0.0158  0.0229
  606ERGO    C2 9232  12.373   2.953   9.623 -0.0383 -0.1551  0.2715
  607ERGO   ROH 9233   0.094  15.426  10.827 -0.4208 -0.0741 -0.1736
  607ERGO    R1 9234  -0.001  15.540  10.586 -0.0770  0.2640 -0.1589
  607ERGO    R2 9235   0.127  15.752  10.461  0.5980 -0.0955 -0.1366
  607ERGO    R3 9236   0.125  15.584  10.248  0.0690 -0.0845 -0.1530
  607ERGO    R4 9237   0.108  15.852  10.131  0.4768 -0.0426 -0.1134
  607ERGO    R5 9238  -0.027  15.685  10.093  0.1145  0.2184 -0.0015
  607ERGO    C1 9239   0.095  15.753   9.738 -0.0903 -0.0016 -0.1154
  607ERGO    C2 9240   0.259  15.759   9.375  0.1883  0.0750  0.0953
  608ERGO   ROH 9241  14.750   9.314  10.781 -0.1243  0.1258  0.0517
  608ERGO    R1 9242  14.673   9.349  10.511 -0.0481  0.2303  0.0434
  608ERGO    R2 9243  14.848   9.439  10.317  0.0890  0.0194  0.0685
  608ERGO    R3 9244  14.770   9.212  10.188 -0.1780  0.1173  0.0505
  608ERGO    R4 9245  14.878   9.386   9.976  0.1297 -0.0269  0.0790
  608ERGO    R5 9246  14.681   9.291   9.979 -0.0060  0.2374  0.0186
  608ERGO    C1 9247  14.822   9.143   9.657 -0.0972  0.0381  0.0683
  608ERGO    C2 9248  14.886   9.042   9.344 -0.1605  0.0770  0.3190
  609ERGO   ROH 9249   9.943   9.412  10.749 -0.2066  0.1852 -0.0080
  609ERGO    R1 9250   9.818   9.478  10.503  0.0949  0.4418 -0.1008
  609ERGO    R2 9251   9.957   9.583  10.289  0.4989  0.0315 -0.0594
  609ERGO    R3 9252   9.845   9.374  10.156  0.0305  0.2636 -0.0525
  609ERGO    R4 9253   9.984   9.527   9.949  0.3225 -0.0163 -0.0662
  609ERGO    R5 9254   9.775   9.466   9.947  0.1869  0.4223 -0.0348
  609ERGO    C1 9255   9.896   9.298   9.626 -0.2198  0.1738 -0.0636
  609ERGO    C2 9256   9.800   9.161   9.402 -0.0324 -0.0523 -0.0252
  610ERGO   ROH 9257  12.291   3.816  10.821  0.0520  0.0295  0.1070
  610ERGO    R1 9258  12.250   3.728  10.556  0.0001 -0.0569  0.1425
  610ERGO    R2 9259  12.025   3.795  10.409  0.0053 -0.0401  0.1351
  610ERGO    R3 9260  12.208   3.883  10.229  0.0193 -0.1634  0.0902
  610ERGO    R4 9261  11.993   3.774  10.066 -0.0820 -0.0318  0.1433
  610ERGO    R5 9262  12.203   3.721  10.054 -0.1206 -0.1638  0.0975
  610ERGO    C1 9263  12.146   3.843   9.697 -0.1197 -0.1427  0.1059
  610ERGO    C2 9264  12.011   3.847   9.454  0.2912  0.4921  0.0619
  611ERGO   ROH 9265  13.492  12.672   6.898 -0.0185  0.1202  0.0906
  611ERGO    R1 9266  13.554  12.553   7.148 -0.1296  0.0355  0.0780
  611ERGO    R2 9267  13.710  12.679   7.338  0.0679 -0.1664  0.0525
  611ERGO    R3 9268  13.496  12.629   7.499  0.0273  0.1076  0.0888
  611ERGO    R4 9269  13.724  12.654   7.683  0.0064  0.2600  0.0914
  611ERGO    R5 9270  13.583  12.488   7.671 -0.0477  0.2917  0.2815
  611ERGO    C1 9271  13.531  12.593   8.034 -0.0674  0.7653  0.1480
  611ERGO    C2 9272  13.752  12.537   8.399  0.1151 -0.0428 -0.2924
  612ERGO   ROH 9273   3.010  11.147  10.788  0.1849  0.0058 -0.0891
  612ERGO    R1 9274   3.171  11.097  10.560  0.1296 -0.0813 -0.1100
  612ERGO    R2 9275   3.086  10.939  10.349  0.0430 -0.0909 -0.0712
  612ERGO    R3 9276   3.148  11.158  10.202  0.0838 -0.1326 -0.1153
  612ERGO    R4 9277   3.070  10.957  10.005 -0.0502 -0.1212 -0.0686
  612ERGO    R5 9278   3.255  11.072  10.007 -0.0079 -0.1933 -0.1368
  612ERGO    C1 9279   3.119  11.175   9.666 -0.0661 -0.1779 -0.1084
  612ERGO    C2 9280   3.119  11.188   9.261  0.1020  0.4158 -0.0258
  613ERGO   ROH 9281  13.036   9.497  10.728 -0.0965  0.2492  0.0896
  613ERGO    R1 9282  13.037   9.586  10.460 -0.0085  0.1262  0.0488
  613ERGO    R2 9283  13.255   9.553  10.293 -0.0191 -0.1072  0.0836
  613ERGO    R3 9284  13.071   9.435  10.131 -0.0897 -0.0480  0.1187
  613ERGO    R4 9285  13.252   9.575   9.948  0.0343 -0.2562  0.0721
  613ERGO    R5 9286  13.035   9.594   9.956  0.0434 -0.0956  0.0437
  613ERGO    C1 9287  13.078   9.477   9.595 -0.0008 -0.2873  0.0983
  613ERGO    C2 9288  13.115   9.406   9.349  0.1606 -0.1254  0.1387
  614ERGO   ROH 9289   6.705   2.615  10.995 -0.0653 -0.0204 -0.0112
  614ERGO    R1 9290   6.759   2.762  10.759  0.0910 -0.0647 -0.0037
  614ERGO    R2 9291   6.976   2.707  10.596  0.0474 -0.2728  0.0059
  614ERGO    R3 9292   6.785   2.690  10.403  0.0384 -0.0794 -0.0049
  614ERGO    R4 9293   7.030   2.760  10.259  0.0773 -0.1401  0.0307
  614ERGO    R5 9294   6.840   2.865  10.249  0.1325 -0.0337  0.0790
  614ERGO    C1 9295   6.883   2.774   9.881  0.0864  0.1187  0.0351
  614ERGO    C2 9296   6.913   2.715   9.581 -0.2211  0.0423 -0.1450
  615ERGO   ROH 9297  10.558  16.702  10.493 -0.1585  0.1201 -0.0405
  615ERGO    R1 9298  10.537  16.868  10.265 -0.0690  0.0741 -0.0838
  615ERGO    R2 9299  10.721  16.862  10.059 -0.0311 -0.0338 -0.0505
  615ERGO    R3 9300  10.500  16.821   9.906 -0.0229 -0.0040 -0.0802
  615ERGO    R4 9301  10.717  16.865   9.714 -0.0107  0.1091 -0.0489
  615ERGO    R5 9302  10.527  16.971   9.722 -0.0328  0.0810 -0.0159
  615ERGO    C1 9303  10.507  16.829   9.369  0.0090  0.2202 -0.0760
  615ERGO    C2 9304  10.473  16.769   9.037 -0.0345 -0.0546  0.0613
  616ERGO   ROH 9305   6.256   9.791  10.759 -0.2804 -0.0135  0.2049
  616ERGO    R1 9306   6.261   9.690  10.495 -0.0351 -0.0617  0.2245
  616ERGO    R2 9307   6.059   9.740  10.313  0.0699 -0.1960  0.0623
  616ERGO    R3 9308   6.264   9.830  10.159  0.1421 -0.1212  0.2013
  616ERGO    R4 9309   6.060   9.741   9.967  0.2146  0.0298  0.0625
  616ERGO    R5 9310   6.269   9.679   9.973  0.2007  0.0024  0.1057
  616ERGO    C1 9311   6.253   9.827   9.621  0.3666  0.2314  0.1931
  616ERGO    C2 9312   6.176   9.849   9.358 -0.2810  0.1709  0.0925
  617ERGO   ROH 9313  10.618  12.726   6.555 -0.0539  0.0630  0.0639
  617ERGO    R1 9314  10.696  12.548   6.761 -0.1543  0.0107  0.0579
  617ERGO    R2 9315  10.903  12.605   6.936 -0.0580 -0.1541  0.0010
  617ERGO    R3 9316  10.713  12.557   7.125 -0.0532  0.0264  0.0528
  617ERGO    R4 9317  10.958  12.611   7.277  0.0678 -0.3080 -0.0156
  617ERGO    R5 9318  10.829  12.436   7.296 -0.1387 -0.1591 -0.0180
  617ERGO    C1 9319  10.812  12.570   7.653  0.1454 -0.2281  0.0233
  617ERGO    C2 9320  10.771  12.564   7.967 -0.2922 -0.1832  0.0944
  618ERGO   ROH 9321   1.148   9.999  10.588  0.0467  0.2307  0.0951
  618ERGO    R1 9322   1.018   9.885  10.363 -0.0562  0.2341  0.1516
  618ERGO    R2 9323   0.934  10.036  10.147 -0.0329  0.2194  0.1306
  618ERGO    R3 9324   1.083   9.858  10.006 -0.1465  0.1137  0.1439
  618ERGO    R4 9325   0.962  10.032   9.803 -0.0660  0.1515  0.1291
  618ERGO    R5 9326   0.952   9.814   9.810 -0.1886  0.1581  0.1626
  618ERGO    C1 9327   1.118   9.862   9.469 -0.1918  0.0128  0.1407
  618ERGO    C2 9328   1.196   9.683   9.236  0.0866  0.0009  0.1650
  619ERGO   ROH 9329  10.380   8.272  10.768 -0.0254 -0.0947  0.1034
  619ERGO    R1 9330  10.523   8.212  10.531 -0.0513 -0.0762  0.0813
  619ERGO    R2 9331  10.488   7.975  10.392  0.0272 -0.1274  0.1334
  619ERGO    R3 9332  10.440   8.143  10.184 -0.1047 -0.1859  0.1180
  619ERGO    R4 9333  10.524   7.892  10.059 -0.0324 -0.1548  0.1349
  619ERGO    R5 9334  10.609   8.089  10.023 -0.1333 -0.1302  0.0784
  619ERGO    C1 9335  10.499   8.001   9.669 -0.1910 -0.2254  0.1213
  619ERGO    C2 9336  10.476   8.067   9.261  0.1211  0.0877  0.1812
  620ERGO   ROH 9337  14.592  17.453  11.156 -0.0774 -0.1005 -0.0076
  620ERGO    R1 9338  14.605  17.591  10.909 -0.2545 -0.0829 -0.0092
  620ERGO    R2 9339  14.815  17.558  10.732 -0.1723  0.2348  0.0182
  620ERGO    R3 9340  14.615  17.501  10.556 -0.0655 -0.0812 -0.0043
  620ERGO    R4 9341  14.849  17.555  10.388 -0.1684  0.4393  0.0158
  620ERGO    R5 9342  14.653  17.649  10.372 -0.3535  0.0687  0.0555
  620ERGO    C1 9343  14.682  17.499  10.023 -0.0657  0.2619 -0.0069
  620ERGO    C2 9344  14.854  17.401   9.763 -0.1031 -0.5960  0.2422
  621ERGO   ROH 9345   4.519  16.423   6.532 -0.1285  0.1032  0.0341
  621ERGO    R1 9346   4.402  16.445   6.789 -0.2380 -0.2652  0.0209
  621ERGO    R2 9347   4.396  16.234   6.968  0.3567 -0.3182 -0.0049
  621ERGO    R3 9348   4.514  16.415   7.134 -0.1877  0.0278  0.0340
  621ERGO    R4 9349   4.374  16.230   7.313  0.3526 -0.4590 -0.0059
  621ERGO    R5 9350   4.356  16.447   7.310 -0.3123 -0.4916  0.0381
  621ERGO    C1 9351   4.473  16.397   7.669 -0.1609 -0.2164  0.0301
  621ERGO    C2 9352   4.390  16.415   8.048  0.0149  0.0663  0.1455
  622ERGO   ROH 9353   0.509  13.387   6.287  0.2491  0.0013 -0.0655
  622ERGO    R1 9354   0.481  13.368   6.568  0.0954 -0.2421 -0.0942
  622ERGO    R2 9355   0.633  13.195   6.721  0.2654 -0.1232 -0.1239
  622ERGO    R3 9356   0.694  13.421   6.859 -0.1686 -0.1210  0.0797
  622ERGO    R4 9357   0.752  13.203   7.046  0.2070 -0.1804 -0.1008
  622ERGO    R5 9358   0.623  13.375   7.083 -0.1178 -0.4427  0.0336
  622ERGO    C1 9359   0.877  13.421   7.364 -0.2344 -0.2118  0.1037
  622ERGO    C2 9360   1.055  13.519   7.653 -0.0415  0.1355  0.1779
  623ERGO   ROH 9361   7.350  13.975  10.562  0.2073 -0.0283 -0.0026
  623ERGO    R1 9362   7.301  14.065  10.298  0.1450  0.1773  0.0756
  623ERGO    R2 9363   7.479  14.227  10.161  0.3247 -0.0694  0.0012
  623ERGO    R3 9364   7.462  14.031   9.973 -0.1782  0.0346 -0.0730
  623ERGO    R4 9365   7.483  14.281   9.820  0.2610  0.0645  0.0228
  623ERGO    R5 9366   7.328  14.128   9.799 -0.0723  0.3870  0.0352
  623ERGO    C1 9367   7.469  14.129   9.445 -0.2482  0.2402 -0.0341
  623ERGO    C2 9368   7.524  14.124   9.131  0.0642 -0.1629 -0.0607
  624ERGO   ROH 9369   6.795   3.993  11.158  0.0169  0.1457  0.0320
  624ERGO    R1 9370   6.688   3.994  10.896  0.0507  0.0014  0.0182
  624ERGO    R2 9371   6.578   4.219  10.782 -0.0249 -0.0912 -0.0799
  624ERGO    R3 9372   6.756   4.166  10.583  0.0182 -0.0924 -0.0423
  624ERGO    R4 9373   6.497   4.192  10.447  0.0353 -0.1104 -0.0941
  624ERGO    R5 9374   6.636   4.024  10.432  0.0495 -0.1080 -0.0584
  624ERGO    C1 9375   6.617   4.127  10.065  0.1108 -0.1227 -0.0673
  624ERGO    C2 9376   6.665   4.113   9.791  0.0933 -0.1621  0.1024
  625ERGO   ROH 9377  11.370  15.427   6.851 -0.1361  0.1143  0.0648
  625ERGO    R1 9378  11.433  15.518   7.112 -0.0934 -0.0215  0.1034
  625ERGO    R2 9379  11.279  15.704   7.246  0.0344  0.0566  0.1497
  625ERGO    R3 9380  11.274  15.514   7.439 -0.1356 -0.0087  0.0822
  625ERGO    R4 9381  11.195  15.760   7.576  0.3531  0.0700  0.2311
  625ERGO    R5 9382  11.355  15.625   7.635  0.1804 -0.2098  0.0694
  625ERGO    C1 9383  11.141  15.614   7.951  0.3791  0.0166  0.2150
  625ERGO    C2 9384  11.096  15.727   8.367  0.1991 -0.2209  0.3011
  626ERGO   ROH 9385   9.378  12.112  10.467 -0.1934  0.2486  0.0468
  626ERGO    R1 9386   9.166  12.129  10.280 -0.1604  0.2968  0.0117
  626ERGO    R2 9387   9.091  12.367  10.161  0.1048  0.2713 -0.2277
  626ERGO    R3 9388   9.127  12.226   9.932 -0.0188  0.0038 -0.0876
  626ERGO    R4 9389   8.966  12.457   9.852  0.3448  0.1645 -0.3576
  626ERGO    R5 9390   8.919  12.248   9.815  0.0536  0.1964 -0.1785
  626ERGO    C1 9391   8.927  12.377   9.456  0.3685 -0.1489 -0.3019
  626ERGO    C2 9392   8.767  12.333   9.148  0.1348 -0.0242 -0.0155
  627ERGO   ROH 9393   2.613  11.425  10.785  0.0543  0.2152  0.0525
  627ERGO    R1 9394   2.732  11.437  10.528  0.0203  0.1368  0.0351
  627ERGO    R2 9395   2.705  11.234  10.342 -0.0952  0.1347  0.0682
  627ERGO    R3 9396   2.617  11.436  10.183 -0.0267  0.1522  0.0478
  627ERGO    R4 9397   2.764  11.258  10.003 -0.2879 -0.0636  0.0171
  627ERGO    R5 9398   2.795  11.472  10.028 -0.0831 -0.0690 -0.0846
  627ERGO    C1 9399   2.715  11.461   9.655 -0.3358 -0.1624 -0.0317
  627ERGO    C2 9400   2.744  11.534   9.303  0.2220  0.4015  0.0095
  628ERGO   ROH 9401   6.389   0.468  10.942 -0.1204  0.0017 -0.0635
  628ERGO    R1 9402   6.400   0.625  10.707  0.0876  0.0857 -0.0004
  628ERGO    R2 9403   6.633   0.663  10.564  0.1355 -0.1965 -0.0057
  628ERGO    R3 9404   6.483   0.572  10.356 -0.0222  0.1052 -0.0292
  628ERGO    R4 9405   6.706   0.715  10.230  0.1101 -0.0714  0.0078
  628ERGO    R5 9406   6.494   0.748  10.194  0.1380  0.1959  0.0789
  628ERGO    C1 9407   6.608   0.659   9.841 -0.0528  0.2847 -0.0063
  628ERGO    C2 9408   6.610   0.717   9.466 -0.2503  0.1816  0.1190
  629ERGO   ROH 9409  13.427   7.363  10.937 -0.1318 -0.0052  0.1131
  629ERGO    R1 9410  13.584   7.442  10.715  0.0960 -0.3012  0.1604
  629ERGO    R2 9411  13.700   7.260  10.543 -0.2921 -0.5354  0.1195
  629ERGO    R3 9412  13.569   7.405  10.354  0.0579 -0.1638  0.1505
  629ERGO    R4 9413  13.642   7.154  10.219 -0.5541 -0.3018  0.0873
  629ERGO    R5 9414  13.687   7.357  10.150 -0.0607 -0.3924  0.1430
  629ERGO    C1 9415  13.485   7.229   9.853 -0.3782  0.1831  0.0977
  629ERGO    C2 9416  13.593   7.184   9.517  0.1397 -0.0351 -0.1921
  630ERGO   ROH 9417  13.091   7.050   6.740 -0.0424 -0.1543 -0.1806
  630ERGO    R1 9418  13.186   6.968   6.994  0.1685  0.1809 -0.1446
  630ERGO    R2 9419  13.269   7.148   7.187 -0.2956  0.4822 -0.2082
  630ERGO    R3 9420  13.087   7.017   7.341  0.0259  0.0618 -0.1675
  630ERGO    R4 9421  13.240   7.179   7.530 -0.3969  0.5540 -0.2232
  630ERGO    R5 9422  13.204   6.965   7.542  0.1603  0.4519 -0.1359
  630ERGO    C1 9423  13.052   7.074   7.874 -0.1541  0.2012 -0.1937
  630ERGO    C2 9424  12.942   7.008   8.262 -0.0874 -0.5227 -0.4357
  631ERGO   ROH 9425  10.083  15.574  10.819  0.0228 -0.1508 -0.3071
  631ERGO    R1 9426  10.057  15.480  10.553 -0.0533 -0.0992 -0.3175
  631ERGO    R2 9427   9.811  15.454  10.428 -0.0739  0.1378 -0.3292
  631ERGO    R3 9428   9.928  15.610  10.238  0.0767  0.0526 -0.3091
  631ERGO    R4 9429   9.765  15.417  10.088 -0.0690  0.2008 -0.3376
  631ERGO    R5 9430   9.977  15.458  10.060 -0.0321  0.0235 -0.3139
  631ERGO    C1 9431   9.847  15.542   9.711  0.0753  0.1577 -0.3237
  631ERGO    C2 9432   9.790  15.550   9.384  0.0407  0.2923  0.1532
  632ERGO   ROH 9433  10.660  15.478  10.858 -0.0614 -0.0325 -0.0330
  632ERGO    R1 9434  10.512  15.531  10.623 -0.0578  0.2544  0.0249
  632ERGO    R2 9435  10.510  15.778  10.500  0.4508  0.2435 -0.0286
  632ERGO    R3 9436  10.584  15.634  10.282  0.0267  0.0137 -0.0314
  632ERGO    R4 9437  10.393  15.831  10.179  0.3887  0.4002  0.0193
  632ERGO    R5 9438  10.384  15.615  10.152 -0.0910  0.4042  0.0825
  632ERGO    C1 9439  10.395  15.727   9.788 -0.0455  0.2758  0.0445
  632ERGO    C2 9440  10.261  15.811   9.516 -0.1720 -0.0965  0.2935
  633ERGO   ROH 9441  12.321  16.110  11.055 -0.0479  0.0512  0.0944
  633ERGO    R1 9442  12.160  16.228  10.855 -0.0270 -0.0154  0.0360
  633ERGO    R2 9443  12.223  16.469  10.736 -0.0201 -0.0437 -0.0318
  633ERGO    R3 9444  12.199  16.325  10.507  0.0193 -0.1206  0.0134
  633ERGO    R4 9445  12.284  16.592  10.419 -0.0885 -0.1270 -0.0765
  633ERGO    R5 9446  12.110  16.481  10.348 -0.0463 -0.2098 -0.0305
  633ERGO    C1 9447  12.296  16.528  10.019 -0.0914 -0.2480 -0.0601
  633ERGO    C2 9448  12.409  16.576   9.810  0.2411 -0.1181 -0.3199
  634ERGO   ROH 9449   7.237   7.775  10.712 -0.2028 -0.2069 -0.1088
  634ERGO    R1 9450   7.324   7.715  10.450 -0.1094 -0.1142 -0.0993
  634ERGO    R2 9451   7.151   7.631  10.251 -0.0293 -0.0976 -0.1733
  634ERGO    R3 9452   7.260   7.840  10.114 -0.0348 -0.0361 -0.0854
  634ERGO    R4 9453   7.201   7.640   9.909  0.0559  0.0076 -0.1593
  634ERGO    R5 9454   7.393   7.737   9.944  0.0299  0.0364 -0.0814
  634ERGO    C1 9455   7.332   7.840   9.582  0.1002  0.1266 -0.0685
  634ERGO    C2 9456   7.270   7.894   9.320  0.3428  0.0349 -0.2982
  635ERGO   ROH 9457  17.037  10.392  10.722  0.0319  0.3554 -0.0809
  635ERGO    R1 9458  16.956  10.292  10.470 -0.0386  0.2461 -0.0158
  635ERGO    R2 9459  16.934  10.453  10.246 -0.1028  0.1499 -0.0802
  635ERGO    R3 9460  17.100  10.267  10.137 -0.1321  0.1043 -0.0461
  635ERGO    R4 9461  17.018  10.434   9.911 -0.0812  0.0932 -0.0717
  635ERGO    R5 9462  17.002  10.218   9.924 -0.1254  0.0987 -0.0473
  635ERGO    C1 9463  17.221  10.249   9.614 -0.0962  0.0173 -0.0346
  635ERGO    C2 9464  17.289  10.152   9.363  0.0868 -0.2002  0.1550
  636ERGO   ROH 9465  13.289  13.927  10.563 -0.1123 -0.1342 -0.0766
  636ERGO    R1 9466  13.375  13.729  10.380 -0.0709 -0.0557 -0.1426
  636ERGO    R2 9467  13.396  13.463  10.448  0.0752 -0.0609 -0.2040
  636ERGO    R3 9468  13.235  13.428  10.231  0.0293 -0.0914 -0.1649
  636ERGO    R4 9469  13.411  13.193  10.232  0.0232 -0.0969 -0.1623
  636ERGO    R5 9470  13.379  13.330  10.066 -0.0072 -0.1229 -0.1785
  636ERGO    C1 9471  13.269  13.003   9.903 -0.0503 -0.1466 -0.1015
  636ERGO    C2 9472  13.156  12.671   9.705  0.0058  0.1121  0.0402
  637ERGO   ROH 9473  10.873  13.248  10.130  0.1371  0.3516  0.0741
  637ERGO    R1 9474  10.864  13.313   9.854  0.1273  0.0589  0.0042
  637ERGO    R2 9475  10.858  13.120   9.657 -0.2369 -0.1563  0.2223
  637ERGO    R3 9476  10.636  13.255   9.577 -0.0699  0.0880  0.1561
  637ERGO    R4 9477  10.733  13.121   9.335 -0.2990 -0.2587  0.2440
  637ERGO    R5 9478  10.690  13.334   9.357  0.0003 -0.1718  0.0741
  637ERGO    C1 9479  10.451  13.249   9.072 -0.1785 -0.0891  0.1946
  637ERGO    C2 9480  10.195  13.294   8.720  0.2082 -0.2509 -0.0571
  638ERGO   ROH 9481   7.023   6.254  10.760 -0.0263  0.0490 -0.0609
  638ERGO    R1 9482   7.003   6.128  10.507 -0.0429  0.0448 -0.0568
  638ERGO    R2 9483   6.829   6.216  10.311 -0.0375  0.0561 -0.0539
  638ERGO    R3 9484   7.054   6.224  10.160 -0.0404  0.0303 -0.0607
  638ERGO    R4 9485   6.837   6.189   9.966 -0.0662  0.2244 -0.0692
  638ERGO    R5 9486   7.015   6.065   9.985 -0.1203  0.1340 -0.1392
  638ERGO    C1 9487   7.054   6.181   9.624 -0.0855  0.2982 -0.0845
  638ERGO    C2 9488   7.071   6.294   9.223  0.0774 -0.2461  0.1658
  639ERGO   ROH 9489  13.067  15.063  10.764 -0.1876  0.1439  0.0792
  639ERGO    R1 9490  13.083  15.242  10.545 -0.1301 -0.0326 -0.0647
  639ERGO    R2 9491  13.293  15.239  10.366 -0.0838 -0.1833 -0.0128
  639ERGO    R3 9492  13.094  15.217  10.182 -0.0402 -0.3303 -0.0436
  639ERGO    R4 9493  13.339  15.255  10.024 -0.0710  0.0885 -0.0001
  639ERGO    R5 9494  13.155  15.372  10.010 -0.2261 -0.1411  0.0576
  639ERGO    C1 9495  13.178  15.243   9.652 -0.0225  0.1088 -0.0217
  639ERGO    C2 9496  13.252  15.259   9.345 -0.0987  0.1356  0.2063
  640ERGO   ROH 9497  10.518   5.216  10.957 -0.1482 -0.0490  0.0091
  640ERGO    R1 9498  10.569   5.090  10.709 -0.1853 -0.0925  0.0239
  640ERGO    R2 9499  10.372   5.046  10.520 -0.1585  0.1319 -0.0548
  640ERGO    R3 9500  10.543   5.179  10.357  0.0521 -0.0462  0.0156
  640ERGO    R4 9501  10.369   5.028  10.175 -0.1137  0.2186 -0.0602
  640ERGO    R5 9502  10.587   5.025  10.179 -0.1114 -0.0651 -0.0134
  640ERGO    C1 9503  10.528   5.143   9.821  0.1101  0.1018  0.0025
  640ERGO    C2 9504  10.422   5.139   9.440 -0.4327 -0.0644 -0.2174
  641ERGO   ROH 9505  17.077   8.848  10.746 -0.0814 -0.2572  0.0912
  641ERGO    R1 9506  16.947   8.768  10.508  0.0000 -0.3811  0.0875
  641ERGO    R2 9507  16.971   8.909  10.272 -0.2698 -0.2501  0.1333
  641ERGO    R3 9508  17.047   8.667  10.173  0.1055 -0.0977  0.0314
  641ERGO    R4 9509  16.969   8.824   9.937 -0.0353 -0.0890  0.0880
  641ERGO    R5 9510  16.894   8.626   9.993  0.2230 -0.2257 -0.0394
  641ERGO    C1 9511  17.039   8.547   9.649  0.4536  0.1477 -0.0341
  641ERGO    C2 9512  17.117   8.595   9.269  0.0891 -0.0391 -0.4054
  642ERGO   ROH 9513  12.278   8.540  10.796  0.0177 -0.2120  0.0041
  642ERGO    R1 9514  12.370   8.515  10.530 -0.1134  0.0108 -0.0647
  642ERGO    R2 9515  12.466   8.277  10.427  0.2136  0.1893 -0.1891
  642ERGO    R3 9516  12.278   8.321  10.235  0.0087 -0.0653 -0.0534
  642ERGO    R4 9517  12.502   8.197  10.093  0.1964  0.4888 -0.2646
  642ERGO    R5 9518  12.404   8.386  10.042 -0.2247  0.3294 -0.0849
  642ERGO    C1 9519  12.347   8.193   9.718 -0.0060  0.4241 -0.1813
  642ERGO    C2 9520  12.253   8.147   9.348 -0.0918  0.1853 -0.0145
  643ERGO   ROH 9521   8.690  12.334  10.401 -0.0398  0.0338  0.0255
  643ERGO    R1 9522   8.631  12.195  10.161 -0.0332  0.1175 -0.0226
  643ERGO    R2 9523   8.373  12.158  10.070 -0.0241  0.1368 -0.0251
  643ERGO    R3 9524   8.471  12.271   9.844 -0.0413  0.2192  0.0010
  643ERGO    R4 9525   8.299  12.054   9.749 -0.1663  0.3151 -0.0543
  643ERGO    R5 9526   8.507  12.087   9.696 -0.1544  0.2637 -0.1000
  643ERGO    C1 9527   8.348  12.099   9.350 -0.2654  0.4963 -0.0467
  643ERGO    C2 9528   8.212  12.035   9.036  0.0338  0.0807 -0.2086
  644ERGO   ROH 9529   0.465   9.306  10.621  0.0912 -0.0010 -0.1070
  644ERGO    R1 9530   0.424   9.132  10.402  0.1471  0.0121 -0.1272
  644ERGO    R2 9531   0.273   9.202  10.183  0.0933 -0.0258 -0.0979
  644ERGO    R3 9532   0.497   9.133  10.046  0.1077  0.0940 -0.1363
  644ERGO    R4 9533   0.284   9.131   9.845  0.0395 -0.1493 -0.0745
  644ERGO    R5 9534   0.423   8.969   9.888  0.1816 -0.0287 -0.0496
  644ERGO    C1 9535   0.501   9.025   9.519  0.0217 -0.1086 -0.0969
  644ERGO    C2 9536   0.527   8.909   9.171 -0.0311  0.0173  0.1775
  645ERGO   ROH 9537   0.778   2.074  11.036 -0.0024 -0.0663  0.0721
  645ERGO    R1 9538   0.899   1.982  10.797  0.0831  0.1933  0.0147
  645ERGO    R2 9539   0.798   1.771  10.651  0.3937  0.0608  0.0012
  645ERGO    R3 9540   0.803   1.952  10.448  0.0341  0.1169  0.0318
  645ERGO    R4 9541   0.791   1.691  10.314  0.6223  0.0806 -0.0112
  645ERGO    R5 9542   0.938   1.848  10.279  0.3008  0.4211  0.0374
  645ERGO    C1 9543   0.792   1.815   9.928  0.4179  0.1448  0.0101
  645ERGO    C2 9544   0.855   1.938   9.571 -0.0790  0.3457 -0.0864
  646ERGO   ROH 9545  11.027  10.457  10.470  0.1463 -0.1360  0.1097
  646ERGO    R1 9546  10.911  10.282  10.279  0.0465 -0.0607  0.1006
  646ERGO    R2 9547  10.772  10.374  10.059  0.0690  0.0295  0.1225
  646ERGO    R3 9548  10.948  10.218   9.923 -0.0159 -0.0385  0.0902
  646ERGO    R4 9549  10.741  10.285   9.726  0.1246  0.2835  0.0469
  646ERGO    R5 9550  10.811  10.085   9.779 -0.0781  0.1827 -0.0589
  646ERGO    C1 9551  10.888  10.086   9.405  0.0774  0.3674 -0.0275
  646ERGO    C2 9552  10.901  10.096   9.106  0.1619 -0.0318  0.0671
  647ERGO   ROH 9553   3.599  16.149  10.994  0.2666  0.2590  0.1175
  647ERGO    R1 9554   3.541  16.011  10.753  0.2617  0.1513  0.1806
  647ERGO    R2 9555   3.340  16.089  10.582  0.1354 -0.0397  0.2461
  647ERGO    R3 9556   3.539  16.089  10.397  0.0551  0.0494  0.1565
  647ERGO    R4 9557   3.298  16.161  10.246 -0.0281  0.0912  0.2921
  647ERGO    R5 9558   3.438  16.000  10.200 -0.0314  0.1170  0.1653
  647ERGO    C1 9559   3.462  16.203   9.878 -0.1987  0.2511  0.2346
  647ERGO    C2 9560   3.467  16.135   9.459 -0.0537  0.0563  0.3267
  648ERGO   ROH 9561   2.028  13.070  10.871 -0.0839  0.1185 -0.0842
  648ERGO    R1 9562   2.051  12.974  10.606 -0.2409  0.0305 -0.0671
  648ERGO    R2 9563   1.861  13.027  10.411 -0.1944  0.2453 -0.0579
  648ERGO    R3 9564   2.076  13.119  10.273 -0.0803 -0.0703 -0.0992
  648ERGO    R4 9565   1.895  13.014  10.067 -0.3224  0.2855 -0.0723
  648ERGO    R5 9566   2.105  12.961  10.095 -0.3971 -0.0709 -0.1531
  648ERGO    C1 9567   2.116  13.093   9.737 -0.2899  0.0124 -0.1194
  648ERGO    C2 9568   2.084  13.094   9.455 -0.0512  0.0646  0.0093
  649ERGO   ROH 9569  11.513   7.122  10.837 -0.1544  0.0805 -0.0190
  649ERGO    R1 9570  11.631   7.169  10.584 -0.2548  0.1449 -0.0537
  649ERGO    R2 9571  11.746   6.968  10.434  0.0867  0.2558  0.0542
  649ERGO    R3 9572  11.576   7.057  10.241 -0.0905 -0.1477  0.0115
  649ERGO    R4 9573  11.797   6.931  10.094  0.2644  0.3768  0.0658
  649ERGO    R5 9574  11.721   7.134  10.066 -0.2217  0.2058  0.0490
  649ERGO    C1 9575  11.667   6.994   9.715  0.2014  0.0684  0.0325
  649ERGO    C2 9576  11.698   7.055   9.359  0.0895  0.1147  0.1226
  650ERGO   ROH 9577  11.787  13.499  10.574 -0.0744 -0.1753  0.0949
  650ERGO    R1 9578  11.912  13.447  10.326  0.0894 -0.2273  0.1864
  650ERGO    R2 9579  11.916  13.195  10.212 -0.0690 -0.2018  0.1167
  650ERGO    R3 9580  11.809  13.325   9.998  0.2452 -0.0242  0.0602
  650ERGO    R4 9581  11.854  13.051   9.904 -0.1131 -0.0876  0.0715
  650ERGO    R5 9582  11.925  13.234   9.809  0.2175 -0.1855  0.1214
  650ERGO    C1 9583  11.717  13.088   9.525  0.1562  0.1455 -0.0079
  650ERGO    C2 9584  11.739  13.002   9.228 -0.2325 -0.1453  0.0861
  651ERGO   ROH 9585  16.494  13.682  10.275  0.2141  0.0702  0.1845
  651ERGO    R1 9586  16.406  13.801  10.033  0.3468  0.0224  0.1174
  651ERGO    R2 9587  16.579  13.858   9.824  0.4207 -0.1930  0.1438
  651ERGO    R3 9588  16.401  13.710   9.681  0.3484 -0.1215  0.1489
  651ERGO    R4 9589  16.551  13.860   9.480  0.6537 -0.4120  0.1162
  651ERGO    R5 9590  16.335  13.853   9.502  0.6130 -0.1667 -0.0074
  651ERGO    C1 9591  16.368  13.723   9.145  0.7216 -0.4724  0.1050
  651ERGO    C2 9592  16.408  13.810   8.825  0.2215  0.0378 -0.0791
  652ERGO   ROH 9593   1.119  15.373   6.722 -0.0567 -0.1813 -0.0691
  652ERGO    R1 9594   1.157  15.455   6.990  0.0076 -0.0024 -0.1307
  652ERGO    R2 9595   0.963  15.588   7.135 -0.0200 -0.0525 -0.1212
  652ERGO    R3 9596   1.002  15.385   7.312  0.1962  0.0729 -0.0215
  652ERGO    R4 9597   0.908  15.609   7.476 -0.2432 -0.0003 -0.1589
  652ERGO    R5 9598   1.089  15.492   7.507 -0.0754  0.2881 -0.0120
  652ERGO    C1 9599   0.913  15.431   7.840 -0.1702  0.1478 -0.0874
  652ERGO    C2 9600   1.114  15.525   8.059  0.0037  0.0705 -0.0930
  653ERGO   ROH 9601  13.755   5.826  10.976  0.0056  0.2862  0.0605
  653ERGO    R1 9602  13.816   5.950  10.729 -0.1281  0.2347  0.0010
  653ERGO    R2 9603  13.962   5.825  10.532 -0.0514  0.2717  0.0362
  653ERGO    R3 9604  13.747   5.889  10.377 -0.1235  0.0330  0.0338
  653ERGO    R4 9605  13.955   5.803  10.187 -0.0442  0.1975  0.0404
  653ERGO    R5 9606  13.843   5.991  10.182 -0.2302  0.0910  0.0093
  653ERGO    C1 9607  13.749   5.849   9.841 -0.1076 -0.0698  0.0407
  653ERGO    C2 9608  13.843   5.893   9.552 -0.1392 -0.1193  0.1687
  654ERGO   ROH 9609   0.046  11.947  10.517  0.0532 -0.1479 -0.1712
  654ERGO    R1 9610   0.024  11.954  10.235 -0.0592  0.0717 -0.1585
  654ERGO    R2 9611  -0.134  12.139  10.103  0.0424  0.3025  0.0375
  654ERGO    R3 9612   0.097  12.192   9.969  0.0341  0.1996 -0.0201
  654ERGO    R4 9613  -0.112  12.202   9.764  0.0288 -0.0360 -0.0305
  654ERGO    R5 9614   0.070  12.083   9.758  0.0455 -0.0190  0.0884
  654ERGO    C1 9615   0.117  12.290   9.441  0.0130 -0.3297 -0.1242
  654ERGO    C2 9616   0.013  12.314   9.114  0.4835  0.2138  0.1057
  655ERGO   ROH 9617  16.035  11.901  10.375  0.3876 -0.2811 -0.0134
  655ERGO    R1 9618  16.122  11.924  10.106  0.1885 -0.2707 -0.0783
  655ERGO    R2 9619  15.958  11.870   9.891 -0.0689  0.0478  0.0371
  655ERGO    R3 9620  16.031  12.120   9.814  0.1956 -0.0091  0.0901
  655ERGO    R4 9621  16.004  11.971   9.564 -0.0212  0.0739  0.0510
  655ERGO    R5 9622  16.178  12.085   9.628  0.1252 -0.1318  0.0509
  655ERGO    C1 9623  16.100  12.264   9.301  0.2549  0.0355  0.1088
  655ERGO    C2 9624  16.038  12.321   8.979  0.2330  0.0390 -0.0946
  656ERGO   ROH 9625   4.405   7.118  10.860 -0.3996  0.1586  0.0619
  656ERGO    R1 9626   4.263   7.110  10.615 -0.2283  0.3711 -0.0499
  656ERGO    R2 9627   4.307   7.292  10.412  0.1919  0.3232 -0.0224
  656ERGO    R3 9628   4.345   7.068  10.263 -0.0122  0.2637  0.0140
  656ERGO    R4 9629   4.319   7.283  10.067 -0.0571  0.2021 -0.0291
  656ERGO    R5 9630   4.205   7.098  10.072 -0.1302  0.2596  0.1066
  656ERGO    C1 9631   4.363   7.067   9.726 -0.3938  0.0758  0.0010
  656ERGO    C2 9632   4.354   6.953   9.323  0.3359  0.0309  0.1598
  657ERGO   ROH 9633   3.851  10.498  10.879  0.0363  0.1599  0.0656
  657ERGO    R1 9634   3.989  10.466  10.634  0.0372 -0.0080  0.0865
  657ERGO    R2 9635   3.894  10.308  10.429 -0.0657  0.0155  0.1158
  657ERGO    R3 9636   3.925  10.536  10.283  0.1264 -0.0425  0.0629
  657ERGO    R4 9637   3.872  10.326  10.084 -0.2390 -0.0154  0.1245
  657ERGO    R5 9638   4.041  10.464  10.086 -0.0687 -0.2162  0.0073
  657ERGO    C1 9639   3.888  10.550   9.747 -0.1595 -0.0879  0.0800
  657ERGO    C2 9640   3.875  10.567   9.362  0.0698  0.0062  0.0871
  658ERGO   ROH 9641   4.946   5.334  10.702 -0.1312 -0.0267  0.0114
  658ERGO    R1 9642   4.870   5.359  10.431 -0.0335 -0.1175 -0.0253
  658ERGO    R2 9643   4.988   5.540  10.259 -0.0991 -0.0442  0.0045
  658ERGO    R3 9644   5.031   5.319  10.107  0.1392 -0.0310  0.0490
  658ERGO    R4 9645   4.976   5.534   9.914 -0.1533 -0.1413  0.0082
  658ERGO    R5 9646   4.875   5.341   9.926  0.0800 -0.2615  0.0713
  658ERGO    C1 9647   5.008   5.322   9.570  0.0390 -0.1854  0.0523
  658ERGO    C2 9648   5.094   5.298   9.240 -0.0026  0.2409 -0.1470
  659ERGO   ROH 9649  13.234  10.649   6.585  0.2188 -0.1011 -0.0169
  659ERGO    R1 9650  13.349  10.554   6.826  0.0448 -0.1881  0.0337
  659ERGO    R2 9651  13.402  10.719   7.041  0.4061 -0.1489 -0.0778
  659ERGO    R3 9652  13.253  10.537   7.176  0.0303  0.2394  0.0557
  659ERGO    R4 9653  13.410  10.673   7.383  0.5098 -0.0974 -0.0726
  659ERGO    R5 9654  13.399  10.458   7.349 -0.0463 -0.0889 -0.0235
  659ERGO    C1 9655  13.275  10.475   7.710  0.2175  0.2972  0.0558
  659ERGO    C2 9656  13.250  10.458   7.995 -0.2392 -0.1614  0.2118
  660ERGO   ROH 9657   2.579  14.457  10.921 -0.0851 -0.1188 -0.0646
  660ERGO    R1 9658   2.702  14.447  10.666 -0.1120  0.1290 -0.0905
  660ERGO    R2 9659   2.685  14.225  10.502  0.3217  0.0747 -0.0761
  660ERGO    R3 9660   2.592  14.406  10.322 -0.1057 -0.1213 -0.0645
  660ERGO    R4 9661   2.751  14.217  10.163  0.3548  0.2588 -0.0747
  660ERGO    R5 9662   2.774  14.434  10.167 -0.1583  0.3220 -0.0570
  660ERGO    C1 9663   2.703  14.382   9.796 -0.0271  0.1820 -0.0630
  660ERGO    C2 9664   2.703  14.302   9.430 -0.0225 -0.1166 -0.2439
  661ERGO   ROH 9665   5.348  10.906  10.537 -0.3127  0.0721 -0.0165
  661ERGO    R1 9666   5.311  11.018  10.280 -0.2260  0.0210 -0.0520
  661ERGO    R2 9667   5.517  11.044  10.097 -0.1499  0.0395  0.0332
  661ERGO    R3 9668   5.347  10.907   9.935 -0.0473 -0.0284 -0.0179
  661ERGO    R4 9669   5.507  11.071   9.752 -0.0047 -0.0309  0.0230
  661ERGO    R5 9670   5.290  11.063   9.763 -0.0060 -0.0765 -0.0734
  661ERGO    C1 9671   5.342  10.958   9.400  0.1761 -0.1357 -0.0309
  661ERGO    C2 9672   5.439  11.046   9.146 -0.4104  0.0694 -0.1016
  662ERGO   ROH 9673   7.624   7.462  10.808  0.0377  0.0168  0.0063
  662ERGO    R1 9674   7.721   7.409  10.547  0.0309 -0.0310  0.0135
  662ERGO    R2 9675   7.572   7.273  10.358 -0.0193  0.0375  0.0050
  662ERGO    R3 9676   7.624   7.493  10.207  0.0945  0.0115  0.0054
  662ERGO    R4 9677   7.631   7.270  10.017 -0.0434  0.0062  0.0012
  662ERGO    R5 9678   7.787   7.419  10.048  0.0438 -0.0800 -0.0062
  662ERGO    C1 9679   7.714   7.475   9.677  0.0493 -0.0365 -0.0006
  662ERGO    C2 9680   7.700   7.525   9.393 -0.0430  0.0428  0.3528
  663ERGO   ROH 9681  13.745   4.389  10.805  0.3295  0.1952  0.0275
  663ERGO    R1 9682  13.739   4.296  10.538  0.0792  0.0451  0.0821
  663ERGO    R2 9683  13.504   4.267  10.396 -0.0406  0.1444  0.2555
  663ERGO    R3 9684  13.631   4.425  10.215 -0.0359 -0.0562  0.0795
  663ERGO    R4 9685  13.460   4.249  10.054 -0.1956 -0.0934  0.2852
  663ERGO    R5 9686  13.675   4.280  10.030 -0.1895 -0.2203  0.1688
  663ERGO    C1 9687  13.553   4.388   9.685 -0.2816 -0.4202  0.1373
  663ERGO    C2 9688  13.498   4.232   9.414  0.3703  0.1390 -0.1259
  664ERGO   ROH 9689   1.213   6.432  10.654 -0.1638  0.0437  0.0964
  664ERGO    R1 9690   1.204   6.317  10.395 -0.1706  0.0167  0.1091
  664ERGO    R2 9691   0.967   6.246  10.272 -0.1802  0.1202  0.0737
  664ERGO    R3 9692   1.062   6.405  10.072 -0.0643  0.0474  0.0690
  664ERGO    R4 9693   0.878   6.220   9.939 -0.0129  0.0109  0.0358
  664ERGO    R5 9694   1.086   6.257   9.885  0.0219 -0.0218  0.1302
  664ERGO    C1 9695   0.914   6.353   9.558  0.1933 -0.1210  0.0093
  664ERGO    C2 9696   0.903   6.302   9.158 -0.1853  0.1580  0.2476
  665ERGO   ROH 9697   3.159   7.020  10.576 -0.1035 -0.1498 -0.0026
  665ERGO    R1 9698   2.997   6.990  10.346 -0.0657  0.0887 -0.0629
  665ERGO    R2 9699   2.971   7.189  10.155  0.3849  0.0915 -0.1304
  665ERGO    R3 9700   3.048   6.990   9.985  0.0911 -0.1027 -0.0425
  665ERGO    R4 9701   2.946   7.202   9.810  0.2977 -0.0744 -0.1314
  665ERGO    R5 9702   2.883   6.993   9.812  0.0404  0.0000  0.0062
  665ERGO    C1 9703   3.003   7.023   9.451 -0.0290 -0.3533 -0.0495
  665ERGO    C2 9704   3.002   7.009   9.131  0.0714  0.2061 -0.2832
  666ERGO   ROH 9705  14.020   3.146  10.992 -0.1058  0.1009  0.2736
  666ERGO    R1 9706  14.050   2.981  10.764 -0.0887  0.0511  0.3113
  666ERGO    R2 9707  13.843   2.931  10.588 -0.0485  0.0955  0.2499
  666ERGO    R3 9708  14.021   3.020  10.403  0.0456  0.0004  0.2944
  666ERGO    R4 9709  13.798   2.914  10.246  0.1022 -0.0363  0.2359
  666ERGO    R5 9710  14.008   2.860  10.226  0.1060 -0.0697  0.3522
  666ERGO    C1 9711  13.938   2.988   9.873  0.2784 -0.2023  0.2693
  666ERGO    C2 9712  13.826   3.002   9.519  0.1101  0.0531  0.2615
  667ERGO   ROH 9713   7.213   0.260  11.033  0.1246 -0.0525 -0.0097
  667ERGO    R1 9714   7.290   0.424  10.816  0.1638 -0.1359 -0.0577
  667ERGO    R2 9715   7.519   0.377  10.668  0.1083 -0.2800 -0.0896
  667ERGO    R3 9716   7.345   0.380  10.459  0.0737 -0.2337 -0.0619
  667ERGO    R4 9717   7.604   0.443  10.339  0.0348 -0.0138 -0.0589
  667ERGO    R5 9718   7.421   0.558  10.319 -0.0361 -0.0936  0.0463
  667ERGO    C1 9719   7.491   0.483   9.952 -0.0405  0.1847 -0.0151
  667ERGO    C2 9720   7.505   0.636   9.654 -0.5658  0.1289  0.0287
  668ERGO   ROH 9721   8.233   1.648  10.829  0.1276  0.2916 -0.0426
  668ERGO    R1 9722   8.113   1.604  10.577  0.0717  0.2021  0.0001
  668ERGO    R2 9723   8.054   1.809  10.402  0.0661  0.1346 -0.0725
  668ERGO    R3 9724   8.200   1.659  10.228  0.0085  0.0423 -0.0431
  668ERGO    R4 9725   8.061   1.855  10.059  0.0467  0.0415 -0.0860
  668ERGO    R5 9726   8.059   1.638  10.035 -0.0188  0.0310 -0.0255
  668ERGO    C1 9727   8.202   1.741   9.697 -0.0187 -0.0993 -0.0664
  668ERGO    C2 9728   8.206   1.874   9.350  0.1214  0.2395  0.5522
  669ERGO   ROH 9729   6.787  15.709  10.711  0.1333 -0.3661 -0.0939
  669ERGO    R1 9730   6.658  15.693  10.460  0.0385 -0.3404 -0.0487
  669ERGO    R2 9731   6.642  15.908  10.288 -0.2731 -0.2371  0.0940
  669ERGO    R3 9732   6.754  15.734  10.111 -0.1545 -0.0037 -0.0641
  669ERGO    R4 9733   6.575  15.902   9.948 -0.2597  0.0138  0.0863
  669ERGO    R5 9734   6.576  15.684   9.957 -0.1121  0.0103 -0.1110
  669ERGO    C1 9735   6.641  15.736   9.585 -0.1405  0.3790 -0.0668
  669ERGO    C2 9736   6.615  15.834   9.232  0.4185  0.2268 -0.0294
  670ERGO   ROH 9737  10.755   2.792  11.276  0.3298  0.1217 -0.1550
  670ERGO    R1 9738  10.783   2.746  10.998  0.2349  0.2694 -0.1891
  670ERGO    R2 9739  10.604   2.592  10.854  0.3810  0.0548 -0.1353
  670ERGO    R3 9740  10.588   2.814  10.698 -0.0484  0.0920 -0.0522
  670ERGO    R4 9741  10.585   2.589  10.509  0.2356  0.1346 -0.1293
  670ERGO    R5 9742  10.720   2.760  10.506 -0.0365  0.3658 -0.1305
  670ERGO    C1 9743  10.559   2.796  10.162 -0.2523  0.2160 -0.0476
  670ERGO    C2 9744  10.542   2.785   9.861  0.1788  0.3664  0.0848
  671ERGO   ROH 9745   6.424  15.500  10.873 -0.0665 -0.2575  0.1770
  671ERGO    R1 9746   6.299  15.429  10.629 -0.0577 -0.0853  0.1218
  671ERGO    R2 9747   6.137  15.604  10.488  0.0458  0.0526  0.1763
  671ERGO    R3 9748   6.308  15.545  10.284  0.0501  0.0730  0.1770
  671ERGO    R4 9749   6.070  15.652  10.152  0.0101 -0.0237  0.1718
  671ERGO    R5 9750   6.167  15.462  10.110  0.0661  0.0010  0.1985
  671ERGO    C1 9751   6.191  15.625   9.766 -0.0066 -0.0489  0.1696
  671ERGO    C2 9752   6.105  15.634   9.410  0.0289 -0.1065  0.0876
  672ERGO   ROH 9753   4.477  15.462  10.665 -0.2550  0.0814  0.0334
  672ERGO    R1 9754   4.419  15.361  10.407 -0.2685  0.0270  0.0607
  672ERGO    R2 9755   4.209  15.456  10.253 -0.1156  0.1631 -0.0388
  672ERGO    R3 9756   4.405  15.494  10.068 -0.0283 -0.1130 -0.0115
  672ERGO    R4 9757   4.160  15.455   9.911 -0.1009  0.2306 -0.0434
  672ERGO    R5 9758   4.347  15.345   9.890 -0.2358 -0.0476 -0.0191
  672ERGO    C1 9759   4.315  15.490   9.538 -0.0104  0.0106 -0.0204
  672ERGO    C2 9760   4.380  15.617   9.177 -0.2879 -0.0492  0.2097
  673ERGO   ROH 9761  15.113  15.238  10.973 -0.2670  0.0644 -0.0748
  673ERGO    R1 9762  15.270  15.308  10.748 -0.1799  0.0032 -0.0339
  673ERGO    R2 9763  15.334  15.127  10.549 -0.1915 -0.0241 -0.0135
  673ERGO    R3 9764  15.226  15.317  10.387 -0.0788  0.0127 -0.0464
  673ERGO    R4 9765  15.382  15.145  10.208 -0.0213  0.0034  0.0110
  673ERGO    R5 9766  15.397  15.362  10.226  0.0086 -0.0009  0.0416
  673ERGO    C1 9767  15.308  15.333   9.856  0.1835  0.0541 -0.0057
  673ERGO    C2 9768  15.291  15.352   9.613  0.2006 -0.0656  0.3481
  674ERGO   ROH 9769  12.056   0.752  11.089  0.0492  0.0430 -0.0993
  674ERGO    R1 9770  12.061   0.919  10.861  0.1005  0.0763 -0.0742
  674ERGO    R2 9771  12.277   0.929  10.688  0.0380 -0.0866 -0.1637
  674ERGO    R3 9772  12.088   0.874  10.501 -0.0910  0.1102 -0.0939
  674ERGO    R4 9773  12.310   0.991  10.350  0.0764 -0.3258 -0.2057
  674ERGO    R5 9774  12.102   1.057  10.347  0.1741  0.0075 -0.1976
  674ERGO    C1 9775  12.152   0.976   9.977 -0.0223 -0.2803 -0.1647
  674ERGO    C2 9776  12.328   0.949   9.737  0.0344 -0.3015  0.0314
  675loPI    C1 9777   5.053   4.129   5.889 -0.3629  0.0946 -0.2104
  675loPI    C2 9778   5.048   3.730   5.872 -0.0864  0.0736  0.0931
  675loPI    C3 9779   5.014   3.945   5.537  0.1327 -0.2099 -0.1158
  675loPI   PO4 9780   5.046   4.277   6.147  0.0005  0.0257 -0.2817
  675loPI   GL1 9781   5.251   4.216   6.502 -0.1848  0.0004 -0.1622
  675loPI   GL2 9782   5.214   3.991   6.631 -0.2973 -0.0342  0.1062
  675loPI   C1A 9783   5.426   4.501   6.830  0.0680 -0.1428 -0.1288
  675loPI   C2A 9784   5.419   4.488   7.196  0.0805  0.0251  0.3142
  675loPI   C3A 9785   5.430   4.652   7.560  0.0685 -0.1614  0.1102
  675loPI   C4A 9786   5.302   4.650   7.972  0.2117  0.1331 -0.1108
  675loPI   C5A 9787   5.339   4.734   8.370  0.2059  0.0012  0.3085
  675loPI   C6A 9788   5.657   4.580   8.720  0.1384  0.0302 -0.0167
  675loPI   C1B 9789   5.288   4.027   7.032  0.2472 -0.0333  0.0273
  675loPI   C2B 9790   5.348   4.069   7.463 -0.3137  0.2534 -0.0130
  675loPI   C3B 9791   5.232   4.110   7.880  0.1566 -0.1802  0.0402
  675loPI   C4B 9792   5.303   4.201   8.218  0.0849 -0.1306 -0.0207
  676loPI    C1 9793  17.498   0.573   5.707 -0.1410  0.0407 -0.0735
  676loPI    C2 9794  17.459   0.970   5.738  0.0834  0.0438  0.2172
  676loPI    C3 9795  17.390   0.789   5.388 -0.1932  0.3157  0.1260
  676loPI   PO4 9796  17.426   0.512   5.975  0.3613  0.0224  0.0515
  676loPI   GL1 9797  17.316   0.457   6.381  0.0657  0.2209  0.0250
  676loPI   GL2 9798  17.531   0.688   6.555  0.1348  0.1704  0.0406
  676loPI   C1A 9799  17.119   0.302   6.885 -0.1216 -0.0445 -0.1514
  676loPI   C2A 9800  17.191   0.259   7.347  0.0327  0.1352 -0.2428
  676loPI   C3A 9801  17.250   0.228   7.799  0.2881  0.0747  0.0783
  676loPI   C4A 9802  17.175   0.521   8.165 -0.1210 -0.2641  0.1228
  676loPI   C5A 9803  17.217   0.528   8.553  0.1989  0.0611 -0.2193
  676loPI   C6A 9804  16.935   0.445   8.845 -0.2793  0.0779 -0.2597
  676loPI   C1B 9805  17.672   0.503   6.819 -0.2186 -0.0812 -0.0336
  676loPI   C2B 9806  17.682   0.504   7.263 -0.0620 -0.1219 -0.0322
  676loPI   C3B 9807  17.703   0.509   7.666  0.0731 -0.1792 -0.3894
  676loPI   C4B 9808  17.733   0.482   8.152 -0.0307 -0.0237 -0.1920
  677loPI    C1 9809   7.881   7.191   5.816  0.0511  0.1189 -0.0298
  677loPI    C2 9810   7.546   6.988   5.897  0.0631  0.0806 -0.0768
  677loPI    C3 9811   7.664   7.037   5.518  0.1791 -0.0167 -0.0539
  677loPI   PO4 9812   7.934   7.242   6.039  0.1268  0.2002 -0.0114
  677loPI   GL1 9813   7.824   7.207   6.408 -0.2060  0.0651  0.2790
  677loPI   GL2 9814   7.556   7.502   6.274 -0.1473 -0.0157 -0.0573
  677loPI   C1A 9815   7.734   7.321   6.823 -0.0007 -0.1121 -0.2003
  677loPI   C2A 9816   7.732   7.348   7.219 -0.0563  0.2054  0.1097
  677loPI   C3A 9817   7.596   7.363   7.602  0.0718  0.1497  0.2290
  677loPI   C4A 9818   7.583   7.352   8.080 -0.3485  0.2100  0.1239
  677loPI   C5A 9819   7.754   7.156   8.434 -0.3413  0.0456  0.3663
  677loPI   C6A 9820   7.761   7.399   8.848  0.0976  0.2266  0.0925
  677loPI   C1B 9821   7.713   7.868   6.599  0.1305 -0.0581 -0.0274
  677loPI   C2B 9822   7.711   7.872   7.015 -0.0006  0.0519 -0.0805
  677loPI   C3B 9823   7.804   7.829   7.439  0.0763 -0.2192 -0.0395
  677loPI   C4B 9824   7.703   7.830   7.898  0.2727 -0.0736  0.1789
  678loPI    C1 9825   1.583   0.152   5.731  0.1867  0.0766 -0.0614
  678loPI    C2 9826   1.610  -0.244   5.681  0.1710  0.0604  0.0540
  678loPI    C3 9827   1.922  -0.010   5.592  0.1229  0.0399 -0.1756
  678loPI   PO4 9828   1.420   0.128   5.922 -0.1176  0.1405 -0.3729
  678loPI   GL1 9829   1.457   0.060   6.287 -0.0431  0.0064  0.1269
  678loPI   GL2 9830   1.179   0.063   6.493  0.2171 -0.2567 -0.0773
  678loPI   C1A 9831   1.618   0.207   6.582 -0.0788 -0.1799 -0.1659
  678loPI   C2A 9832   1.951   0.242   6.901  0.0115  0.0113 -0.0114
  678loPI   C3A 9833   1.949   0.271   7.438 -0.1974  0.1185  0.1153
  678loPI   C4A 9834   1.937   0.332   7.922  0.0450 -0.5277 -0.2046
  678loPI   C5A 9835   1.945   0.525   8.326 -0.0041 -0.1820 -0.2342
  678loPI   C6A 9836   1.969   0.716   8.766 -0.0329 -0.0588  0.2147
  678loPI   C1B 9837   1.404   0.083   6.992  0.1694 -0.1126  0.1925
  678loPI   C2B 9838   1.427   0.175   7.478  0.1141 -0.0251 -0.3690
  678loPI   C3B 9839   1.413   0.309   7.861  0.1138  0.2655 -0.0459
  678loPI   C4B 9840   1.514   0.224   8.238  0.3827  0.1849 -0.1411
  679loPI    C1 9841  14.837   9.479   6.106  0.0156 -0.1023 -0.0288
  679loPI    C2 9842  14.736   9.503   5.720 -0.3041 -0.0170  0.0578
  679loPI    C3 9843  15.116   9.559   5.830 -0.2279  0.0570 -0.2332
  679loPI   PO4 9844  14.885   9.246   6.221  0.1711 -0.1397  0.2212
  679loPI   GL1 9845  14.690   9.020   6.665 -0.3021  0.1537 -0.1984
  679loPI   GL2 9846  14.483   9.056   6.726 -0.1204  0.0656  0.2063
  679loPI   C1A 9847  14.895   9.191   7.071 -0.2686 -0.1113 -0.4029
  679loPI   C2A 9848  14.924   9.234   7.515 -0.2643 -0.2683  0.0150
  679loPI   C3A 9849  14.789   9.219   7.968  0.1234  0.1841  0.0750
  679loPI   C4A 9850  14.845   9.054   8.422 -0.0783  0.3482  0.0123
  679loPI   C5A 9851  14.675   9.141   8.805  0.0817  0.0705 -0.3767
  679loPI   C6A 9852  14.488   9.284   9.178 -0.0590  0.2182  0.1919
  679loPI   C1B 9853  14.330   9.059   7.126  0.0126  0.0704  0.0163
  679loPI   C2B 9854  14.331   8.944   7.551  0.1564  0.2863  0.1801
  679loPI   C3B 9855  14.327   8.972   8.033 -0.0535  0.0754 -0.0236
  679loPI   C4B 9856  14.368   8.888   8.477 -0.0459 -0.1358  0.3155
  680loPI    C1 9857  12.806  17.484   5.955 -0.0352  0.1430 -0.0953
  680loPI    C2 9858  12.756  17.881   5.945  0.0175  0.1511 -0.0445
  680loPI    C3 9859  12.692  17.663   5.615  0.0372  0.2076 -0.0859
  680loPI   PO4 9860  12.868  17.456   6.264  0.1144 -0.1427  0.1156
  680loPI   GL1 9861  13.207  17.563   6.600 -0.0640 -0.1247  0.1637
  680loPI   GL2 9862  12.944  17.826   6.713  0.2969  0.3147  0.1352
  680loPI   C1A 9863  13.446  17.731   6.991  0.3796 -0.1284  0.1001
  680loPI   C2A 9864  13.450  17.834   7.375  0.0523  0.0863 -0.0980
  680loPI   C3A 9865  13.364  17.780   7.853  0.1524  0.0560  0.0570
  680loPI   C4A 9866  13.409  17.990   8.271  0.2594  0.1767 -0.3065
  680loPI   C5A 9867  13.236  17.625   8.507  0.1124 -0.2675  0.0152
  680loPI   C6A 9868  13.282  17.376   8.875  0.3776  0.2221  0.1337
  680loPI   C1B 9869  12.631  17.881   7.046 -0.2104  0.0842 -0.0841
  680loPI   C2B 9870  12.588  17.968   7.404 -0.0596  0.2186  0.0581
  680loPI   C3B 9871  12.585  18.076   7.843  0.1296 -0.0290  0.3201
  680loPI   C4B 9872  12.440  18.004   8.221  0.0426  0.1119  0.1549
  681loPI    C1 9873   2.169  14.815   6.149 -0.2353 -0.1453 -0.0576
  681loPI    C2 9874   2.239  14.751   5.761 -0.1773  0.1503 -0.0985
  681loPI    C3 9875   2.080  15.098   5.881 -0.1676  0.0726  0.1454
  681loPI   PO4 9876   2.035  14.573   6.311 -0.1991 -0.0646  0.0813
  681loPI   GL1 9877   2.169  14.564   6.719  0.0137  0.3796 -0.0250
  681loPI   GL2 9878   1.895  14.274   6.678  0.3861  0.0231  0.0855
  681loPI   C1A 9879   2.422  14.639   6.973  0.0543 -0.1573 -0.0198
  681loPI   C2A 9880   2.364  14.574   7.412 -0.3155 -0.0051  0.0553
  681loPI   C3A 9881   2.430  14.532   7.841  0.0939 -0.1191  0.0920
  681loPI   C4A 9882   2.436  14.822   8.181  0.0412  0.0536 -0.0342
  681loPI   C5A 9883   2.415  14.858   8.566  0.2298  0.1200 -0.1189
  681loPI   C6A 9884   2.681  15.116   8.951  0.0943  0.0755  0.0161
  681loPI   C1B 9885   1.937  14.320   7.090 -0.0913 -0.0252  0.0265
  681loPI   C2B 9886   1.954  14.314   7.525  0.2542  0.3792  0.0849
  681loPI   C3B 9887   1.918  14.072   7.893  0.3554  0.0058 -0.1521
  681loPI   C4B 9888   1.671  13.843   8.207 -0.3355 -0.4317 -0.1417
  682loPI    C1 9889   8.362  17.546   5.954 -0.0028  0.1231 -0.0135
  682loPI    C2 9890   8.488  17.208   5.780  0.0172  0.0419  0.1568
  682loPI    C3 9891   8.555  17.561   5.604 -0.0568 -0.0465 -0.0518
  682loPI   PO4 9892   8.362  17.436   6.225 -0.0946 -0.0745 -0.1384
  682loPI   GL1 9893   8.302  17.464   6.644 -0.0019 -0.1492  0.0221
  682loPI   GL2 9894   8.674  17.601   6.576  0.1877  0.1238  0.1830
  682loPI   C1A 9895   8.326  17.452   7.134  0.0771 -0.0632 -0.1179
  682loPI   C2A 9896   8.210  17.524   7.563 -0.0987  0.0514 -0.0786
  682loPI   C3A 9897   8.197  17.536   8.016  0.3683  0.0369 -0.1295
  682loPI   C4A 9898   8.428  17.427   8.408  0.0471 -0.0427  0.1219
  682loPI   C5A 9899   8.541  17.182   8.687  0.1569 -0.4178  0.3102
  682loPI   C6A 9900   8.532  17.012   9.102  0.2046 -0.0295 -0.1403
  682loPI   C1B 9901   8.693  17.697   6.997 -0.0878 -0.0683 -0.1244
  682loPI   C2B 9902   8.690  17.686   7.402  0.0522  0.1884 -0.0565
  682loPI   C3B 9903   8.681  17.676   7.807  0.0012 -0.2226 -0.5333
  682loPI   C4B 9904   8.844  17.685   8.243  0.3508 -0.0653 -0.1373
  683loPI    C1 9905   7.669   5.306   5.752  0.4590  0.0340 -0.0871
  683loPI    C2 9906   7.507   4.971   5.605  0.1587  0.0639  0.1651
  683loPI    C3 9907   7.618   5.265   5.358  0.0515 -0.0571 -0.0294
  683loPI   PO4 9908   7.601   5.266   5.952 -0.0508 -0.2532  0.4542
  683loPI   GL1 9909   7.454   5.275   6.355  0.1390 -0.1914  0.0578
  683loPI   GL2 9910   7.042   5.226   6.276 -0.1366 -0.2668 -0.1498
  683loPI   C1A 9911   7.445   5.330   6.802  0.0857 -0.0385  0.0438
  683loPI   C2A 9912   7.306   5.230   7.226 -0.1664  0.1715  0.1504
  683loPI   C3A 9913   7.340   5.321   7.640  0.0111  0.1071  0.1615
  683loPI   C4A 9914   7.256   5.321   8.092 -0.2595  0.0301  0.2514
  683loPI   C5A 9915   7.407   5.186   8.503 -0.0170  0.2249 -0.1812
  683loPI   C6A 9916   7.569   5.309   8.956  0.1048 -0.0536  0.2604
  683loPI   C1B 9917   6.961   5.117   6.686  0.0606  0.0290 -0.0432
  683loPI   C2B 9918   6.798   5.074   7.131  0.0038  0.3269  0.0847
  683loPI   C3B 9919   6.808   5.129   7.514  0.1999 -0.0091 -0.0248
  683loPI   C4B 9920   6.841   5.068   7.970  0.0850 -0.1126  0.0514
  684loPI    C1 9921  11.113   5.028   5.833  0.0626  0.1814 -0.0886
  684loPI    C2 9922  10.881   5.342   5.745 -0.0258  0.1594  0.0621
  684loPI    C3 9923  10.765   4.973   5.644  0.0888  0.1756 -0.1356
  684loPI   PO4 9924  11.159   5.073   6.047 -0.0274 -0.0420  0.3899
  684loPI   GL1 9925  11.048   5.183   6.448 -0.0095 -0.1032  0.0337
  684loPI   GL2 9926  11.159   5.634   6.596 -0.1596  0.0973 -0.0111
  684loPI   C1A 9927  11.000   5.187   6.951  0.2050 -0.1278 -0.1265
  684loPI   C2A 9928  10.933   5.237   7.328 -0.0302 -0.1991 -0.0823
  684loPI   C3A 9929  10.996   5.314   7.746 -0.0153  0.0521 -0.2293
  684loPI   C4A 9930  10.989   5.268   8.186 -0.2522  0.2373 -0.2610
  684loPI   C5A 9931  10.880   5.417   8.521 -0.4964 -0.2614  0.2318
  684loPI   C6A 9932  10.694   5.211   8.971 -0.2514  0.2831  0.1091
  684loPI   C1B 9933  11.084   5.666   7.121 -0.3037  0.0370  0.3167
  684loPI   C2B 9934  10.980   5.757   7.570 -0.4157 -0.1242 -0.0664
  684loPI   C3B 9935  11.039   5.704   8.065 -0.5357  0.1598 -0.0202
  684loPI   C4B 9936  11.252   5.817   8.439 -0.0637  0.0455 -0.1387
  685loPI    C1 9937  11.596  15.250   6.386 -0.0413  0.0598  0.1646
  685loPI    C2 9938  11.459  14.879   6.325 -0.0418  0.0407  0.2807
  685loPI    C3 9939  11.389  15.165   6.055  0.2611 -0.1262  0.0189
  685loPI   PO4 9940  11.824  15.267   6.482 -0.0203  0.3255  0.1203
  685loPI   GL1 9941  11.958  15.378   6.906  0.0680 -0.0768 -0.2845
  685loPI   GL2 9942  11.953  15.654   6.952  0.0051 -0.2624  0.0288
  685loPI   C1A 9943  11.753  15.162   7.232  0.1121  0.1444  0.1321
  685loPI   C2A 9944  11.680  15.270   7.592 -0.2180  0.0761  0.0152
  685loPI   C3A 9945  11.583  15.294   8.015  0.1980 -0.1304  0.0833
  685loPI   C4A 9946  11.642  15.523   8.280 -0.0484 -0.0417  0.2014
  685loPI   C5A 9947  11.659  15.820   8.596  0.1081  0.0472  0.4136
  685loPI   C6A 9948  11.676  16.299   8.490  0.0775  0.0426 -0.0812
  685loPI   C1B 9949  11.822  15.738   7.347 -0.1584  0.1239 -0.0475
  685loPI   C2B 9950  11.813  15.818   7.826  0.2091 -0.0279  0.1374
  685loPI   C3B 9951  11.466  15.920   8.115  0.1463  0.1401 -0.3035
  685loPI   C4B 9952  11.126  16.091   8.018  0.0734 -0.0569  0.1231
  686loPI    C1 9953   5.832   3.604   5.679  0.0050  0.1120 -0.0440
  686loPI    C2 9954   5.480   3.719   5.527 -0.0070  0.0035 -0.0993
  686loPI    C3 9955   5.786   3.636   5.283 -0.0475 -0.2410 -0.0699
  686loPI   PO4 9956   5.757   3.535   5.951  0.1867 -0.2358  0.1213
  686loPI   GL1 9957   5.684   3.465   6.355 -0.1364  0.1367 -0.2900
  686loPI   GL2 9958   5.971   3.185   6.331 -0.2113 -0.4607  0.3975
  686loPI   C1A 9959   5.644   3.702   6.780 -0.0363 -0.1154  0.1885
  686loPI   C2A 9960   5.692   3.761   7.261 -0.0555  0.0837 -0.0618
  686loPI   C3A 9961   5.695   3.814   7.776 -0.1120 -0.0279  0.1932
  686loPI   C4A 9962   5.704   3.815   8.143  0.0816 -0.0027 -0.2918
  686loPI   C5A 9963   5.523   3.488   8.463  0.0204 -0.0230 -0.1664
  686loPI   C6A 9964   5.566   3.566   8.956  0.0078  0.0008  0.0365
  686loPI   C1B 9965   6.059   3.406   6.748 -0.3127 -0.0305 -0.0039
  686loPI   C2B 9966   6.043   3.436   7.232  0.0228  0.0160 -0.1264
  686loPI   C3B 9967   6.148   3.383   7.745  0.0644  0.1617 -0.0956
  686loPI   C4B 9968   5.878   3.310   8.141 -0.0204 -0.1849  0.1019
  687loPI    C1 9969  16.076   9.301   5.553 -0.3406 -0.0378 -0.0859
  687loPI    C2 9970  16.186   9.053   5.259 -0.2481  0.1442 -0.2068
  687loPI    C3 9971  15.810   9.190   5.275 -0.4022 -0.2910  0.0711
  687loPI   PO4 9972  16.109   9.253   5.787 -0.2524 -0.0290 -0.2170
  687loPI   GL1 9973  16.252   9.413   6.311  0.1474 -0.0718  0.2613
  687loPI   GL2 9974  16.505   9.630   6.209 -0.2306 -0.2251  0.0579
  687loPI   C1A 9975  16.240   9.471   6.746  0.1619 -0.4139  0.1997
  687loPI   C2A 9976  16.286   9.276   7.157  0.0750 -0.1774  0.0059
  687loPI   C3A 9977  16.173   9.280   7.575 -0.1095 -0.3642 -0.2959
  687loPI   C4A 9978  16.249   9.214   8.027  0.0737  0.0934 -0.0529
  687loPI   C5A 9979  16.668   9.249   8.314  0.1974 -0.1127  0.1316
  687loPI   C6A 9980  17.060   9.183   8.568 -0.0358 -0.5348  0.1006
  687loPI   C1B 9981  16.690   9.546   6.624 -0.0928  0.1712  0.0146
  687loPI   C2B 9982  16.866   9.490   7.059  0.2488 -0.0109  0.0558
  687loPI   C3B 9983  16.820   9.559   7.459  0.4932 -0.0474 -0.0204
  687loPI   C4B 9984  16.759   9.426   7.859 -0.0181 -0.0394 -0.3154
  688loPI    C1 9985   3.106   1.512   5.701 -0.1291  0.0319  0.2483
  688loPI    C2 9986   2.837   1.312   5.483  0.0056 -0.1821  0.2754
  688loPI    C3 9987   3.228   1.274   5.404  0.0257  0.2304  0.1496
  688loPI   PO4 9988   2.947   1.499   5.919 -0.3589  0.0867 -0.0776
  688loPI   GL1 9989   2.904   1.557   6.356 -0.0666 -0.1970  0.2687
  688loPI   GL2 9990   2.647   1.349   6.418 -0.1265 -0.0960  0.0160
  688loPI   C1A 9991   3.017   1.638   6.745  0.1856  0.0356  0.4071
  688loPI   C2A 9992   3.005   1.658   7.201 -0.0370 -0.1310 -0.0776
  688loPI   C3A 9993   3.144   1.613   7.556 -0.1307 -0.0030  0.1605
  688loPI   C4A 9994   3.046   1.627   7.995  0.2040  0.1482  0.2051
  688loPI   C5A 9995   3.107   1.532   8.386 -0.3247  0.1680  0.0967
  688loPI   C6A 9996   3.166   1.827   8.731  0.0303 -0.1950  0.2242
  688loPI   C1B 9997   2.559   1.386   6.814 -0.1428  0.0616 -0.0457
  688loPI   C2B 9998   2.547   1.502   7.136 -0.1346  0.0464 -0.2196
  688loPI   C3B 9999   2.607   1.519   7.514  0.0443 -0.1626  0.3603
  688loPI   C4B10000   2.616   1.530   7.858  0.0332 -0.0866  0.2289
  689loPI    C110001  12.866  12.669   6.144  0.0606 -0.1638 -0.1513
  689loPI    C210002  12.687  13.026   6.122 -0.1398 -0.2205  0.3995
  689loPI    C310003  12.601  12.743   5.853  0.0579  0.1529 -0.0724
  689loPI   PO410004  12.840  12.629   6.418 -0.3525 -0.1201 -0.1136
  689loPI   GL110005  12.901  12.280   6.569 -0.1147 -0.2512 -0.0529
  689loPI   GL210006  13.070  12.471   6.788  0.1488 -0.3728 -0.0155
  689loPI   C1A10007  12.675  12.189   6.900  0.1165  0.1089 -0.1492
  689loPI   C2A10008  12.612  12.225   7.336  0.0121  0.0642  0.1196
  689loPI   C3A10009  12.564  12.244   7.771 -0.1666  0.1253  0.0538
  689loPI   C4A10010  12.554  12.343   8.163 -0.0474 -0.0751 -0.1012
  689loPI   C5A10011  12.779  12.315   8.560  0.1765  0.0140 -0.0973
  689loPI   C6A10012  13.004  12.205   8.954  0.1487  0.0364 -0.1787
  689loPI   C1B10013  13.066  12.497   7.238 -0.1079 -0.0108  0.1882
  689loPI   C2B10014  13.052  12.366   7.711  0.3476  0.0258 -0.0881
  689loPI   C3B10015  13.081  12.327   8.136  0.0731  0.0060 -0.0906
  689loPI   C4B10016  13.044  11.932   8.460  0.0416  0.4308  0.0535
  690loPI    C110017   1.667   9.440   5.324  0.2469  0.4127 -0.1892
  690loPI    C210018   1.969   9.207   5.205  0.0053  0.0012 -0.0169
  690loPI    C310019   1.632   9.223   4.990 -0.0900 -0.0391  0.1280
  690loPI   PO410020   1.676   9.382   5.614 -0.0947  0.0798  0.0763
  690loPI   GL110021   1.563   9.317   6.023 -0.2328  0.2491  0.2187
  690loPI   GL210022   1.330   9.090   6.060  0.1234  0.0654 -0.0150
  690loPI   C1A10023   1.719   9.477   6.440 -0.0259 -0.2402 -0.1927
  690loPI   C2A10024   1.656   9.455   6.873  0.0618 -0.3606  0.0560
  690loPI   C3A10025   1.657   9.465   7.262 -0.1557  0.0538  0.2079
  690loPI   C4A10026   1.573   9.414   7.680  0.0966 -0.1467  0.1899
  690loPI   C5A10027   1.558   9.418   8.099 -0.1707  0.0074 -0.4045
  690loPI   C6A10028   1.263   9.335   8.393 -0.0684 -0.0802  0.4333
  690loPI   C1B10029   1.282   9.186   6.474 -0.1972 -0.3804  0.1339
  690loPI   C2B10030   1.145   9.334   6.906  0.2964 -0.4296 -0.2296
  690loPI   C3B10031   1.160   9.295   7.306 -0.0729 -0.2297 -0.1795
  690loPI   C4B10032   1.073   9.240   7.813  0.1075  0.1904  0.0599
  691loPI    C110033  14.314  11.395   5.773 -0.1230  0.2836 -0.1120
  691loPI    C210034  14.628  11.413   5.526 -0.0579  0.0580 -0.0476
  691loPI    C310035  14.329  11.159   5.450 -0.1080  0.0951  0.0249
  691loPI   PO410036  14.516  11.517   6.004  0.0548  0.2771 -0.3786
  691loPI   GL110037  14.728  11.314   6.456  0.5268 -0.0982 -0.4862
  691loPI   GL210038  14.468  11.315   6.591 -0.2824  0.2897 -0.0632
  691loPI   C1A10039  14.696  11.668   6.789 -0.0135 -0.3976  0.1685
  691loPI   C2A10040  14.766  11.668   7.217  0.2217  0.2197  0.0669
  691loPI   C3A10041  14.818  11.603   7.717 -0.0783 -0.2860  0.0206
  691loPI   C4A10042  14.876  11.520   8.144 -0.1471 -0.5320 -0.1031
  691loPI   C5A10043  14.869  11.651   8.580 -0.0063  0.6218  0.0449
  691loPI   C6A10044  14.660  11.511   8.950 -0.3908  0.1118  0.1238
  691loPI   C1B10045  14.327  11.407   7.066  0.1342 -0.0053  0.0487
  691loPI   C2B10046  14.251  11.423   7.510  0.0280  0.0114  0.0835
  691loPI   C3B10047  14.309  11.394   7.984 -0.1320 -0.4178  0.0286
  691loPI   C4B10048  14.399  11.354   8.463  0.0921 -0.2016 -0.1424
  692loPI    C110049   6.596   5.169   5.662  0.1281  0.0373 -0.2150
  692loPI    C210050   6.281   5.415   5.680 -0.0124 -0.1621  0.1626
  692loPI    C310051   6.347   5.198   5.351 -0.1211  0.0723 -0.0159
  692loPI   PO410052   6.702   5.067   5.953 -0.2821 -0.0832 -0.2396
  692loPI   GL110053   6.567   5.031   6.408 -0.0810  0.0651  0.3267
  692loPI   GL210054   6.345   4.830   6.447 -0.1116  0.0767 -0.1979
  692loPI   C1A10055   6.529   5.356   6.724 -0.1467 -0.2743  0.1508
  692loPI   C2A10056   6.480   5.405   7.139 -0.0861 -0.3393  0.1156
  692loPI   C3A10057   6.460   5.476   7.528  0.2355 -0.2834 -0.0910
  692loPI   C4A10058   6.378   5.572   7.979 -0.0935  0.1895  0.0242
  692loPI   C5A10059   6.306   5.514   8.416 -0.0974 -0.1026  0.1069
  692loPI   C6A10060   6.426   5.217   8.744  0.2980 -0.3423 -0.1438
  692loPI   C1B10061   6.397   4.915   6.902  0.2278 -0.0730 -0.1847
  692loPI   C2B10062   6.367   4.921   7.370 -0.3393  0.3442  0.0355
  692loPI   C3B10063   6.315   5.010   7.789 -0.2025 -0.1099  0.1904
  692loPI   C4B10064   6.360   5.095   8.172 -0.1709  0.1852  0.0217
  693loPI    C110065  16.971   5.545   5.634 -0.1825 -0.1451  0.0499
  693loPI    C210066  17.207   5.228   5.568  0.0012 -0.0194  0.0952
  693loPI    C310067  17.134   5.488   5.273 -0.1821 -0.1240  0.0468
  693loPI   PO410068  17.038   5.607   5.849 -0.0673  0.0027  0.0538
  693loPI   GL110069  16.889   5.498   6.233  0.0981  0.4905  0.2194
  693loPI   GL210070  17.189   5.636   6.449 -0.0156  0.1181 -0.2777
  693loPI   C1A10071  16.732   5.481   6.607  0.3404 -0.5100  0.3938
  693loPI   C2A10072  16.598   5.494   7.026  0.1721 -0.0976  0.0603
  693loPI   C3A10073  16.509   5.432   7.454  0.1971 -0.0975  0.0035
  693loPI   C4A10074  16.517   5.525   7.974 -0.0379 -0.1783 -0.0155
  693loPI   C5A10075  16.567   5.557   8.459 -0.0513  0.1307  0.2768
  693loPI   C6A10076  16.558   5.592   8.864 -0.0642 -0.1778  0.3185
  693loPI   C1B10077  17.138   5.686   6.896 -0.0700 -0.1035 -0.2877
  693loPI   C2B10078  17.045   5.647   7.292  0.0332  0.2546 -0.2337
  693loPI   C3B10079  17.092   5.580   7.839 -0.0318 -0.1570  0.0999
  693loPI   C4B10080  16.965   5.780   8.173  0.0669 -0.1716  0.0106
  694loPI    C110081   9.854   7.187   5.774  0.0120 -0.0436  0.0141
  694loPI    C210082   9.716   7.528   5.617 -0.2314 -0.1907 -0.0976
  694loPI    C310083   9.861   7.242   5.378  0.2219 -0.0624  0.0145
  694loPI   PO410084   9.718   7.160   6.007  0.0747 -0.3527  0.2178
  694loPI   GL110085   9.569   7.390   6.298 -0.0005  0.0280 -0.1137
  694loPI   GL210086   9.522   7.591   6.415 -0.0170  0.5808  0.0831
  694loPI   C1A10087   9.547   7.233   6.787 -0.3671  0.0206 -0.2361
  694loPI   C2A10088   9.476   7.266   7.250  0.1488 -0.0913 -0.1938
  694loPI   C3A10089   9.425   7.201   7.736  0.0409  0.1110 -0.0686
  694loPI   C4A10090   9.355   6.984   8.116  0.1929 -0.1343  0.3699
  694loPI   C5A10091   9.211   6.912   8.593 -0.1168  0.1613 -0.2240
  694loPI   C6A10092   8.939   7.011   8.874  0.0122  0.0613 -0.0546
  694loPI   C1B10093   9.647   7.767   6.799  0.0139 -0.0113  0.0136
  694loPI   C2B10094   9.574   7.759   7.299  0.0062  0.2421 -0.0213
  694loPI   C3B10095   9.488   7.660   7.615 -0.1258  0.1914  0.1051
  694loPI   C4B10096   9.410   7.565   8.045 -0.2539  0.0411  0.0911
  695loPI    C110097   2.558   0.659   5.828  0.1132 -0.0682 -0.1835
  695loPI    C210098   2.249   0.541   5.603  0.0524 -0.0457 -0.1119
  695loPI    C310099   2.433   0.888   5.525 -0.1729  0.1178  0.0696
  695loPI   PO410100   2.447   0.654   6.075 -0.0002 -0.1271 -0.1307
  695loPI   GL110101   2.589   0.808   6.443  0.1614  0.1087  0.1157
  695loPI   GL210102   2.330   0.870   6.707 -0.0661  0.0017  0.0209
  695loPI   C1A10103   2.836   0.591   6.854 -0.0050  0.0339  0.1178
  695loPI   C2A10104   2.819   0.571   7.286 -0.0946  0.0480 -0.3110
  695loPI   C3A10105   2.897   0.632   7.757  0.1590 -0.1813 -0.1416
  695loPI   C4A10106   2.808   0.718   8.248  0.0280  0.2488  0.3582
  695loPI   C5A10107   2.777   0.765   8.711 -0.2170 -0.1135 -0.2064
  695loPI   C6A10108   3.131   0.751   8.985 -0.1031 -0.2691  0.0358
  695loPI   C1B10109   2.652   0.969   7.044  0.2504 -0.3158 -0.2068
  695loPI   C2B10110   2.548   0.908   7.472 -0.1101 -0.0520  0.3858
  695loPI   C3B10111   2.513   1.048   7.890 -0.2099  0.1740  0.1567
  695loPI   C4B10112   2.410   1.030   8.269  0.1959 -0.1235  0.0245
  696loPI    C110113  15.847   3.568   5.941  0.0547  0.1589  0.0722
  696loPI    C210114  15.498   3.644   5.763  0.0625  0.0523  0.0107
  696loPI    C310115  15.839   3.757   5.588  0.0646  0.0484  0.0124
  696loPI   PO410116  15.824   3.608   6.114 -0.1855  0.1549 -0.0764
  696loPI   GL110117  15.977   3.483   6.546  0.2912  0.0319  0.1681
  696loPI   GL210118  15.626   3.411   6.545 -0.2934  0.0509 -0.2375
  696loPI   C1A10119  16.154   3.437   6.955  0.0049 -0.2384 -0.2310
  696loPI   C2A10120  16.120   3.394   7.346  0.0241 -0.3368  0.1531
  696loPI   C3A10121  16.244   3.428   7.725  0.0593 -0.1316 -0.4611
  696loPI   C4A10122  16.222   3.484   8.202 -0.4039  0.1141 -0.3271
  696loPI   C5A10123  16.363   3.456   8.538 -0.1605 -0.1943  0.0903
  696loPI   C6A10124  16.414   3.238   8.907 -0.2331  0.3740 -0.0832
  696loPI   C1B10125  15.690   3.271   6.986  0.0470 -0.1857  0.0285
  696loPI   C2B10126  15.675   3.213   7.420 -0.0166  0.4486  0.0635
  696loPI   C3B10127  15.758   3.191   7.833  0.1435  0.0709 -0.0389
  696loPI   C4B10128  15.776   3.338   8.300  0.2016 -0.0293 -0.1927
  697loPI    C110129  12.403  16.690   6.300 -0.0344 -0.1018 -0.1702
  697loPI    C210130  12.157  16.985   6.188  0.1293  0.0728 -0.0761
  697loPI    C310131  12.226  16.677   5.942 -0.1620  0.0345 -0.1131
  697loPI   PO410132  12.481  16.875   6.542 -0.3175  0.1121  0.1480
  697loPI   GL110133  12.367  16.765   6.983  0.0850  0.0434  0.0796
  697loPI   GL210134  12.355  16.333   6.890  0.0230 -0.1028 -0.0600
  697loPI   C1A10135  12.387  16.893   7.351  0.0432  0.0445 -0.1321
  697loPI   C2A10136  12.275  16.933   7.748 -0.3372 -0.1183 -0.0874
  697loPI   C3A10137  12.123  17.018   8.259 -0.2059  0.4309 -0.2018
  697loPI   C4A10138  11.836  16.847   8.545 -0.1747  0.1957 -0.2751
  697loPI   C5A10139  12.065  16.600   8.904 -0.0696 -0.1300  0.1927
  697loPI   C6A10140  12.240  16.267   9.164 -0.0469  0.3559  0.0753
  697loPI   C1B10141  12.508  16.363   7.260  0.2432  0.1020  0.0427
  697loPI   C2B10142  12.670  16.582   7.716 -0.0987 -0.1301 -0.1009
  697loPI   C3B10143  12.701  16.770   8.195  0.4374 -0.0045 -0.0348
  697loPI   C4B10144  12.516  16.914   8.600  0.1759 -0.1061 -0.3568
  698loPI    C110145   0.042  16.667   5.940  0.1649 -0.0384 -0.0719
  698loPI    C210146  -0.286  16.808   5.758  0.0073 -0.2871  0.0140
  698loPI    C310147  -0.059  16.533   5.577  0.2223 -0.0502 -0.0836
  698loPI   PO410148   0.127  16.955   6.098  0.1526  0.1227  0.2460
  698loPI   GL110149   0.246  17.214   6.412 -0.1145 -0.0876  0.0896
  698loPI   GL210150   0.292  17.425   6.223  0.1250  0.4493 -0.1381
  698loPI   C1A10151   0.368  16.999   6.809  0.1358  0.1544  0.1751
  698loPI   C2A10152   0.669  17.020   7.154 -0.4750  0.1470  0.1631
  698loPI   C3A10153   0.640  17.025   7.592 -0.0274  0.2594  0.1203
  698loPI   C4A10154   0.634  17.321   7.925  0.1496  0.2758 -0.1159
  698loPI   C5A10155   0.436  17.523   8.286 -0.3485 -0.1350 -0.1735
  698loPI   C6A10156   0.355  17.673   8.697 -0.1469 -0.1091  0.0584
  698loPI   C1B10157   0.014  17.571   6.656 -0.3303 -0.1972 -0.1976
  698loPI   C2B10158   0.056  17.484   7.067  0.1784 -0.2139 -0.1624
  698loPI   C3B10159   0.048  17.572   7.460  0.0002  0.1551 -0.1694
  698loPI   C4B10160   0.142  17.581   7.803 -0.2743 -0.1597 -0.0532
  699loPI    C110161  10.349   5.356   5.632 -0.0235 -0.1726  0.2031
  699loPI    C210162  10.072   5.460   5.363  0.1844  0.1597  0.1117
  699loPI    C310163  10.330   5.167   5.280  0.0858  0.0886  0.0540
  699loPI   PO410164  10.255   5.390   5.877 -0.3426  0.3134  0.0695
  699loPI   GL110165  10.227   5.500   6.226 -0.0268  0.3646 -0.1022
  699loPI   GL210166  10.060   5.267   6.416  0.1147  0.0049 -0.0540
  699loPI   C1A10167  10.212   5.779   6.553  0.1841 -0.0080  0.0610
  699loPI   C2A10168  10.131   5.731   7.029 -0.0553 -0.2004  0.2981
  699loPI   C3A10169  10.154   5.945   7.422  0.0195 -0.0618  0.0845
  699loPI   C4A10170  10.197   5.908   7.842  0.0210 -0.1492 -0.0698
  699loPI   C5A10171  10.228   5.953   8.277  0.0156  0.2019 -0.1321
  699loPI   C6A10172   9.926   5.912   8.587 -0.1982 -0.2139 -0.1509
  699loPI   C1B10173  10.149   5.273   6.816 -0.0396 -0.0930  0.1631
  699loPI   C2B10174  10.122   5.318   7.273  0.0062  0.0927 -0.3629
  699loPI   C3B10175  10.131   5.366   7.692 -0.1162  0.1016  0.1388
  699loPI   C4B10176  10.124   5.361   8.093 -0.3473 -0.2348  0.0024
  700loPI    C110177  12.925   8.918   5.864  0.0512 -0.0047 -0.2655
  700loPI    C210178  12.623   8.855   5.610 -0.0289 -0.0940 -0.1497
  700loPI    C310179  12.670   8.616   5.927  0.2886 -0.2114 -0.2813
  700loPI   PO410180  12.957   9.130   5.909  0.1892  0.0910 -0.2142
  700loPI   GL110181  12.841   9.341   6.208  0.1639  0.1645 -0.1196
  700loPI   GL210182  12.611   9.054   6.272 -0.3189  0.3244 -0.1418
  700loPI   C1A10183  12.686   9.397   6.598  0.1565 -0.2057 -0.0086
  700loPI   C2A10184  12.571   9.333   6.938 -0.2682  0.0226 -0.1165
  700loPI   C3A10185  12.627   9.344   7.375  0.4882 -0.1357 -0.1692
  700loPI   C4A10186  12.593   9.280   7.785 -0.1565  0.0487 -0.2846
  700loPI   C5A10187  12.641   9.260   8.260 -0.0744  0.0007  0.0201
  700loPI   C6A10188  12.628   9.333   8.720  0.0136 -0.2855 -0.0919
  700loPI   C1B10189  12.577   8.872   6.703 -0.0432 -0.1710  0.1355
  700loPI   C2B10190  12.513   8.850   7.073  0.2262  0.1874 -0.1323
  700loPI   C3B10191  12.487   8.821   7.448  0.1269  0.0454 -0.2979
  700loPI   C4B10192  12.445   8.649   7.885 -0.0660  0.3426  0.0506
  701loPI    C110193  10.210   9.880   5.592  0.2405 -0.0781  0.1071
  701loPI    C210194  10.517   9.979   5.356  0.1142  0.2960  0.0933
  701loPI    C310195  10.149  10.110   5.271 -0.0284 -0.0323  0.1883
  701loPI   PO410196  10.178   9.913   5.879 -0.0216 -0.0347 -0.0398
  701loPI   GL110197   9.978  10.128   6.243  0.1791  0.1554 -0.1144
  701loPI   GL210198   9.692  10.074   6.214  0.0768 -0.0799  0.2635
  701loPI   C1A10199   9.976  10.286   6.779 -0.0671  0.1006 -0.1126
  701loPI   C2A10200  10.060  10.249   7.142  0.0057 -0.1340  0.2512
  701loPI   C3A10201  10.032  10.300   7.583 -0.0533 -0.0719  0.3031
  701loPI   C4A10202  10.009  10.114   7.984 -0.1244  0.2095 -0.1904
  701loPI   C5A10203   9.999  10.109   8.371  0.2239  0.1261 -0.1903
  701loPI   C6A10204   9.955  10.125   8.814 -0.1134  0.1378  0.0046
  701loPI   C1B10205   9.487  10.082   6.586 -0.4557 -0.0180  0.0303
  701loPI   C2B10206   9.521  10.041   7.015  0.0935 -0.0988  0.2807
  701loPI   C3B10207   9.520  10.105   7.349  0.0073  0.0687  0.1718
  701loPI   C4B10208   9.541  10.078   7.769  0.1589  0.2771  0.0335
  702loPI    C110209   9.582   4.486   5.791  0.2105  0.1138  0.0614
  702loPI    C210210   9.680   4.638   5.434 -0.0566 -0.0809 -0.0985
  702loPI    C310211   9.759   4.254   5.517  0.2241  0.0249  0.1447
  702loPI   PO410212   9.648   4.712   5.957 -0.2192 -0.0272 -0.1766
  702loPI   GL110213   9.700   4.827   6.371 -0.0641  0.0553  0.0700
  702loPI   GL210214   9.379   4.824   6.472 -0.0642  0.1208  0.1214
  702loPI   C1A10215   9.688   5.111   6.712 -0.0194  0.1139  0.1726
  702loPI   C2A10216   9.659   5.206   7.121  0.0664  0.2293  0.1250
  702loPI   C3A10217   9.651   5.235   7.460  0.0572  0.0537 -0.1647
  702loPI   C4A10218   9.665   5.236   7.854  0.0753 -0.1783  0.0394
  702loPI   C5A10219   9.594   5.223   8.331  0.0734 -0.1375 -0.0276
  702loPI   C6A10220   9.417   5.042   8.610  0.2683 -0.2244  0.1057
  702loPI   C1B10221   9.206   4.994   6.838 -0.3049 -0.0718  0.1409
  702loPI   C2B10222   9.150   5.019   7.238  0.0044 -0.0257  0.1460
  702loPI   C3B10223   9.186   5.147   7.730  0.1256  0.2088  0.0117
  702loPI   C4B10224   9.221   5.037   8.093 -0.0292 -0.4551  0.1659
  703loPI    C110225  11.909  17.438   6.083  0.0410 -0.1610 -0.0400
  703loPI    C210226  11.645  17.143   6.023 -0.0139 -0.1130 -0.0358
  703loPI    C310227  11.775  17.361   5.714 -0.1743  0.0299 -0.0036
  703loPI   PO410228  11.827  17.414   6.380  0.3019  0.1033  0.1893
  703loPI   GL110229  12.086  17.193   6.702  0.0634  0.1141  0.0569
  703loPI   GL210230  12.316  17.451   6.794 -0.2090 -0.0494  0.0432
  703loPI   C1A10231  11.941  17.266   7.133  0.0436  0.1751  0.1212
  703loPI   C2A10232  11.959  17.306   7.606  0.1952  0.0111  0.0469
  703loPI   C3A10233  11.845  17.356   7.993 -0.2139 -0.2722  0.3287
  703loPI   C4A10234  11.811  17.411   8.416  0.0334 -0.0269 -0.1655
  703loPI   C5A10235  11.993  17.704   8.687 -0.0119 -0.2671  0.0163
  703loPI   C6A10236  12.380  17.874   8.722 -0.2089  0.2331 -0.0449
  703loPI   C1B10237  12.473  17.323   7.089  0.2021  0.1909  0.1822
  703loPI   C2B10238  12.499  17.397   7.538  0.1563 -0.2887  0.4105
  703loPI   C3B10239  12.368  17.422   7.956  0.1577 -0.0380  0.0221
  703loPI   C4B10240  12.322  17.511   8.370 -0.1397 -0.0806 -0.0094
  704loPI    C110241  10.115   8.304   5.864 -0.1507  0.0607  0.0030
  704loPI    C210242  10.073   7.995   5.614  0.0469 -0.0445  0.0977
  704loPI    C310243   9.980   8.364   5.493 -0.2484 -0.1470  0.0035
  704loPI   PO410244  10.046   8.262   6.089  0.1170  0.2820  0.1591
  704loPI   GL110245  10.063   7.861   6.448 -0.1159  0.1916  0.2990
  704loPI   GL210246   9.904   8.153   6.577  0.2249 -0.2001 -0.1756
  704loPI   C1A10247  10.088   7.936   6.931  0.2139 -0.0075 -0.1348
  704loPI   C2A10248  10.119   7.897   7.394  0.1336 -0.0417 -0.3856
  704loPI   C3A10249  10.032   7.843   7.793  0.0903 -0.1075  0.1650
  704loPI   C4A10250   9.895   7.969   8.121  0.0893 -0.2390  0.0302
  704loPI   C5A10251   9.932   8.070   8.574 -0.0914  0.0806  0.0694
  704loPI   C6A10252   9.686   8.334   8.923 -0.4639  0.2482  0.1373
  704loPI   C1B10253   9.722   8.255   7.012 -0.3478 -0.1702  0.1441
  704loPI   C2B10254   9.604   8.246   7.454  0.0036  0.1703  0.0365
  704loPI   C3B10255   9.510   8.074   7.863  0.4226  0.1410  0.1974
  704loPI   C4B10256   9.382   8.015   8.238 -0.0812  0.0426 -0.0345
  705loPI    C110257   2.494   0.117   5.746 -0.0565  0.0709 -0.0412
  705loPI    C210258   2.471  -0.167   5.465 -0.0046 -0.0019  0.0278
  705loPI    C310259   2.824  -0.001   5.553 -0.0236  0.0333  0.0379
  705loPI   PO410260   2.307   0.013   5.934 -0.0449 -0.1447  0.2052
  705loPI   GL110261   2.289   0.169   6.306  0.1940 -0.2579  0.0217
  705loPI   GL210262   2.029   0.288   6.441 -0.0182  0.2738 -0.0191
  705loPI   C1A10263   2.361  -0.102   6.633 -0.3340  0.3144 -0.2966
  705loPI   C2A10264   2.280  -0.090   7.094  0.2877 -0.0583 -0.1921
  705loPI   C3A10265   2.309  -0.055   7.476  0.0968  0.1994  0.4056
  705loPI   C4A10266   2.259  -0.178   7.960  0.3628 -0.5058 -0.0323
  705loPI   C5A10267   2.285   0.097   8.373  0.1293 -0.0587  0.2212
  705loPI   C6A10268   1.849   0.116   8.630  0.0768  0.0277 -0.2918
  705loPI   C1B10269   2.410   0.399   6.743  0.1857 -0.3028  0.1689
  705loPI   C2B10270   2.384   0.417   7.226  0.5255  0.0346 -0.0025
  705loPI   C3B10271   2.409   0.487   7.677  0.1903 -0.2734 -0.0163
  705loPI   C4B10272   2.367   0.518   8.017  0.0034  0.0566  0.0724
  706loPI    C110273   0.977   4.080   6.014  0.1330 -0.1540  0.0946
  706loPI    C210274   1.138   3.731   6.126  0.4395  0.0015  0.1468
  706loPI    C310275   1.150   3.843   5.742  0.2298 -0.1005  0.1093
  706loPI   PO410276   1.001   4.201   6.326  0.0048  0.0790 -0.0099
  706loPI   GL110277   1.364   4.519   6.469 -0.1970 -0.1584 -0.1632
  706loPI   GL210278   1.198   4.361   6.752 -0.1635  0.1888  0.4210
  706loPI   C1A10279   1.215   4.891   6.723 -0.2836  0.0297  0.1607
  706loPI   C2A10280   1.301   4.964   7.082  0.0735  0.2000  0.0917
  706loPI   C3A10281   1.205   4.979   7.550 -0.1136 -0.0105  0.1903
  706loPI   C4A10282   1.205   4.826   7.997  0.1411  0.2173  0.1516
  706loPI   C5A10283   1.120   5.048   8.380 -0.3313 -0.1147 -0.0203
  706loPI   C6A10284   1.054   4.941   8.745  0.2378  0.3282 -0.2019
  706loPI   C1B10285   1.174   4.445   7.198 -0.2213 -0.0196  0.0148
  706loPI   C2B10286   1.101   4.376   7.734 -0.0315 -0.0632  0.1526
  706loPI   C3B10287   1.308   4.288   8.160  0.2130 -0.1165 -0.0114
  706loPI   C4B10288   1.279   4.092   8.525 -0.3207  0.0119 -0.0325
  707loPI    C110289   6.795   1.123   5.780 -0.1028  0.1222 -0.0091
  707loPI    C210290   7.112   1.109   5.537 -0.1148 -0.1590 -0.0121
  707loPI    C310291   6.778   1.293   5.419  0.0585  0.1767  0.0078
  707loPI   PO410292   7.009   1.174   6.043  0.0345 -0.0163  0.2415
  707loPI   GL110293   6.832   1.280   6.356 -0.3311 -0.2155  0.3110
  707loPI   GL210294   6.642   1.134   6.485  0.3842  0.1793  0.2864
  707loPI   C1A10295   6.770   1.661   6.651  0.0618 -0.0210  0.1733
  707loPI   C2A10296   6.753   1.829   7.088 -0.3298 -0.0332 -0.0320
  707loPI   C3A10297   6.749   1.705   7.534  0.3134 -0.0911  0.1905
  707loPI   C4A10298   6.677   1.698   7.935  0.0690 -0.1821 -0.1142
  707loPI   C5A10299   6.483   1.865   8.280 -0.2376  0.1573  0.1835
  707loPI   C6A10300   6.630   1.769   8.704  0.1455 -0.0265 -0.1876
  707loPI   C1B10301   6.637   1.236   6.938 -0.1607  0.0018 -0.0473
  707loPI   C2B10302   6.641   1.218   7.385 -0.1453 -0.0123  0.0627
  707loPI   C3B10303   6.618   1.214   7.844  0.2223  0.0859  0.1872
  707loPI   C4B10304   6.564   1.312   8.220  0.1230 -0.0464  0.2891
  708loPI    C110305   4.213   5.978   5.877 -0.0128  0.1778  0.1362
  708loPI    C210306   3.945   5.809   5.633  0.2045  0.1770 -0.1058
  708loPI    C310307   4.260   5.598   5.761  0.1479  0.2104  0.0915
  708loPI   PO410308   4.158   6.056   6.104  0.1854  0.0980  0.1039
  708loPI   GL110309   3.953   6.136   6.412 -0.1474 -0.1789 -0.0210
  708loPI   GL210310   3.906   5.818   6.485 -0.3376  0.1800  0.2547
  708loPI   C1A10311   3.932   6.239   6.801 -0.1325  0.0880  0.2678
  708loPI   C2A10312   3.778   6.301   7.232  0.2814 -0.3104 -0.0015
  708loPI   C3A10313   3.710   6.467   7.690  0.1420 -0.0445 -0.0323
  708loPI   C4A10314   3.700   6.354   8.116  0.0176  0.0441  0.1097
  708loPI   C5A10315   3.933   6.337   8.538  0.1492 -0.0058 -0.1990
  708loPI   C6A10316   3.842   6.260   9.004  0.2515  0.1412 -0.1963
  708loPI   C1B10317   3.720   5.851   6.956  0.0112 -0.2025  0.1615
  708loPI   C2B10318   3.609   5.831   7.395  0.0802  0.0045  0.1225
  708loPI   C3B10319   3.692   5.933   7.828 -0.2892 -0.0611 -0.0663
  708loPI   C4B10320   3.657   5.916   8.313 -0.1410 -0.0467 -0.2955
  709loPI    C110321   7.151   1.580   5.599 -0.1869  0.0368  0.1786
  709loPI    C210322   7.255   1.926   5.426 -0.0178 -0.0943  0.0122
  709loPI    C310323   6.873   1.805   5.420 -0.0379 -0.0251 -0.1389
  709loPI   PO410324   7.328   1.528   5.821  0.0782 -0.0655  0.0735
  709loPI   GL110325   7.188   1.600   6.257  0.0800  0.1769 -0.0783
  709loPI   GL210326   7.369   1.319   6.316  0.0314 -0.0388  0.0498
  709loPI   C1A10327   7.285   1.796   6.572  0.1832 -0.3471 -0.0344
  709loPI   C2A10328   7.250   2.050   6.987 -0.0181  0.1306  0.3212
  709loPI   C3A10329   7.153   1.958   7.424 -0.3255 -0.1145  0.1495
  709loPI   C4A10330   7.141   1.967   7.834 -0.1659 -0.0048  0.1202
  709loPI   C5A10331   7.152   1.911   8.229 -0.1815  0.2076  0.1252
  709loPI   C6A10332   7.056   2.000   8.548  0.2857 -0.1738 -0.5621
  709loPI   C1B10333   7.146   1.397   6.742 -0.1326  0.2804 -0.1750
  709loPI   C2B10334   7.078   1.460   7.102 -0.4096  0.2717 -0.1599
  709loPI   C3B10335   7.197   1.419   7.554 -0.0151 -0.0806 -0.1054
  709loPI   C4B10336   7.080   1.454   7.950 -0.0278  0.1202 -0.0157
  710loPI    C110337  11.014   0.151   6.067  0.0131  0.0315  0.1448
  710loPI    C210338  11.238   0.326   5.786 -0.2825  0.0234 -0.1009
  710loPI    C310339  11.253  -0.070   5.835  0.1863  0.0785  0.2761
  710loPI   PO410340  11.040   0.319   6.294  0.1414  0.0811 -0.0687
  710loPI   GL110341  11.201   0.079   6.673 -0.1408 -0.0412 -0.0934
  710loPI   GL210342  11.475   0.077   6.696 -0.0637  0.4554 -0.0596
  710loPI   C1A10343  10.991  -0.055   6.999  0.2700  0.1467  0.1079
  710loPI   C2A10344  11.095  -0.119   7.350  0.0804 -0.3159  0.0243
  710loPI   C3A10345  11.011   0.002   7.738  0.3345 -0.1143 -0.1492
  710loPI   C4A10346  11.023   0.001   8.205  0.0161  0.1344 -0.1019
  710loPI   C5A10347  10.904   0.218   8.548  0.4056 -0.0514 -0.1605
  710loPI   C6A10348  11.070   0.492   8.943 -0.0893  0.0776  0.2021
  710loPI   C1B10349  11.549   0.090   7.213 -0.0232  0.1946 -0.1348
  710loPI   C2B10350  11.550   0.071   7.637  0.0300  0.1635  0.0333
  710loPI   C3B10351  11.460   0.115   8.066  0.1604 -0.2200  0.2852
  710loPI   C4B10352  11.518   0.328   8.503  0.2026  0.2017  0.0258
  711loPI    C110353   4.903   1.665   5.591  0.0662  0.0003 -0.1460
  711loPI    C210354   4.992   1.418   5.289 -0.3362 -0.0464 -0.2316
  711loPI    C310355   4.831   1.776   5.213  0.0940  0.1817 -0.0989
  711loPI   PO410356   5.152   1.654   5.839 -0.2801  0.4788  0.2815
  711loPI   GL110357   5.199   1.720   6.334  0.2295 -0.2308  0.0032
  711loPI   GL210358   5.291   1.954   6.408 -0.0676 -0.1300 -0.1504
  711loPI   C1A10359   5.321   1.488   6.723  0.2894 -0.1021 -0.3032
  711loPI   C2A10360   5.465   1.630   7.046  0.1755  0.0305  0.1811
  711loPI   C3A10361   5.322   1.656   7.463 -0.0750  0.0755  0.3465
  711loPI   C4A10362   5.287   1.648   7.904  0.1263 -0.2247 -0.2018
  711loPI   C5A10363   5.107   1.396   8.146 -0.1324  0.3511 -0.0880
  711loPI   C6A10364   5.009   1.054   8.381 -0.0457  0.0660  0.0361
  711loPI   C1B10365   5.499   2.055   6.817  0.2289  0.0493  0.0011
  711loPI   C2B10366   5.566   2.239   7.169  0.0385 -0.2286  0.1389
  711loPI   C3B10367   5.421   2.262   7.578  0.1627  0.1234 -0.0105
  711loPI   C4B10368   5.434   2.099   8.124  0.0188  0.1113 -0.0094
  712loPI    C110369  16.752   8.267   5.607 -0.4423  0.1334  0.0907
  712loPI    C210370  16.851   8.604   5.417  0.0829 -0.1727 -0.2016
  712loPI    C310371  16.811   8.264   5.212  0.0906 -0.3972  0.1598
  712loPI   PO410372  16.818   8.370   5.825  0.3029  0.2643  0.0415
  712loPI   GL110373  16.833   8.283   6.283 -0.0461 -0.4897  0.0142
  712loPI   GL210374  17.040   8.051   6.216  0.2910 -0.3533  0.0868
  712loPI   C1A10375  16.706   8.400   6.682 -0.0623 -0.1362 -0.2956
  712loPI   C2A10376  16.620   8.468   7.151 -0.1311  0.2074 -0.1507
  712loPI   C3A10377  16.660   8.421   7.542  0.0960 -0.1919 -0.1385
  712loPI   C4A10378  16.534   8.386   7.937  0.2983  0.4133 -0.1481
  712loPI   C5A10379  16.804   8.417   8.217  0.3717 -0.1630 -0.0073
  712loPI   C6A10380  17.093   8.715   8.315 -0.3167 -0.0756 -0.1643
  712loPI   C1B10381  17.103   8.138   6.651 -0.2910 -0.1539 -0.1301
  712loPI   C2B10382  17.023   8.065   7.031  0.1268  0.3247 -0.0881
  712loPI   C3B10383  17.013   8.034   7.489 -0.1484 -0.2804  0.1876
  712loPI   C4B10384  17.065   8.021   7.989 -0.1899  0.0546 -0.0613
  713loPI    C110385  14.140   2.617   5.757  0.1754  0.1125 -0.0357
  713loPI    C210386  14.133   3.017   5.759  0.3271  0.1161 -0.0241
  713loPI    C310387  13.842   2.812   5.576  0.0434  0.2245  0.2932
  713loPI   PO410388  14.233   2.602   5.986 -0.2060  0.3072  0.2329
  713loPI   GL110389  14.166   2.667   6.479  0.1814  0.0539  0.0037
  713loPI   GL210390  14.386   2.552   6.699  0.1270 -0.0605 -0.0786
  713loPI   C1A10391  14.367   3.056   6.673 -0.2515  0.0247  0.2821
  713loPI   C2A10392  14.476   3.160   7.055  0.3375 -0.1032 -0.0650
  713loPI   C3A10393  14.309   3.091   7.390  0.0005  0.0832  0.1959
  713loPI   C4A10394  14.246   3.069   7.812 -0.0220  0.1736 -0.1131
  713loPI   C5A10395  14.320   3.105   8.264  0.1963 -0.0075  0.0812
  713loPI   C6A10396  14.226   2.859   8.643  0.0095 -0.3897 -0.0638
  713loPI   C1B10397  14.395   2.570   7.118 -0.0233  0.2813 -0.0548
  713loPI   C2B10398  14.191   2.536   7.556  0.4775  0.0950  0.2267
  713loPI   C3B10399  14.298   2.647   8.030 -0.2645  0.2119  0.0262
  713loPI   C4B10400  14.103   2.436   8.436  0.0353 -0.0552  0.3427
  714loPI    C110401  12.628  10.926   5.953  0.1390 -0.1356 -0.0673
  714loPI    C210402  12.554  11.213   5.685  0.3701  0.0186  0.0299
  714loPI    C310403  12.258  10.973   5.809  0.1859  0.1793 -0.0918
  714loPI   PO410404  12.789  11.042   6.103  0.1932 -0.0887 -0.3125
  714loPI   GL110405  12.875  10.970   6.512 -0.1641 -0.2000 -0.2686
  714loPI   GL210406  12.865  11.384   6.492 -0.2161  0.2243 -0.2287
  714loPI   C1A10407  12.895  10.844   6.935  0.0981 -0.0080 -0.1278
  714loPI   C2A10408  12.928  10.882   7.322  0.0838  0.0366  0.0738
  714loPI   C3A10409  12.863  10.761   7.752  0.1153 -0.0425  0.0525
  714loPI   C4A10410  12.726  10.974   8.128 -0.0730 -0.1366  0.2279
  714loPI   C5A10411  12.367  10.915   8.445  0.0963  0.4138 -0.1201
  714loPI   C6A10412  12.166  10.643   8.703  0.4451  0.1207 -0.0093
  714loPI   C1B10413  12.856  11.344   7.021 -0.1173 -0.0720  0.1337
  714loPI   C2B10414  12.929  11.481   7.446  0.1023  0.0685  0.0292
  714loPI   C3B10415  12.917  11.375   7.862  0.0448  0.1628 -0.0371
  714loPI   C4B10416  12.933  11.449   8.260 -0.2713 -0.0829 -0.1941
  715loPI    C110417   6.622   3.342   5.672  0.2356  0.1512 -0.2647
  715loPI    C210418   6.450   3.037   5.478 -0.3134  0.0727  0.3144
  715loPI    C310419   6.274   3.397   5.482 -0.0221  0.2192  0.2113
  715loPI   PO410420   6.670   3.264   5.986  0.0038 -0.1334  0.2035
  715loPI   GL110421   6.480   3.155   6.326  0.1337  0.2274 -0.0804
  715loPI   GL210422   6.368   3.500   6.365  0.0925  0.2643 -0.2019
  715loPI   C1A10423   6.473   3.096   6.710 -0.5334  0.0925 -0.0655
  715loPI   C2A10424   6.490   3.076   7.159 -0.1694  0.0744  0.1505
  715loPI   C3A10425   6.544   3.118   7.540  0.0285  0.3103  0.0558
  715loPI   C4A10426   6.483   3.135   7.981  0.3846 -0.1317 -0.1168
  715loPI   C5A10427   6.347   3.174   8.407 -0.0759 -0.1445 -0.1970
  715loPI   C6A10428   6.034   3.078   8.748 -0.2373  0.0419  0.2567
  715loPI   C1B10429   6.553   3.609   6.809  0.1877 -0.3036  0.0276
  715loPI   C2B10430   6.526   3.606   7.269  0.0317  0.1096 -0.0454
  715loPI   C3B10431   6.599   3.592   7.774  0.0853  0.0318 -0.0721
  715loPI   C4B10432   6.587   3.632   8.214  0.2105  0.1163 -0.1537
  716loPI    C110433  16.668   5.937   5.810 -0.1832  0.0364 -0.1309
  716loPI    C210434  17.036   6.084   5.750 -0.0751 -0.2198 -0.1088
  716loPI    C310435  16.795   6.011   5.438 -0.1629  0.0832 -0.1147
  716loPI   PO410436  16.658   5.943   6.029  0.1404  0.3858  0.2398
  716loPI   GL110437  16.798   5.976   6.425 -0.0669 -0.2784 -0.0289
  716loPI   GL210438  17.086   6.129   6.268  0.0708 -0.0643  0.0036
  716loPI   C1A10439  16.692   5.961   6.835  0.1737  0.0691  0.0227
  716loPI   C2A10440  16.653   6.025   7.315  0.1736 -0.4727  0.2319
  716loPI   C3A10441  16.666   5.918   7.749 -0.1540  0.4188  0.0527
  716loPI   C4A10442  16.643   6.136   8.176 -0.4078  0.0968  0.0951
  716loPI   C5A10443  16.628   6.449   8.560  0.2702  0.1551 -0.0141
  716loPI   C6A10444  16.487   6.570   8.919 -0.2381 -0.4305  0.0051
  716loPI   C1B10445  17.118   6.203   6.704  0.1236 -0.0255  0.1687
  716loPI   C2B10446  17.143   6.170   7.175  0.1286  0.1371 -0.1903
  716loPI   C3B10447  17.113   6.128   7.621 -0.2019 -0.1769 -0.1066
  716loPI   C4B10448  17.164   6.293   7.984 -0.0659  0.3861 -0.3511
  717loPI    C110449   0.624   8.706   5.725 -0.0014  0.1388 -0.0377
  717loPI    C210450   0.388   8.851   5.437 -0.1931 -0.1312 -0.0211
  717loPI    C310451   0.739   8.685   5.342 -0.1490 -0.0085 -0.0753
  717loPI   PO410452   0.402   8.627   5.872 -0.0585  0.1717  0.0663
  717loPI   GL110453   0.608   8.453   6.238  0.2030 -0.2283  0.0387
  717loPI   GL210454   0.885   8.753   6.181  0.1789  0.0188  0.3756
  717loPI   C1A10455   0.611   8.538   6.587 -0.1706  0.0754  0.3559
  717loPI   C2A10456   0.539   8.502   7.002 -0.0826  0.3426  0.3082
  717loPI   C3A10457   0.422   8.445   7.478 -0.1664 -0.1688 -0.2382
  717loPI   C4A10458   0.387   8.459   7.906  0.1141  0.2403 -0.2254
  717loPI   C5A10459   0.406   8.715   8.252  0.0739 -0.1848  0.0560
  717loPI   C6A10460   0.538   8.873   8.590 -0.0331 -0.1317 -0.2073
  717loPI   C1B10461   1.066   8.706   6.511 -0.2461 -0.1637  0.0721
  717loPI   C2B10462   1.098   8.821   6.956  0.0442  0.1018  0.1379
  717loPI   C3B10463   0.982   8.678   7.390  0.1609  0.1260  0.0322
  717loPI   C4B10464   1.001   8.715   7.866  0.3357  0.1338 -0.2993
  718loPI    C110465   8.441   6.744   5.887 -0.1827 -0.1004 -0.0840
  718loPI    C210466   8.544   6.849   5.515  0.1479  0.1148  0.0639
  718loPI    C310467   8.347   7.107   5.748 -0.1757 -0.0671 -0.0021
  718loPI   PO410468   8.723   6.552   6.047 -0.0057 -0.1895  0.1981
  718loPI   GL110469   8.933   6.730   6.472  0.0061  0.1689 -0.2264
  718loPI   GL210470   8.598   6.773   6.530  0.0232  0.0084 -0.0835
  718loPI   C1A10471   9.056   6.502   6.812 -0.2374 -0.0129  0.0542
  718loPI   C2A10472   8.965   6.495   7.296  0.0211 -0.0191  0.2408
  718loPI   C3A10473   8.926   6.352   7.521  0.1067 -0.4611  0.1823
  718loPI   C4A10474   8.737   6.303   7.990  0.5036  0.0764 -0.0158
  718loPI   C5A10475   8.747   6.373   8.439 -0.1017  0.1879 -0.0409
  718loPI   C6A10476   8.730   6.475   8.890  0.1040 -0.0577  0.0067
  718loPI   C1B10477   8.583   6.798   7.030 -0.2931 -0.2224 -0.1411
  718loPI   C2B10478   8.517   6.722   7.406  0.3071 -0.0512  0.0036
  718loPI   C3B10479   8.395   6.696   7.807 -0.0106  0.5222  0.1605
  718loPI   C4B10480   8.227   6.680   8.210 -0.2165 -0.2418 -0.1454
  719loPI    C110481   6.994   8.813   5.610 -0.2109 -0.1327 -0.2342
  719loPI    C210482   7.228   8.523   5.754 -0.0688  0.0805 -0.0285
  719loPI    C310483   7.225   8.602   5.362  0.1540  0.0315 -0.0415
  719loPI   PO410484   6.854   8.912   5.775  0.1171  0.0146  0.0851
  719loPI   GL110485   6.789   9.069   6.179 -0.2405  0.0092  0.1153
  719loPI   GL210486   6.982   9.187   6.391 -0.1051 -0.0064  0.1931
  719loPI   C1A10487   6.576   8.985   6.590  0.0744  0.2390 -0.1041
  719loPI   C2A10488   6.575   8.962   7.025 -0.2539 -0.1223  0.1132
  719loPI   C3A10489   6.551   8.920   7.414  0.0853  0.1408 -0.3414
  719loPI   C4A10490   6.506   8.764   7.809 -0.0621  0.2150  0.0363
  719loPI   C5A10491   6.603   8.630   8.278  0.0066  0.0989 -0.0712
  719loPI   C6A10492   6.266   8.747   8.587  0.0227 -0.1919 -0.4221
  719loPI   C1B10493   7.010   9.113   6.828 -0.1765 -0.1932  0.2548
  719loPI   C2B10494   6.979   9.141   7.318  0.0079  0.0250 -0.1705
  719loPI   C3B10495   6.957   8.997   7.736 -0.2691 -0.0596  0.1192
  719loPI   C4B10496   6.994   9.025   8.182  0.1038  0.2462 -0.0775
  720loPI    C110497   4.639  13.529   5.728 -0.1929 -0.1501  0.1589
  720loPI    C210498   4.709  13.786   5.430 -0.0906  0.0069  0.3158
  720loPI    C310499   4.453  13.483   5.377 -0.0824  0.0399  0.0737
  720loPI   PO410500   4.593  13.676   5.973 -0.2052 -0.0716  0.0518
  720loPI   GL110501   4.467  13.640   6.343 -0.1995  0.1009  0.2275
  720loPI   GL210502   4.572  13.952   6.386 -0.0959  0.2619 -0.1700
  720loPI   C1A10503   4.555  13.439   6.703  0.0983 -0.1096  0.4855
  720loPI   C2A10504   4.500  13.444   7.130  0.4224  0.0038 -0.1717
  720loPI   C3A10505   4.520  13.373   7.635  0.0756 -0.0068  0.1429
  720loPI   C4A10506   4.471  13.538   8.044  0.1023 -0.0528  0.3610
  720loPI   C5A10507   4.595  13.832   8.384 -0.2500 -0.0936 -0.1493
  720loPI   C6A10508   4.453  14.053   8.640  0.0614 -0.0603  0.0657
  720loPI   C1B10509   4.721  13.993   6.838 -0.1758  0.1538  0.1977
  720loPI   C2B10510   4.461  13.997   7.219  0.0886  0.1256 -0.2320
  720loPI   C3B10511   4.598  13.921   7.569 -0.0370 -0.0043 -0.0545
  720loPI   C4B10512   4.641  14.047   7.909  0.0661 -0.4012 -0.2466
  721loPI    C110513  12.863   2.869   5.885 -0.2078 -0.1203  0.2338
  721loPI    C210514  12.922   2.710   5.523 -0.1894 -0.2019  0.2725
  721loPI    C310515  12.551   2.790   5.648 -0.1779  0.1090  0.1155
  721loPI   PO410516  12.953   2.682   6.044  0.0791  0.3192 -0.0620
  721loPI   GL110517  12.906   2.839   6.436  0.0875 -0.3097  0.0978
  721loPI   GL210518  12.935   2.505   6.491  0.0721 -0.0097 -0.3201
  721loPI   C1A10519  12.908   2.991   6.871  0.0075 -0.1389 -0.2255
  721loPI   C2A10520  13.010   3.022   7.224 -0.0536 -0.1557  0.2118
  721loPI   C3A10521  12.904   3.016   7.566 -0.0139 -0.4045 -0.0872
  721loPI   C4A10522  12.922   3.116   7.984  0.0241 -0.1280  0.0071
  721loPI   C5A10523  12.832   3.086   8.438 -0.0833  0.0131  0.1148
  721loPI   C6A10524  13.013   3.012   8.845 -0.1037 -0.0554 -0.0312
  721loPI   C1B10525  12.880   2.518   6.931 -0.1980  0.1686 -0.2845
  721loPI   C2B10526  12.851   2.510   7.362  0.0737  0.0545 -0.1743
  721loPI   C3B10527  12.806   2.612   7.817 -0.1397 -0.2169 -0.0549
  721loPI   C4B10528  12.770   2.573   8.197  0.1144 -0.0074 -0.0480
  722loPI    C110529  15.880   7.439   6.001  0.0987  0.1452  0.0406
  722loPI    C210530  15.817   7.589   5.636  0.0815  0.1738  0.0553
  722loPI    C310531  16.054   7.271   5.683 -0.1380 -0.0023 -0.0131
  722loPI   PO410532  15.703   7.624   6.163 -0.2037  0.0612 -0.2887
  722loPI   GL110533  15.713   7.696   6.539  0.2612  0.0389  0.1919
  722loPI   GL210534  15.685   7.969   6.745  0.0789  0.4276 -0.0571
  722loPI   C1A10535  15.670   7.387   6.909  0.0695 -0.0304 -0.0254
  722loPI   C2A10536  15.596   7.379   7.389 -0.0343  0.0413  0.2914
  722loPI   C3A10537  15.507   7.453   7.770 -0.1554  0.0433 -0.2018
  722loPI   C4A10538  15.377   7.483   8.129  0.0067 -0.0456 -0.2603
  722loPI   C5A10539  15.360   7.369   8.604 -0.0088  0.1788 -0.1363
  722loPI   C6A10540  15.331   7.296   9.134 -0.2247  0.0442 -0.0045
  722loPI   C1B10541  15.674   7.900   7.174 -0.0058  0.0582  0.2326
  722loPI   C2B10542  15.642   7.901   7.607  0.1377 -0.3001 -0.2834
  722loPI   C3B10543  15.505   8.014   7.934 -0.0380  0.2648  0.2206
  722loPI   C4B10544  15.490   8.125   8.277 -0.0942  0.2086 -0.0494
  723loPI    C110545   3.658   9.470   5.739 -0.0292 -0.0581 -0.0428
  723loPI    C210546   3.446   9.357   5.419 -0.0385 -0.1561 -0.0024
  723loPI    C310547   3.590   9.730   5.442 -0.0834 -0.1327 -0.0961
  723loPI   PO410548   3.505   9.412   5.995  0.0341  0.0578 -0.3758
  723loPI   GL110549   3.224   9.589   6.290 -0.1662 -0.1767  0.0679
  723loPI   GL210550   3.103   9.400   6.465  0.0979 -0.2277 -0.0286
  723loPI   C1A10551   3.594   9.631   6.648 -0.0844  0.0379  0.2478
  723loPI   C2A10552   3.522   9.591   7.135  0.0910  0.2763  0.0763
  723loPI   C3A10553   3.351   9.642   7.570  0.2381  0.3065 -0.0909
  723loPI   C4A10554   3.375   9.606   8.020 -0.2428 -0.1432 -0.0640
  723loPI   C5A10555   3.393   9.678   8.441  0.0411 -0.0604 -0.1808
  723loPI   C6A10556   3.314   9.659   8.865  0.0266 -0.0714 -0.2174
  723loPI   C1B10557   3.057   9.482   6.832 -0.0758 -0.0068 -0.3178
  723loPI   C2B10558   2.991   9.509   7.230  0.0765  0.1487  0.2438
  723loPI   C3B10559   2.828   9.478   7.644 -0.4025 -0.0440  0.2185
  723loPI   C4B10560   2.799   9.470   8.115  0.2057 -0.0739  0.2790
  724loPI    C110561   0.739  14.266   6.099  0.1006 -0.2539  0.0898
  724loPI    C210562   0.484  14.306   5.794  0.1655 -0.3324  0.0248
  724loPI    C310563   0.867  14.211   5.724  0.3143  0.1862  0.0922
  724loPI   PO410564   0.616  14.455   6.262  0.1135  0.1162  0.3686
  724loPI   GL110565   0.769  14.402   6.637  0.0071  0.0242  0.2059
  724loPI   GL210566   0.638  14.700   6.697  0.2788 -0.0963 -0.0843
  724loPI   C1A10567   0.761  14.382   7.058 -0.6091  0.2416  0.0034
  724loPI   C2A10568   0.618  14.575   7.467  0.0455 -0.1480 -0.0218
  724loPI   C3A10569   0.534  14.601   7.839 -0.1512  0.3476 -0.2737
  724loPI   C4A10570   0.452  14.808   8.224 -0.1203  0.0130 -0.1311
  724loPI   C5A10571   0.329  15.136   8.477  0.0053  0.0340 -0.2427
  724loPI   C6A10572   0.344  15.451   8.735 -0.3364 -0.0339  0.2058
  724loPI   C1B10573   0.372  14.828   7.048 -0.1934 -0.0166  0.2082
  724loPI   C2B10574   0.163  14.784   7.345  0.0478  0.3804  0.0961
  724loPI   C3B10575   0.033  14.594   7.726  0.0355  0.0113 -0.1934
  724loPI   C4B10576   0.155  14.162   7.832 -0.2458  0.0770  0.2288
  725loPI    C110577   4.300  16.219   5.932  0.3005  0.0542 -0.0940
  725loPI    C210578   3.986  16.265   5.689 -0.0376 -0.2603  0.2682
  725loPI    C310579   4.357  16.288   5.543 -0.2267 -0.0777 -0.2033
  725loPI   PO410580   4.212  16.297   6.156  0.0718  0.0745 -0.3062
  725loPI   GL110581   3.788  16.377   6.311 -0.0804  0.0509  0.0045
  725loPI   GL210582   3.512  16.430   6.542 -0.1295  0.0353 -0.2342
  725loPI   C1A10583   3.933  16.230   6.775  0.2846 -0.1825  0.1642
  725loPI   C2A10584   3.872  16.203   7.123 -0.1163  0.1291  0.3338
  725loPI   C3A10585   3.928  16.256   7.534 -0.1913 -0.0090 -0.1015
  725loPI   C4A10586   4.006  16.150   7.998 -0.4030 -0.0120  0.0443
  725loPI   C5A10587   4.147  16.052   8.407 -0.0149 -0.1874  0.0868
  725loPI   C6A10588   4.039  15.893   8.882  0.0289  0.1264  0.4518
  725loPI   C1B10589   3.543  16.588   6.926 -0.3411 -0.0190 -0.1348
  725loPI   C2B10590   3.568  16.556   7.291  0.0019 -0.1306 -0.0277
  725loPI   C3B10591   3.552  16.514   7.703  0.0077 -0.2536  0.1232
  725loPI   C4B10592   3.560  16.439   8.148  0.0359  0.5173  0.1996
  726loPI    C110593  10.528  16.785   6.027  0.4164  0.0923 -0.3053
  726loPI    C210594  10.504  16.686   5.640 -0.3570 -0.0899 -0.2271
  726loPI    C310595  10.401  17.054   5.759  0.1831  0.0677 -0.2221
  726loPI   PO410596  10.417  16.602   6.137  0.2811  0.3840 -0.2378
  726loPI   GL110597  10.062  16.532   6.456 -0.3036  0.2725 -0.0156
  726loPI   GL210598  10.261  16.260   6.593  0.3170  0.1302 -0.1743
  726loPI   C1A10599   9.746  16.639   6.606  0.0409 -0.0126  0.2391
  726loPI   C2A10600   9.522  16.626   6.949  0.0410  0.1137 -0.1871
  726loPI   C3A10601   9.495  16.602   7.355 -0.0234 -0.3181  0.2300
  726loPI   C4A10602   9.404  16.437   7.677 -0.0917 -0.0529  0.1527
  726loPI   C5A10603   9.390  16.415   8.073  0.1153 -0.0336 -0.0372
  726loPI   C6A10604   9.286  16.308   8.487  0.0129 -0.1270  0.2351
  726loPI   C1B10605  10.007  16.478   6.987 -0.0119 -0.3658 -0.2731
  726loPI   C2B10606   9.978  16.464   7.432 -0.2637 -0.0121  0.1970
  726loPI   C3B10607   9.786  16.243   7.922 -0.3647  0.0710  0.0228
  726loPI   C4B10608   9.751  16.096   8.280 -0.1349  0.0997  0.2996
  727loPI    C110609   6.339   4.133   5.732  0.0735  0.1158 -0.0345
  727loPI    C210610   6.476   3.828   5.512 -0.0487  0.0767 -0.0569
  727loPI    C310611   6.110   3.975   5.444  0.0183  0.2431 -0.0611
  727loPI   PO410612   6.464   4.070   6.009  0.0049 -0.2675  0.2051
  727loPI   GL110613   6.488   4.183   6.382  0.1722 -0.3648  0.3901
  727loPI   GL210614   6.612   3.971   6.507  0.1651 -0.4311  0.2018
  727loPI   C1A10615   6.206   4.397   6.641  0.1941  0.1883 -0.2867
  727loPI   C2A10616   6.228   4.482   7.091 -0.1338  0.0594 -0.0022
  727loPI   C3A10617   6.281   4.454   7.495  0.0509  0.2449 -0.0672
  727loPI   C4A10618   6.290   4.406   7.828  0.4039 -0.1301  0.0486
  727loPI   C5A10619   6.360   4.628   8.073  0.1063  0.1879 -0.0790
  727loPI   C6A10620   6.802   4.567   8.409  0.1444 -0.0284  0.0984
  727loPI   C1B10621   6.606   4.071   6.925 -0.1787 -0.0207 -0.0109
  727loPI   C2B10622   6.654   4.059   7.314 -0.0666  0.0119  0.1493
  727loPI   C3B10623   6.648   4.096   7.714 -0.0397 -0.1447 -0.0462
  727loPI   C4B10624   6.653   4.117   8.172  0.1607  0.1876  0.1068
  728loPI    C110625   6.967  16.473   6.087  0.3327  0.0818  0.0883
  728loPI    C210626   6.983  16.625   5.717 -0.0632 -0.1197 -0.0172
  728loPI    C310627   6.971  16.228   5.771 -0.2226 -0.0869  0.2017
  728loPI   PO410628   6.778  16.585   6.185 -0.2740 -0.1865 -0.0232
  728loPI   GL110629   6.551  16.508   6.571 -0.0427  0.1274 -0.1098
  728loPI   GL210630   6.482  16.143   6.664 -0.0500 -0.2879  0.0764
  728loPI   C1A10631   6.329  16.564   6.844  0.2863 -0.2824  0.0417
  728loPI   C2A10632   6.296  16.723   7.174  0.3328  0.1790  0.4254
  728loPI   C3A10633   6.278  16.654   7.651  0.1289 -0.2184  0.0859
  728loPI   C4A10634   6.295  16.755   8.126 -0.0045 -0.0646 -0.0961
  728loPI   C5A10635   6.582  16.736   8.554 -0.0766 -0.1839 -0.0867
  728loPI   C6A10636   6.802  16.988   8.639  0.2405 -0.0413 -0.1084
  728loPI   C1B10637   6.304  16.075   7.004  0.2550  0.0788  0.1345
  728loPI   C2B10638   6.249  16.211   7.387 -0.0328 -0.1039  0.1691
  728loPI   C3B10639   6.232  16.143   7.786 -0.1014  0.0090 -0.0403
  728loPI   C4B10640   6.137  16.110   8.160  0.1585 -0.3082  0.0485
  729loPI    C110641   5.320   0.480   5.699  0.0998 -0.1246  0.2215
  729loPI    C210642   5.330   0.734   6.008  0.0891  0.1911 -0.0321
  729loPI    C310643   5.542   0.812   5.679 -0.1405  0.0161 -0.2254
  729loPI   PO410644   5.120   0.421   5.616  0.0382 -0.2131 -0.1486
  729loPI   GL110645   4.815   0.566   5.821 -0.1091 -0.0684  0.0079
  729loPI   GL210646   4.967   0.275   6.056  0.0945  0.2868 -0.1562
  729loPI   C1A10647   4.928   0.775   6.228  0.1223 -0.0787 -0.1949
  729loPI   C2A10648   5.009   1.031   6.428  0.3109 -0.1348 -0.2663
  729loPI   C3A10649   5.138   1.058   6.914  0.1062 -0.1240  0.0060
  729loPI   C4A10650   5.156   1.139   7.493 -0.1160  0.1708  0.0589
  729loPI   C5A10651   5.188   1.033   7.798 -0.1562 -0.1287 -0.0490
  729loPI   C6A10652   5.206   0.683   8.075 -0.1588 -0.0579  0.0159
  729loPI   C1B10653   5.280   0.401   6.383  0.1970  0.1097  0.0922
  729loPI   C2B10654   5.207   0.566   6.774 -0.2551 -0.1340  0.3578
  729loPI   C3B10655   5.100   0.661   7.178  0.1233 -0.3366 -0.2450
  729loPI   C4B10656   5.139   0.605   7.572 -0.2342 -0.0655  0.1206
  730loPI    C110657   4.810  16.169   5.547 -0.0023 -0.0092  0.2160
  730loPI    C210658   4.649  15.979   5.234  0.1994 -0.0890  0.1591
  730loPI    C310659   4.991  16.182   5.190  0.0994  0.1066  0.2712
  730loPI   PO410660   4.708  16.018   5.736  0.0673 -0.2962  0.0819
  730loPI   GL110661   4.618  16.016   6.239 -0.2250 -0.2786  0.1909
  730loPI   GL210662   4.326  15.934   6.427 -0.0592 -0.1357 -0.0425
  730loPI   C1A10663   4.836  16.000   6.575  0.0989 -0.0039 -0.1761
  730loPI   C2A10664   4.918  16.064   7.074 -0.1907 -0.0251 -0.5496
  730loPI   C3A10665   4.890  16.167   7.510 -0.0254  0.2935 -0.2407
  730loPI   C4A10666   4.816  16.071   7.932  0.0264  0.2178 -0.2638
  730loPI   C5A10667   4.815  15.770   8.323 -0.0188 -0.1311  0.1275
  730loPI   C6A10668   4.441  15.771   8.644 -0.1307  0.0841 -0.1053
  730loPI   C1B10669   4.367  15.801   6.747 -0.0378  0.3191  0.0945
  730loPI   C2B10670   4.349  15.764   7.206 -0.0752 -0.1257 -0.3525
  730loPI   C3B10671   4.436  15.917   7.714  0.2587  0.0905  0.4521
  730loPI   C4B10672   4.343  15.769   8.042 -0.2581  0.0958  0.0635
  731loPI    C110673  13.945   0.042   6.189  0.1428 -0.3484 -0.0354
  731loPI    C210674  13.744  -0.021   6.530 -0.0142  0.0585 -0.0472
  731loPI    C310675  13.554  -0.042   6.178  0.0505  0.0656 -0.0827
  731loPI   PO410676  14.240   0.058   6.318  0.3271  0.0045 -0.0687
  731loPI   GL110677  14.357   0.319   6.697  0.3778  0.0122  0.0369
  731loPI   GL210678  14.029   0.425   6.691 -0.0687 -0.1542  0.2622
  731loPI   C1A10679  14.488   0.505   7.074  0.1514 -0.0771  0.2076
  731loPI   C2A10680  14.446   0.388   7.475  0.2419  0.1384  0.1267
  731loPI   C3A10681  14.380   0.537   7.963 -0.2180 -0.0817  0.1651
  731loPI   C4A10682  14.473   0.617   8.346 -0.0211  0.0123  0.0213
  731loPI   C5A10683  14.814   0.532   8.594 -0.0890  0.3131 -0.0008
  731loPI   C6A10684  14.958   0.453   9.015 -0.4809 -0.1660 -0.1368
  731loPI   C1B10685  13.994   0.373   7.158  0.0798 -0.0456  0.2052
  731loPI   C2B10686  13.935   0.421   7.606 -0.2941  0.0019  0.3176
  731loPI   C3B10687  13.860   0.511   7.979 -0.2019 -0.2901 -0.1488
  731loPI   C4B10688  13.968   0.660   8.426  0.2289  0.1716  0.1326
  732loPI    C110689   0.712   9.555   5.638 -0.1220  0.2222  0.0496
  732loPI    C210690   0.894   9.763   5.350 -0.0125  0.0611  0.0012
  732loPI    C310691   0.829   9.372   5.303 -0.0593  0.0485  0.1651
  732loPI   PO410692   0.499   9.683   5.672 -0.2290  0.1338 -0.0730
  732loPI   GL110693   0.317   9.838   6.030 -0.3917  0.1906 -0.2453
  732loPI   GL210694   0.635   9.803   6.167  0.0963 -0.0858  0.0898
  732loPI   C1A10695   0.299   9.861   6.520 -0.1308  0.0311 -0.0127
  732loPI   C2A10696   0.369   9.903   6.942 -0.1189  0.1948 -0.4336
  732loPI   C3A10697   0.260   9.860   7.372  0.0332 -0.1262 -0.1936
  732loPI   C4A10698   0.260   9.792   7.759  0.2761 -0.2715 -0.1731
  732loPI   C5A10699   0.149   9.869   8.124 -0.0233 -0.1034  0.2894
  732loPI   C6A10700  -0.131  10.070   8.397 -0.1048  0.1760  0.0207
  732loPI   C1B10701   0.758   9.655   6.618 -0.1482  0.0852 -0.0014
  732loPI   C2B10702   0.766   9.611   7.062  0.1374 -0.1065  0.0687
  732loPI   C3B10703   0.626   9.521   7.354 -0.2312  0.2220 -0.0152
  732loPI   C4B10704   0.697   9.559   7.773 -0.1146 -0.1257 -0.1407
  733loPI    C110705   1.307   8.464   5.288 -0.0755  0.0605  0.1284
  733loPI    C210706   1.257   8.109   5.111  0.0715 -0.0636  0.3309
  733loPI    C310707   1.041   8.424   4.992  0.0305 -0.1892  0.0642
  733loPI   PO410708   1.416   8.394   5.467 -0.1938  0.0094 -0.0545
  733loPI   GL110709   1.598   8.580   5.929  0.0914  0.0463  0.3556
  733loPI   GL210710   1.820   8.446   6.149  0.2083 -0.3159  0.2389
  733loPI   C1A10711   1.650   8.836   6.319 -0.1281 -0.3326 -0.2897
  733loPI   C2A10712   1.623   8.934   6.719 -0.0504 -0.1149  0.1245
  733loPI   C3A10713   1.612   8.967   7.156 -0.0271 -0.0110  0.1466
  733loPI   C4A10714   1.510   8.962   7.607 -0.1165  0.1464 -0.1289
  733loPI   C5A10715   1.443   8.932   8.095 -0.1530 -0.1321 -0.1322
  733loPI   C6A10716   1.350   8.797   8.501  0.1063  0.1413 -0.0217
  733loPI   C1B10717   1.940   8.471   6.546 -0.2658  0.1484 -0.3540
  733loPI   C2B10718   1.938   8.566   6.974 -0.3117 -0.0981 -0.0539
  733loPI   C3B10719   1.812   8.579   7.428 -0.2829  0.1964 -0.0551
  733loPI   C4B10720   1.762   8.594   7.883  0.2322 -0.0836  0.3824
  734loPI    C110721  14.042   7.602   5.872  0.0264 -0.0396 -0.1693
  734loPI    C210722  14.211   7.243   5.821  0.1521  0.0079 -0.0943
  734loPI    C310723  14.250   7.524   5.539  0.0462 -0.0396 -0.1570
  734loPI   PO410724  14.122   7.679   6.106 -0.1058  0.2971 -0.0203
  734loPI   GL110725  14.374   7.735   6.359 -0.1854 -0.1270 -0.1374
  734loPI   GL210726  14.632   7.928   6.405 -0.1698 -0.0148  0.1509
  734loPI   C1A10727  14.214   7.630   6.749 -0.1635  0.0409 -0.1814
  734loPI   C2A10728  14.168   7.557   7.222 -0.1506 -0.0302 -0.3454
  734loPI   C3A10729  14.113   7.503   7.642  0.3761  0.0410 -0.1710
  734loPI   C4A10730  14.101   7.425   8.068  0.0680 -0.0568  0.3754
  734loPI   C5A10731  14.291   7.261   8.476 -0.2364 -0.2653 -0.0524
  734loPI   C6A10732  14.196   7.276   8.927  0.0397 -0.0608  0.0482
  734loPI   C1B10733  14.725   7.773   6.829  0.2505  0.0666 -0.1127
  734loPI   C2B10734  14.620   7.733   7.229 -0.0217 -0.0318  0.0191
  734loPI   C3B10735  14.581   7.702   7.717 -0.2828  0.0424 -0.1051
  734loPI   C4B10736  14.536   7.635   8.129 -0.3705  0.1517 -0.1519
  735loPI    C110737   0.691   4.384   5.715 -0.2214  0.0101  0.0560
  735loPI    C210738   0.818   4.724   5.547 -0.0110 -0.0610  0.0694
  735loPI    C310739   0.607   4.461   5.332 -0.2551  0.1195  0.0849
  735loPI   PO410740   0.552   4.423   5.999  0.1654 -0.0666 -0.2073
  735loPI   GL110741   0.515   4.421   6.458 -0.0800  0.0280  0.1206
  735loPI   GL210742   0.531   4.178   6.710  0.0342  0.1917  0.5123
  735loPI   C1A10743   0.744   4.693   6.752  0.1344 -0.1183  0.4065
  735loPI   C2A10744   0.749   4.757   7.193  0.1955 -0.1977 -0.2175
  735loPI   C3A10745   0.747   4.740   7.635 -0.0943 -0.0807 -0.0613
  735loPI   C4A10746   0.687   4.559   7.970 -0.1764  0.3187 -0.3104
  735loPI   C5A10747   0.919   4.493   8.410 -0.0607 -0.0652  0.1046
  735loPI   C6A10748   0.808   4.335   8.729  0.2324 -0.1907  0.1933
  735loPI   C1B10749   0.749   4.256   7.002 -0.2292  0.0305  0.1418
  735loPI   C2B10750   0.694   4.225   7.441 -0.2267  0.0852 -0.0645
  735loPI   C3B10751   0.638   4.081   7.866 -0.0674 -0.1472  0.2465
  735loPI   C4B10752   0.729   4.078   8.294 -0.0549 -0.0924 -0.1546
  736loPI    C110753   0.210  15.206   5.961  0.1554  0.1846 -0.0038
  736loPI    C210754   0.095  15.478   5.691  0.1329  0.1147 -0.0649
  736loPI    C310755   0.399  15.231   5.609 -0.1942 -0.2437 -0.2326
  736loPI   PO410756   0.311  15.339   6.176  0.0856  0.1270 -0.0740
  736loPI   GL110757   0.335  15.349   6.566 -0.0732 -0.2113  0.1356
  736loPI   GL210758   0.185  15.124   6.643  0.2017 -0.0233  0.0011
  736loPI   C1A10759   0.648  15.238   6.879 -0.0131 -0.2529 -0.0318
  736loPI   C2A10760   0.873  14.915   7.193 -0.2622 -0.1558 -0.0683
  736loPI   C3A10761   0.996  14.956   7.631  0.1202 -0.2609  0.1063
  736loPI   C4A10762   0.921  14.958   8.058  0.0941 -0.2111  0.3437
  736loPI   C5A10763   0.893  15.226   8.464 -0.0461 -0.2600  0.1888
  736loPI   C6A10764   0.822  15.635   8.615 -0.1750 -0.0806 -0.0736
  736loPI   C1B10765   0.163  15.253   7.071  0.0769 -0.0713  0.1439
  736loPI   C2B10766   0.099  15.425   7.508 -0.0321 -0.1466  0.3026
  736loPI   C3B10767   0.465  15.594   7.794  0.3530  0.1701 -0.0753
  736loPI   C4B10768   0.554  15.470   8.179  0.1864 -0.2110 -0.0418
  737loPI    C110769  12.143  10.590   5.540  0.1857 -0.2363 -0.0204
  737loPI    C210770  11.790  10.425   5.630  0.1790 -0.1019  0.2046
  737loPI    C310771  11.854  10.571   5.264  0.0563 -0.2677  0.1159
  737loPI   PO410772  12.220  10.491   5.844 -0.4862  0.0834 -0.1742
  737loPI   GL110773  12.234  10.781   6.321 -0.1400 -0.0861  0.1554
  737loPI   GL210774  12.472  10.561   6.288  0.1702 -0.1858  0.3109
  737loPI   C1A10775  12.367  10.753   6.727  0.0410  0.5516  0.2943
  737loPI   C2A10776  12.467  10.716   7.155 -0.0896 -0.0111 -0.1785
  737loPI   C3A10777  12.397  10.650   7.617  0.0837 -0.2324 -0.1347
  737loPI   C4A10778  12.415  10.561   7.963  0.0827 -0.0252  0.3604
  737loPI   C5A10779  12.540  10.437   8.348 -0.0795 -0.2348 -0.3927
  737loPI   C6A10780  12.651  10.442   8.777 -0.0554  0.0914 -0.0091
  737loPI   C1B10781  12.764  10.429   6.527 -0.0723  0.0380 -0.0571
  737loPI   C2B10782  12.892  10.336   6.910  0.0115  0.0917  0.1177
  737loPI   C3B10783  12.862  10.370   7.383 -0.2080  0.2587  0.0523
  737loPI   C4B10784  12.792  10.223   7.800 -0.0875 -0.1417  0.1241
  738loPI    C110785   0.072   2.920   5.965 -0.0276  0.1023  0.0058
  738loPI    C210786   0.370   3.064   5.739  0.3511  0.0212  0.4393
  738loPI    C310787   0.180   2.729   5.631  0.1689  0.2662 -0.0265
  738loPI   PO410788   0.016   2.836   6.240 -0.0130 -0.0878  0.0530
  738loPI   GL110789   0.329   2.834   6.537  0.0511 -0.2265 -0.0712
  738loPI   GL210790   0.440   3.055   6.709  0.0774 -0.0867  0.0701
  738loPI   C1A10791   0.352   2.567   6.983 -0.0784 -0.1621  0.2170
  738loPI   C2A10792   0.528   2.602   7.246  0.0679 -0.2846 -0.2650
  738loPI   C3A10793   0.411   2.601   7.632  0.1666  0.1756  0.2064
  738loPI   C4A10794   0.506   2.597   8.038 -0.0771 -0.0198  0.1004
  738loPI   C5A10795   0.487   2.646   8.425 -0.0837  0.2088 -0.0820
  738loPI   C6A10796   0.437   3.022   8.770 -0.2981 -0.0784  0.0592
  738loPI   C1B10797   0.543   3.139   7.159 -0.2665  0.2321 -0.0401
  738loPI   C2B10798   0.429   3.086   7.577  0.0583 -0.2647 -0.1275
  738loPI   C3B10799   0.476   3.185   7.963  0.2600 -0.1786  0.3899
  738loPI   C4B10800   0.664   3.128   8.286 -0.1814  0.0413 -0.1896
  739loPI    C110801   5.422   2.177   5.596 -0.0317  0.1568 -0.2261
  739loPI    C210802   5.338   1.873   5.350 -0.0316  0.0323 -0.0746
  739loPI    C310803   5.303   2.250   5.222  0.0241 -0.0313 -0.2821
  739loPI   PO410804   5.558   2.228   5.824  0.0041 -0.1941  0.0739
  739loPI   GL110805   5.654   2.279   6.219 -0.0507 -0.4354  0.0854
  739loPI   GL210806   5.854   2.210   6.346  0.3234 -0.1805 -0.1280
  739loPI   C1A10807   5.545   2.557   6.550  0.2797  0.0281 -0.0743
  739loPI   C2A10808   5.518   2.712   7.010  0.0853 -0.1058  0.0419
  739loPI   C3A10809   5.365   2.708   7.363  0.2069  0.0336  0.1572
  739loPI   C4A10810   5.589   2.791   7.584  0.0862 -0.1438 -0.1216
  739loPI   C5A10811   5.556   2.847   8.050 -0.1083 -0.0315 -0.0261
  739loPI   C6A10812   5.791   2.751   8.410  0.2768  0.1764  0.2265
  739loPI   C1B10813   5.932   2.359   6.788  0.0282  0.2778  0.0505
  739loPI   C2B10814   6.036   2.418   7.218  0.2246  0.1127 -0.1221
  739loPI   C3B10815   5.922   2.407   7.668  0.2062  0.3540  0.1010
  739loPI   C4B10816   5.843   2.402   8.054 -0.0547  0.2861 -0.1666
  740loPI    C110817   7.055   5.762   5.893 -0.0235  0.1277 -0.0416
  740loPI    C210818   6.723   5.575   6.013  0.0946 -0.1660 -0.1608
  740loPI    C310819   6.765   5.683   5.630  0.0768  0.0032 -0.1162
  740loPI   PO410820   7.251   5.648   6.048 -0.1555  0.0435  0.2237
  740loPI   GL110821   7.391   5.753   6.598  0.4212 -0.0209 -0.1939
  740loPI   GL210822   7.088   5.668   6.541  0.1284  0.2903 -0.0885
  740loPI   C1A10823   7.508   5.807   7.017  0.2525 -0.0287  0.1745
  740loPI   C2A10824   7.373   5.837   7.486 -0.3421  0.1213  0.1728
  740loPI   C3A10825   7.430   5.760   7.928  0.3965 -0.0697  0.4655
  740loPI   C4A10826   7.345   5.832   8.304 -0.1181 -0.0373  0.0125
  740loPI   C5A10827   7.384   5.707   8.671 -0.1704  0.1169  0.2173
  740loPI   C6A10828   7.433   5.886   8.994  0.0345 -0.2857  0.2562
  740loPI   C1B10829   6.972   5.532   6.939  0.0439 -0.0579 -0.2594
  740loPI   C2B10830   6.900   5.641   7.406 -0.0320 -0.2574 -0.0811
  740loPI   C3B10831   6.909   5.538   7.785  0.1065  0.2518  0.1935
  740loPI   C4B10832   6.786   5.575   8.284  0.1658 -0.0083 -0.0326
  741loPI    C110833  17.420   1.947   6.004  0.0465 -0.3672  0.1073
  741loPI    C210834  17.091   1.859   6.213 -0.1688  0.1294 -0.0087
  741loPI    C310835  17.068   1.917   5.818  0.1247 -0.1774 -0.0754
  741loPI   PO410836  17.604   1.894   6.162  0.2400 -0.0832  0.0442
  741loPI   GL110837  17.559   1.626   6.483 -0.0978  0.0454  0.0569
  741loPI   GL210838  17.857   1.907   6.587 -0.2578 -0.1513  0.0667
  741loPI   C1A10839  17.804   1.508   6.907 -0.0903  0.1765 -0.0122
  741loPI   C2A10840  17.916   1.571   7.269 -0.0792 -0.1370  0.2632
  741loPI   C3A10841  17.882   1.594   7.750 -0.2501 -0.4539  0.1331
  741loPI   C4A10842  17.843   1.654   8.132  0.1157  0.0160  0.1293
  741loPI   C5A10843  17.801   1.687   8.461 -0.2066 -0.0816  0.1845
  741loPI   C6A10844  17.982   1.619   8.885  0.1818 -0.0146 -0.2607
  741loPI   C1B10845  17.831   2.015   7.007 -0.1602  0.1889  0.0219
  741loPI   C2B10846  17.927   2.154   7.414  0.0061 -0.0558 -0.2715
  741loPI   C3B10847  17.838   2.099   7.873  0.0497  0.1260  0.2551
  741loPI   C4B10848  17.882   2.168   8.291  0.0966  0.1558 -0.0496
  742loPI    C110849  10.905  10.550   5.814  0.0606 -0.1038  0.0961
  742loPI    C210850  10.760  10.400   5.473 -0.0854  0.2807 -0.0159
  742loPI    C310851  10.986  10.729   5.466  0.2772  0.0435  0.2202
  742loPI   PO410852  10.749  10.653   5.977  0.2430  0.4869 -0.0450
  742loPI   GL110853  10.719  10.651   6.408 -0.0098 -0.3092  0.1795
  742loPI   GL210854  10.453  10.404   6.372 -0.2870 -0.2225 -0.0415
  742loPI   C1A10855  10.954  10.717   6.879  0.0512 -0.2083 -0.0971
  742loPI   C2A10856  10.917  10.619   7.216 -0.1255 -0.4196 -0.3607
  742loPI   C3A10857  11.037  10.680   7.696  0.1901 -0.1124  0.1362
  742loPI   C4A10858  11.020  10.522   8.133 -0.2519  0.0089  0.1592
  742loPI   C5A10859  10.847  10.315   8.501  0.2958 -0.0706 -0.1295
  742loPI   C6A10860  10.460  10.234   8.660  0.2622  0.2114 -0.1698
  742loPI   C1B10861  10.482  10.468   6.895  0.1098  0.1140  0.0456
  742loPI   C2B10862  10.482  10.471   7.393 -0.0352  0.1989  0.4178
  742loPI   C3B10863  10.540  10.436   7.855 -0.0227  0.2236  0.1596
  742loPI   C4B10864  10.332  10.466   8.212  0.1780  0.2762 -0.4260
  743loPI    C110865   9.830   2.261   6.276  0.0571  0.0612 -0.0430
  743loPI    C210866   9.533   2.123   6.047  0.0905  0.1774 -0.1576
  743loPI    C310867   9.499   2.479   6.225  0.1526  0.1822 -0.1549
  743loPI   PO410868   9.865   1.938   6.411  0.0178 -0.0829 -0.0824
  743loPI   GL110869  10.009   1.920   6.801 -0.0024  0.2297 -0.1924
  743loPI   GL210870  10.088   1.633   6.765  0.0540  0.2156 -0.1657
  743loPI   C1A10871   9.869   1.968   7.253 -0.2669  0.2712 -0.0293
  743loPI   C2A10872   9.900   2.009   7.698 -0.1045 -0.0224 -0.4430
  743loPI   C3A10873   9.966   1.965   8.151  0.2274  0.0532  0.1038
  743loPI   C4A10874  10.231   1.949   8.521 -0.0371 -0.3525  0.4361
  743loPI   C5A10875  10.414   1.940   8.918  0.2390  0.3064  0.1165
  743loPI   C6A10876  10.206   1.776   9.262 -0.0166 -0.0221  0.0807
  743loPI   C1B10877   9.925   1.437   7.072  0.0898  0.2199  0.0095
  743loPI   C2B10878   9.806   1.516   7.528  0.3340 -0.2819  0.0321
  743loPI   C3B10879   9.831   1.477   7.960  0.2063  0.3988 -0.0439
  743loPI   C4B10880   9.924   1.409   8.424  0.1520  0.1396 -0.2040
  744loPI    C110881   8.675  13.734   5.397 -0.1088 -0.2958  0.0425
  744loPI    C210882   8.316  13.558   5.404 -0.1270 -0.2616 -0.0264
  744loPI    C310883   8.636  13.353   5.279 -0.1411 -0.2588 -0.0674
  744loPI   PO410884   8.614  13.838   5.674  0.4592  0.1395 -0.0811
  744loPI   GL110885   8.810  13.747   6.097  0.2540  0.0421 -0.3294
  744loPI   GL210886   8.419  13.907   6.146 -0.0309  0.3075  0.3038
  744loPI   C1A10887   8.717  13.688   6.537  0.0057  0.1205 -0.0386
  744loPI   C2A10888   8.726  13.614   6.959  0.1074 -0.0030 -0.1893
  744loPI   C3A10889   8.651  13.582   7.364 -0.1089  0.3057  0.2078
  744loPI   C4A10890   8.639  13.627   7.860 -0.1686 -0.2128 -0.0598
  744loPI   C5A10891   8.656  13.589   8.346 -0.3770 -0.3416  0.0685
  744loPI   C6A10892   8.372  13.743   8.626  0.0406  0.2647 -0.0695
  744loPI   C1B10893   8.354  14.033   6.662 -0.1169 -0.1552  0.0360
  744loPI   C2B10894   8.280  13.951   7.056 -0.6544 -0.2237 -0.3525
  744loPI   C3B10895   8.239  13.956   7.514 -0.0027 -0.1246 -0.1436
  744loPI   C4B10896   8.226  13.969   7.981 -0.0343  0.0686 -0.0711
  745loPI    C110897  11.632  16.180   6.227 -0.0047 -0.0759  0.0865
  745loPI    C210898  11.577  15.967   5.893 -0.2328  0.1612 -0.0311
  745loPI    C310899  11.838  16.270   5.896 -0.1691  0.1059  0.0316
  745loPI   PO410900  11.366  16.155   6.366 -0.1388 -0.1216  0.2210
  745loPI   GL110901  10.921  15.932   6.507  0.1485  0.0328 -0.1176
  745loPI   GL210902  11.170  15.946   6.784 -0.1846 -0.2874 -0.3105
  745loPI   C1A10903  10.746  16.260   6.688  0.2057  0.2365  0.0352
  745loPI   C2A10904  10.531  16.382   7.087 -0.3126 -0.2998  0.0180
  745loPI   C3A10905  10.465  16.359   7.521 -0.0984 -0.2132 -0.0733
  745loPI   C4A10906  10.271  16.369   7.969 -0.4696  0.0692 -0.0821
  745loPI   C5A10907  10.234  16.129   8.382 -0.0365  0.0313  0.1150
  745loPI   C6A10908  10.346  16.139   8.854 -0.1368 -0.3775  0.0173
  745loPI   C1B10909  10.984  16.064   7.178  0.2166 -0.1943 -0.0512
  745loPI   C2B10910  11.057  16.274   7.514  0.3881 -0.0349  0.0730
  745loPI   C3B10911  10.778  16.464   7.849 -0.1225  0.1955  0.1415
  745loPI   C4B10912  10.788  16.367   8.276  0.1748  0.0705 -0.0432
  746loPI    C110913   0.533   0.449   5.789  0.0726  0.0460 -0.1148
  746loPI    C210914   0.577   0.060   5.870 -0.0955  0.0637  0.0697
  746loPI    C310915   0.744   0.216   5.541 -0.1026 -0.1820 -0.0527
  746loPI   PO410916   0.619   0.575   5.983 -0.1194 -0.0319  0.3107
  746loPI   GL110917   0.768   0.629   6.401 -0.0489 -0.0592 -0.0716
  746loPI   GL210918   0.536   0.687   6.512  0.3810  0.0832  0.0740
  746loPI   C1A10919   0.960   0.408   6.721  0.2251 -0.0215 -0.0049
  746loPI   C2A10920   1.029   0.395   7.144  0.0780 -0.2592  0.1796
  746loPI   C3A10921   1.076   0.501   7.578  0.2694  0.1545 -0.0120
  746loPI   C4A10922   1.013   0.524   7.990  0.1263 -0.2054  0.0230
  746loPI   C5A10923   1.113   0.645   8.402  0.4037 -0.1099 -0.5167
  746loPI   C6A10924   1.092   0.799   8.837  0.1253 -0.1762  0.2828
  746loPI   C1B10925   0.610   0.644   6.975 -0.1109 -0.1317  0.5255
  746loPI   C2B10926   0.645   0.625   7.292 -0.0350  0.1965  0.2634
  746loPI   C3B10927   0.570   0.814   7.673  0.0310  0.1984 -0.1520
  746loPI   C4B10928   0.544   0.808   8.058 -0.0898  0.0466 -0.1083
  747loPI    C110929   4.597   4.808   6.032 -0.1670  0.1885  0.0602
  747loPI    C210930   4.595   5.131   5.795  0.0566 -0.0012 -0.2068
  747loPI    C310931   4.327   4.839   5.737  0.0586 -0.0099 -0.1724
  747loPI   PO410932   4.507   4.873   6.280 -0.3190 -0.1651  0.2079
  747loPI   GL110933   4.445   4.592   6.626  0.1593 -0.4396  0.1413
  747loPI   GL210934   4.179   4.764   6.609 -0.1229 -0.0197  0.1633
  747loPI   C1A10935   4.419   4.726   7.159  0.0764  0.3141 -0.1239
  747loPI   C2A10936   4.434   4.737   7.647 -0.1745  0.3401 -0.3127
  747loPI   C3A10937   4.467   4.683   8.012 -0.0953 -0.1654  0.0960
  747loPI   C4A10938   4.286   4.682   8.396  0.3309 -0.2754 -0.1320
  747loPI   C5A10939   4.482   4.489   8.754 -0.0762  0.2449 -0.0869
  747loPI   C6A10940   4.522   4.594   9.179  0.3567  0.3399  0.2270
  747loPI   C1B10941   3.998   4.981   6.992  0.2267  0.0429  0.1030
  747loPI   C2B10942   4.041   4.975   7.433 -0.0026 -0.0958 -0.1867
  747loPI   C3B10943   3.952   4.929   7.904  0.0392 -0.0295  0.1495
  747loPI   C4B10944   3.841   4.964   8.252 -0.0371 -0.1945 -0.1235
  748loPI    C110945   2.622  13.380   6.032  0.0329 -0.5101 -0.1567
  748loPI    C210946   2.368  13.383   5.723 -0.0563  0.0768 -0.0894
  748loPI    C310947   2.742  13.519   5.676 -0.0089 -0.0158  0.0150
  748loPI   PO410948   2.480  13.371   6.217  0.3353  0.0185  0.1306
  748loPI   GL110949   2.719  13.343   6.507 -0.0456 -0.0338 -0.0629
  748loPI   GL210950   2.660  13.170   6.692  0.0201 -0.3774 -0.0587
  748loPI   C1A10951   3.082  13.378   6.798 -0.2142 -0.0834 -0.0694
  748loPI   C2A10952   3.093  13.355   7.278 -0.3519  0.1237  0.0635
  748loPI   C3A10953   3.210  13.292   7.794 -0.2655 -0.1154 -0.0673
  748loPI   C4A10954   3.278  13.256   8.303 -0.0416 -0.0868  0.1451
  748loPI   C5A10955   3.251  13.051   8.728  0.0598 -0.0003  0.3131
  748loPI   C6A10956   3.190  12.654   8.901 -0.2319 -0.0450  0.0173
  748loPI   C1B10957   2.708  13.115   7.140  0.2182  0.2138  0.1518
  748loPI   C2B10958   2.764  13.218   7.616  0.1353  0.1207 -0.3861
  748loPI   C3B10959   2.710  13.172   8.040  0.0244 -0.2090  0.1355
  748loPI   C4B10960   2.814  13.186   8.446  0.1192 -0.0677  0.0279
  749loPI    C110961  14.526   1.181   6.044  0.1995 -0.0434  0.0735
  749loPI    C210962  14.336   1.257   5.701 -0.0720 -0.0309  0.2241
  749loPI    C310963  14.652   1.012   5.704 -0.1095 -0.0853 -0.0229
  749loPI   PO410964  14.338   1.072   6.233 -0.1346 -0.1765 -0.0157
  749loPI   GL110965  14.209   1.273   6.578  0.0298  0.0352 -0.4934
  749loPI   GL210966  14.093   1.630   6.668  0.0111  0.0669  0.3901
  749loPI   C1A10967  14.493   1.110   6.976  0.2511 -0.0080 -0.2892
  749loPI   C2A10968  14.515   1.237   7.448 -0.0103  0.1327 -0.0481
  749loPI   C3A10969  14.526   1.296   7.866  0.1053 -0.1485  0.2479
  749loPI   C4A10970  14.729   1.551   8.183 -0.0320  0.0418  0.2572
  749loPI   C5A10971  14.887   1.873   8.265 -0.0236 -0.1312  0.4606
  749loPI   C6A10972  15.044   2.195   8.464  0.0955  0.0244  0.2354
  749loPI   C1B10973  14.098   1.419   7.140  0.3134 -0.3837 -0.3018
  749loPI   C2B10974  14.091   1.521   7.577  0.2439  0.1222  0.1882
  749loPI   C3B10975  14.160   1.621   7.947  0.0318 -0.0365 -0.1187
  749loPI   C4B10976  14.400   1.923   8.189 -0.1868 -0.2127 -0.4249
  750loPI    C110977   3.771   3.739   5.833  0.1017  0.2865  0.1251
  750loPI    C210978   3.454   3.929   5.681  0.1817  0.2495 -0.0929
  750loPI    C310979   3.741   3.795   5.438  0.0836 -0.2329  0.0460
  750loPI   PO410980   3.577   3.570   6.027 -0.0986  0.1763 -0.1311
  750loPI   GL110981   3.449   3.616   6.512 -0.0332 -0.3848  0.0877
  750loPI   GL210982   3.260   3.405   6.414 -0.3875  0.1848  0.2765
  750loPI   C1A10983   3.729   3.350   6.722  0.1128 -0.0296 -0.0559
  750loPI   C2A10984   3.851   3.385   7.163  0.2322 -0.1138  0.1142
  750loPI   C3A10985   3.743   3.424   7.601  0.1969 -0.0705 -0.1065
  750loPI   C4A10986   3.803   3.424   7.989  0.1940  0.3154  0.2585
  750loPI   C5A10987   4.009   3.291   8.302  0.0572  0.1917  0.1813
  750loPI   C6A10988   4.133   3.198   8.713 -0.2316 -0.0087 -0.0643
  750loPI   C1B10989   3.244   3.326   6.909  0.0632  0.0346  0.2803
  750loPI   C2B10990   3.302   3.224   7.317 -0.2905 -0.1462  0.5862
  750loPI   C3B10991   3.254   3.266   7.727  0.0640  0.0882 -0.0982
  750loPI   C4B10992   3.305   3.175   8.058 -0.0364  0.1191 -0.3629
  751loPI    C110993  12.069   9.461   5.729  0.2488 -0.0683  0.1563
  751loPI    C210994  12.200   9.190   5.466  0.1542 -0.0317  0.0706
  751loPI    C310995  12.248   9.580   5.391  0.0705 -0.0200  0.0776
  751loPI   PO410996  11.814   9.468   5.809  0.1075  0.3206 -0.0741
  751loPI   GL110997  11.611   9.652   6.137  0.1609 -0.2570  0.2733
  751loPI   GL210998  11.431   9.907   6.291 -0.0414  0.0881 -0.0831
  751loPI   C1A10999  11.661   9.577   6.602  0.2773  0.0094 -0.2231
  751loPI   C2A11000  11.763   9.483   6.995  0.1745  0.2264  0.0819
  751loPI   C3A11001  11.815   9.489   7.420 -0.2100  0.0399  0.1172
  751loPI   C4A11002  11.744   9.412   7.879 -0.0131  0.0978  0.0481
  751loPI   C5A11003  11.780   9.382   8.272 -0.0765  0.1890  0.1010
  751loPI   C6A11004  11.842   9.155   8.614 -0.2401  0.0231 -0.0632
  751loPI   C1B11005  11.321   9.934   6.766 -0.2102 -0.0946  0.4962
  751loPI   C2B11006  11.352   9.775   7.136  0.1089 -0.0399  0.0638
  751loPI   C3B11007  11.396   9.728   7.522  0.0699  0.1977 -0.1643
  751loPI   C4B11008  11.348   9.765   8.028  0.2975  0.0073 -0.3189
  752loPI    C111009  10.243  17.480   5.928 -0.1048 -0.5269  0.3906
  752loPI    C211010   9.967  17.309   5.695 -0.2529  0.0611  0.1140
  752loPI    C311011  10.239  17.554   5.535  0.1066 -0.0992  0.4628
  752loPI   PO411012  10.272  17.247   6.205 -0.3065 -0.0706 -0.0493
  752loPI   GL111013  10.513  17.026   6.473  0.2595  0.1908 -0.2252
  752loPI   GL211014  10.471  16.733   6.648 -0.2963 -0.3754  0.4297
  752loPI   C1A11015  10.427  17.226   6.915 -0.1866 -0.4388 -0.1697
  752loPI   C2A11016  10.423  17.304   7.339 -0.0771 -0.2830 -0.0124
  752loPI   C3A11017  10.621  17.324   7.630 -0.2855 -0.0155  0.0929
  752loPI   C4A11018  10.623  17.341   7.997  0.0538 -0.1844  0.1894
  752loPI   C5A11019  10.595  17.280   8.500  0.0804 -0.1669  0.1414
  752loPI   C6A11020  10.681  17.186   8.896 -0.2809 -0.3237  0.1554
  752loPI   C1B11021  10.389  16.808   7.183 -0.1770 -0.1217 -0.2032
  752loPI   C2B11022  10.470  16.809   7.677 -0.3722 -0.1826 -0.3540
  752loPI   C3B11023  10.480  16.828   8.121  0.2388  0.0882  0.0250
  752loPI   C4B11024  10.803  16.833   8.544  0.0960 -0.0694  0.0959
  753loPI    C111025  14.997   3.746   5.740 -0.2580 -0.1470  0.0795
  753loPI    C211026  14.999   3.369   5.605 -0.2101 -0.1810  0.1737
  753loPI    C311027  14.891   3.669   5.362  0.1522 -0.2080 -0.0281
  753loPI   PO411028  14.820   3.810   6.003 -0.0442  0.1263 -0.0282
  753loPI   GL111029  14.669   3.615   6.326  0.7260  0.1569  0.1917
  753loPI   GL211030  14.770   3.365   6.428 -0.1064  0.2574  0.1042
  753loPI   C1A11031  14.453   3.615   6.798  0.2824 -0.1641 -0.2286
  753loPI   C2A11032  14.399   3.687   7.225  0.0748 -0.0806 -0.2252
  753loPI   C3A11033  14.505   3.521   7.622  0.0964 -0.2310  0.0281
  753loPI   C4A11034  14.477   3.667   8.147 -0.1451  0.2578  0.0320
  753loPI   C5A11035  14.447   3.524   8.469 -0.4626 -0.0832 -0.2286
  753loPI   C6A11036  14.366   3.317   8.806  0.0490  0.2690 -0.1501
  753loPI   C1B11037  14.882   3.318   6.860 -0.3017  0.1427  0.1459
  753loPI   C2B11038  14.879   3.341   7.347 -0.2687  0.0363  0.1812
  753loPI   C3B11039  14.879   3.256   7.739  0.0536  0.2646 -0.0154
  753loPI   C4B11040  14.796   3.258   8.225  0.1108 -0.1726 -0.0840
  754loPI    C111041  15.455   6.068   5.897  0.2894 -0.1987  0.0325
  754loPI    C211042  15.693   6.027   5.578  0.0925  0.0513 -0.1500
  754loPI    C311043  15.470   6.357   5.621  0.0396 -0.0256  0.1960
  754loPI   PO411044  15.583   5.974   6.061  0.1404  0.1217 -0.0603
  754loPI   GL111045  15.699   6.224   6.426  0.1302 -0.3312 -0.4255
  754loPI   GL211046  15.456   6.045   6.574 -0.0091  0.0353 -0.0593
  754loPI   C1A11047  15.794   6.099   6.950  0.1847  0.3805  0.0238
  754loPI   C2A11048  15.797   6.118   7.411  0.1117 -0.1645  0.0602
  754loPI   C3A11049  15.789   6.054   7.831 -0.1798 -0.0162  0.2635
  754loPI   C4A11050  15.737   6.153   8.231  0.2059  0.1399  0.0603
  754loPI   C5A11051  15.572   6.439   8.488 -0.2324 -0.0307 -0.0576
  754loPI   C6A11052  15.524   6.753   8.735 -0.2819 -0.0730 -0.0914
  754loPI   C1B11053  15.279   6.422   6.929 -0.1345  0.0857  0.1684
  754loPI   C2B11054  15.372   6.359   7.227  0.0776 -0.0028  0.2435
  754loPI   C3B11055  15.317   6.462   7.599  0.0895 -0.1087 -0.2415
  754loPI   C4B11056  15.396   6.443   7.995 -0.0194 -0.1401  0.1129
  755loPI    C111057   7.102   4.735   5.947 -0.0838 -0.2044  0.0542
  755loPI    C211058   7.204   4.490   5.648 -0.0678 -0.1368  0.0041
  755loPI    C311059   6.943   4.785   5.583  0.0267 -0.0477  0.0263
  755loPI   PO411060   7.298   4.766   6.089  0.3919  0.1467  0.4511
  755loPI   GL111061   7.416   4.801   6.545 -0.2795  0.1349 -0.2639
  755loPI   GL211062   7.606   4.471   6.613 -0.3171 -0.3949  0.1340
  755loPI   C1A11063   7.306   4.780   6.891 -0.2052 -0.1443  0.3100
  755loPI   C2A11064   7.236   4.740   7.354  0.2428  0.0199 -0.3182
  755loPI   C3A11065   7.238   4.874   7.780 -0.1145 -0.2163  0.2824
  755loPI   C4A11066   7.212   4.813   8.252  0.0523  0.1321 -0.1987
  755loPI   C5A11067   7.331   4.697   8.699 -0.2367 -0.1904  0.1239
  755loPI   C6A11068   7.204   4.458   9.009 -0.1343 -0.0339  0.2413
  755loPI   C1B11069   7.702   4.419   7.000 -0.2542  0.1311  0.1165
  755loPI   C2B11070   7.742   4.423   7.366  0.1719 -0.1460 -0.0021
  755loPI   C3B11071   7.708   4.418   7.821  0.0943 -0.2876 -0.1643
  755loPI   C4B11072   7.666   4.493   8.317 -0.1382  0.0050  0.1532
  756loPI    C111073  13.998   8.601   5.959  0.1439 -0.0850  0.0095
  756loPI    C211074  13.873   8.955   5.821 -0.0799 -0.1504  0.0395
  756loPI    C311075  13.671   8.622   5.730  0.0728 -0.2592  0.0930
  756loPI   PO411076  14.007   8.708   6.229 -0.1134  0.1019 -0.0568
  756loPI   GL111077  13.977   8.644   6.554 -0.0589 -0.0540  0.2405
  756loPI   GL211078  13.831   8.894   6.673  0.0671  0.1599  0.0280
  756loPI   C1A11079  13.782   8.318   6.809  0.0094  0.0262 -0.2470
  756loPI   C2A11080  13.738   8.355   7.311 -0.4160 -0.0458 -0.3827
  756loPI   C3A11081  13.827   8.349   7.728 -0.1173 -0.1203 -0.1575
  756loPI   C4A11082  13.684   8.245   8.132  0.0370  0.3470  0.0237
  756loPI   C5A11083  13.791   8.166   8.572 -0.2739  0.1130  0.1747
  756loPI   C6A11084  13.823   8.234   8.967 -0.2760 -0.0695  0.0200
  756loPI   C1B11085  13.849   8.791   7.141  0.1958  0.2221  0.2276
  756loPI   C2B11086  13.875   8.804   7.549 -0.1079 -0.1040 -0.1177
  756loPI   C3B11087  13.838   8.783   7.978  0.3054 -0.0095  0.0686
  756loPI   C4B11088  13.776   8.712   8.313 -0.0413  0.2473  0.2503
  757loPI    C111089  16.444  10.469   5.796  0.0576  0.1796  0.0386
  757loPI    C211090  16.075  10.553   5.666  0.0043  0.0119  0.0775
  757loPI    C311091  16.276  10.243   5.512  0.1490  0.1319  0.0220
  757loPI   PO411092  16.393  10.506   6.079 -0.1767 -0.2888  0.0276
  757loPI   GL111093  16.322  10.380   6.502  0.2489 -0.2405 -0.1626
  757loPI   GL211094  16.009  10.252   6.616  0.2631 -0.1464  0.0879
  757loPI   C1A11095  16.535  10.320   6.898  0.1505 -0.2174 -0.1019
  757loPI   C2A11096  16.549  10.341   7.340  0.0373 -0.0878  0.0123
  757loPI   C3A11097  16.449  10.311   7.771  0.2819  0.2042  0.1648
  757loPI   C4A11098  16.498  10.359   8.191  0.0907 -0.2020  0.0150
  757loPI   C5A11099  16.656  10.399   8.661 -0.0674 -0.0760 -0.2194
  757loPI   C6A11100  16.423  10.576   9.059 -0.0396  0.0923 -0.1439
  757loPI   C1B11101  16.087  10.167   7.123  0.0034  0.0996 -0.3825
  757loPI   C2B11102  15.974  10.139   7.466 -0.3766 -0.0775 -0.1196
  757loPI   C3B11103  15.910  10.031   7.824  0.0455  0.0807  0.2372
  757loPI   C4B11104  16.079  10.032   8.319  0.0284  0.0607  0.0939
  758loPI    C111105   2.881   4.356   6.197 -0.0026  0.1710 -0.2079
  758loPI    C211106   2.923   4.522   5.836  0.2351 -0.1038 -0.3102
  758loPI    C311107   3.124   4.189   5.928  0.0006 -0.1653 -0.0023
  758loPI   PO411108   2.699   4.555   6.271  0.3154  0.2575  0.1594
  758loPI   GL111109   2.636   4.846   6.602  0.0625  0.0522  0.0022
  758loPI   GL211110   2.604   5.135   6.604 -0.0056 -0.0631  0.0964
  758loPI   C1A11111   2.648   5.007   7.052  0.4793  0.1559  0.3653
  758loPI   C2A11112   2.623   5.016   7.555  0.3086 -0.0169 -0.1018
  758loPI   C3A11113   2.612   5.077   7.943  0.0938  0.1391 -0.1138
  758loPI   C4A11114   2.516   4.949   8.285 -0.2993  0.1265  0.0202
  758loPI   C5A11115   2.805   4.908   8.668 -0.0286 -0.2101  0.1493
  758loPI   C6A11116   2.969   4.580   8.873  0.0505 -0.0571  0.0052
  758loPI   C1B11117   2.272   5.323   6.889  0.1090 -0.1417 -0.0152
  758loPI   C2B11118   2.191   5.276   7.368  0.0975 -0.1688 -0.1003
  758loPI   C3B11119   2.185   5.297   7.734 -0.1822 -0.3267  0.1589
  758loPI   C4B11120   2.244   5.354   8.114  0.2421  0.0006 -0.2003
  759loPI    C111121   7.232  12.493   5.662 -0.3437  0.1842 -0.2659
  759loPI    C211122   7.388  12.129   5.604  0.1483  0.3200  0.1305
  759loPI    C311123   7.366  12.388   5.300  0.2486  0.1284 -0.0424
  759loPI   PO411124   7.064  12.469   5.903  0.0058 -0.1264 -0.1077
  759loPI   GL111125   7.090  12.555   6.312 -0.3560  0.3839 -0.0709
  759loPI   GL211126   7.075  12.262   6.526  0.1720  0.0031 -0.1318
  759loPI   C1A11127   7.230  12.632   6.767  0.1814 -0.3282 -0.1788
  759loPI   C2A11128   7.208  12.612   7.169  0.3155  0.2901 -0.0604
  759loPI   C3A11129   7.239  12.600   7.559 -0.0683 -0.1352  0.3300
  759loPI   C4A11130   7.101  12.517   7.946  0.1544  0.0048 -0.0445
  759loPI   C5A11131   6.877  12.466   8.310  0.0677  0.3988  0.0617
  759loPI   C6A11132   6.505  12.577   8.416  0.1390 -0.1387 -0.2560
  759loPI   C1B11133   7.129  12.151   6.982 -0.0664 -0.0261 -0.0402
  759loPI   C2B11134   7.077  12.078   7.424 -0.2737 -0.0507  0.1074
  759loPI   C3B11135   7.022  12.002   7.854 -0.2044  0.0539 -0.1247
  759loPI   C4B11136   7.100  11.808   8.344 -0.1839 -0.1073  0.3451
  760loPI    C111137   2.526   7.814   5.655  0.0559 -0.1915 -0.0886
  760loPI    C211138   2.200   7.956   5.838  0.0529 -0.1590 -0.1192
  760loPI    C311139   2.198   7.897   5.442  0.0771 -0.1789 -0.1165
  760loPI   PO411140   2.716   7.708   5.817  0.0829 -0.1654 -0.0239
  760loPI   GL111141   2.787   7.843   6.177  0.1982  0.0778  0.0903
  760loPI   GL211142   2.419   7.737   6.226 -0.3125 -0.2610  0.4042
  760loPI   C1A11143   2.810   7.900   6.560  0.2799  0.1137 -0.0678
  760loPI   C2A11144   2.793   7.910   6.957  0.0421 -0.0184 -0.0663
  760loPI   C3A11145   2.575   7.940   7.419  0.1209  0.0592 -0.1039
  760loPI   C4A11146   2.625   8.040   7.801  0.0510  0.1978 -0.1161
  760loPI   C5A11147   2.546   7.998   8.220  0.1029  0.0238  0.1876
  760loPI   C6A11148   2.193   8.067   8.492 -0.1722 -0.0272 -0.0404
  760loPI   C1B11149   2.359   7.697   6.745  0.3617 -0.2103 -0.1948
  760loPI   C2B11150   2.200   7.728   7.170  0.0365 -0.1129  0.0504
  760loPI   C3B11151   2.118   7.674   7.554 -0.1742  0.0513  0.0640
  760loPI   C4B11152   2.114   7.761   7.980  0.1280 -0.0115 -0.0550
  761loPI    C111153  11.437  12.324   6.070 -0.0218 -0.0831 -0.1914
  761loPI    C211154  11.269  12.153   5.750 -0.0577 -0.0824 -0.1730
  761loPI    C311155  11.655  12.258   5.741 -0.0743 -0.0269 -0.2377
  761loPI   PO411156  11.243  12.477   6.217 -0.3570  0.3230 -0.1987
  761loPI   GL111157  11.146  12.423   6.580  0.0267 -0.1942 -0.0743
  761loPI   GL211158  11.087  12.057   6.508 -0.2783  0.2745 -0.3199
  761loPI   C1A11159  11.285  12.213   6.891  0.0526  0.3218 -0.0158
  761loPI   C2A11160  11.254  12.173   7.230 -0.0591 -0.0416 -0.2167
  761loPI   C3A11161  11.137  12.154   7.692 -0.1923 -0.0066  0.0077
  761loPI   C4A11162  11.217  12.046   8.139 -0.0690  0.0239  0.2230
  761loPI   C5A11163  11.531  11.824   8.361 -0.0257 -0.1757  0.1322
  761loPI   C6A11164  11.484  11.609   8.768  0.2007  0.3112  0.1756
  761loPI   C1B11165  11.070  11.801   6.952 -0.1196  0.2182  0.2954
  761loPI   C2B11166  11.128  11.675   7.367 -0.0115 -0.0550 -0.0033
  761loPI   C3B11167  11.266  11.667   7.786 -0.2019  0.1987  0.3289
  761loPI   C4B11168  11.654  11.755   7.898  0.2384 -0.0060 -0.2946
  762loPI    C111169  13.090   4.949   5.726  0.1518 -0.1576  0.0034
  762loPI    C211170  12.892   4.654   5.541 -0.1169 -0.0086  0.0488
  762loPI    C311171  13.052   4.953   5.328 -0.0293 -0.0751  0.0207
  762loPI   PO411172  13.101   4.802   6.044 -0.0791  0.0613 -0.0373
  762loPI   GL111173  13.309   4.428   6.389 -0.0259  0.0941 -0.1048
  762loPI   GL211174  13.643   4.556   6.506 -0.1125 -0.0354 -0.1991
  762loPI   C1A11175  13.118   4.539   6.836 -0.0158  0.0184  0.0353
  762loPI   C2A11176  13.095   4.704   7.273  0.1510 -0.0795 -0.0476
  762loPI   C3A11177  13.192   4.654   7.726 -0.0624 -0.0681  0.3036
  762loPI   C4A11178  13.336   4.770   8.121  0.0468  0.2244  0.1300
  762loPI   C5A11179  13.030   4.554   8.331 -0.1230 -0.0746  0.1228
  762loPI   C6A11180  13.043   4.112   8.462 -0.1282 -0.0828 -0.1473
  762loPI   C1B11181  13.589   4.738   6.900 -0.0093 -0.1604 -0.2786
  762loPI   C2B11182  13.643   4.897   7.309 -0.0183 -0.1898  0.1242
  762loPI   C3B11183  13.706   4.877   7.785  0.3693 -0.1981  0.0343
  762loPI   C4B11184  13.776   4.889   8.184 -0.2528 -0.1470 -0.2179
  763loPI    C111185  11.442  13.718   6.082 -0.1372  0.1525  0.0021
  763loPI    C211186  11.263  13.654   5.730 -0.1043  0.1623 -0.0164
  763loPI    C311187  11.640  13.789   5.742 -0.0440 -0.0077  0.0217
  763loPI   PO411188  11.236  13.848   6.232  0.2502  0.2549  0.0384
  763loPI   GL111189  11.008  14.095   6.610 -0.1043  0.0152 -0.3577
  763loPI   GL211190  10.725  13.956   6.632  0.0475  0.0117  0.2065
  763loPI   C1A11191  11.062  13.973   7.049  0.0801 -0.0402 -0.1101
  763loPI   C2A11192  10.887  14.008   7.485  0.0618 -0.3134  0.2480
  763loPI   C3A11193  10.891  14.035   7.956 -0.1383 -0.4585  0.0770
  763loPI   C4A11194  10.998  13.946   8.482 -0.2980  0.1890  0.3484
  763loPI   C5A11195  11.413  13.745   8.696 -0.0514 -0.0748 -0.3416
  763loPI   C6A11196  11.509  13.320   8.837  0.1124 -0.1772 -0.1596
  763loPI   C1B11197  10.547  13.992   7.035  0.0275  0.0134  0.1938
  763loPI   C2B11198  10.417  13.883   7.456  0.1183  0.2706 -0.0186
  763loPI   C3B11199  10.440  13.927   7.844 -0.1172  0.0477  0.1455
  763loPI   C4B11200  10.489  13.923   8.324 -0.0289  0.1905  0.1280
  764loPI    C111201  15.159   5.164   6.119  0.1175 -0.2852  0.0369
  764loPI    C211202  15.112   5.206   5.724  0.3504 -0.1157  0.0251
  764loPI    C311203  14.841   5.002   5.937  0.1855 -0.1466 -0.2097
  764loPI   PO411204  15.414   5.024   6.132  0.2291 -0.0450  0.0804
  764loPI   GL111205  15.698   4.911   6.465 -0.3129  0.1437 -0.4476
  764loPI   GL211206  15.733   5.227   6.577  0.3058 -0.2658 -0.0455
  764loPI   C1A11207  15.549   4.693   6.818  0.2533  0.1527 -0.3113
  764loPI   C2A11208  15.414   4.618   7.301  0.2133  0.0295  0.0057
  764loPI   C3A11209  15.403   4.534   7.703 -0.2621  0.0377  0.0223
  764loPI   C4A11210  15.468   4.614   8.120 -0.2350 -0.2199 -0.0419
  764loPI   C5A11211  15.399   4.664   8.518 -0.0382  0.3601 -0.1018
  764loPI   C6A11212  15.233   4.526   8.817 -0.0928 -0.0228  0.1344
  764loPI   C1B11213  15.776   5.535   6.884 -0.0776  0.2051 -0.1426
  764loPI   C2B11214  15.745   5.578   7.320 -0.0653 -0.1386  0.2199
  764loPI   C3B11215  15.668   5.582   7.736 -0.0423  0.4220  0.0834
  764loPI   C4B11216  15.682   5.621   8.180  0.1593  0.2972 -0.2734
  765loPI    C111217   8.811   0.480   5.688  0.0279  0.0466 -0.0370
  765loPI    C211218   8.514   0.496   5.421  0.1266  0.0016 -0.1505
  765loPI    C311219   8.894   0.476   5.296  0.1674 -0.1384 -0.0075
  765loPI   PO411220   8.763   0.606   5.894  0.3875  0.0307 -0.0748
  765loPI   GL111221   8.516   0.472   6.289 -0.0406 -0.1207 -0.0325
  765loPI   GL211222   8.262   0.370   6.403  0.2133  0.0715  0.2432
  765loPI   C1A11223   8.748   0.604   6.670  0.1996  0.2254 -0.2617
  765loPI   C2A11224   8.763   0.634   7.077 -0.0269  0.0518  0.1192
  765loPI   C3A11225   8.690   0.611   7.551  0.0088 -0.0750  0.0894
  765loPI   C4A11226   8.731   0.648   7.979 -0.1759  0.2324 -0.1857
  765loPI   C5A11227   8.673   0.675   8.489 -0.1386 -0.1923  0.3038
  765loPI   C6A11228   8.596   1.043   8.744  0.3369 -0.0694 -0.0672
  765loPI   C1B11229   8.325   0.422   6.837  0.0765 -0.3547  0.1365
  765loPI   C2B11230   8.314   0.406   7.215  0.1149  0.3137  0.0182
  765loPI   C3B11231   8.213   0.479   7.657 -0.2525  0.2535  0.4865
  765loPI   C4B11232   8.297   0.458   8.138  0.1304  0.1964  0.0502
  766loPI    C111233   1.887   5.919   5.563 -0.1444  0.0310 -0.0846
  766loPI    C211234   1.771   5.558   5.434 -0.0497 -0.0176 -0.0343
  766loPI    C311235   1.623   5.888   5.264  0.0284 -0.0807 -0.2278
  766loPI   PO411236   1.930   5.855   5.771 -0.2100 -0.0168 -0.1247
  766loPI   GL111237   2.221   5.885   6.085  0.2749 -0.2588 -0.0224
  766loPI   GL211238   1.954   5.928   6.238  0.0134  0.2263 -0.0898
  766loPI   C1A11239   2.470   5.776   6.527  0.0203 -0.3654  0.3146
  766loPI   C2A11240   2.356   5.804   6.986  0.0202  0.0437 -0.1191
  766loPI   C3A11241   2.288   5.777   7.369  0.1228  0.0302  0.3674
  766loPI   C4A11242   2.259   5.777   7.734 -0.0476 -0.0135  0.0922
  766loPI   C5A11243   2.347   5.838   8.117 -0.3441  0.3805 -0.0838
  766loPI   C6A11244   2.308   5.804   8.533  0.0344 -0.0439  0.0054
  766loPI   C1B11245   1.970   6.113   6.740  0.0904 -0.0498 -0.1960
  766loPI   C2B11246   1.947   6.089   7.135 -0.0079  0.0771 -0.0112
  766loPI   C3B11247   1.834   6.118   7.510  0.3204 -0.0253  0.0332
  766loPI   C4B11248   1.957   6.176   7.980 -0.0960  0.1457  0.0633
  767loPI    C111249   1.662  15.845   5.960  0.1022  0.3278  0.0373
  767loPI    C211250   1.281  15.965   5.945  0.0418  0.1417  0.0519
  767loPI    C311251   1.512  15.992   5.620 -0.1155 -0.1664 -0.0898
  767loPI   PO411252   1.755  15.932   6.159  0.0176 -0.0625 -0.1099
  767loPI   GL111253   1.787  15.702   6.529 -0.2054 -0.0266 -0.2553
  767loPI   GL211254   1.520  15.737   6.772 -0.4401 -0.0815 -0.2643
  767loPI   C1A11255   1.990  15.793   6.898 -0.0463 -0.3146  0.2405
  767loPI   C2A11256   1.977  15.845   7.376 -0.0738  0.2515  0.0145
  767loPI   C3A11257   2.047  15.811   7.805 -0.1259 -0.5363 -0.0495
  767loPI   C4A11258   1.943  15.656   8.263 -0.0357  0.0811 -0.1315
  767loPI   C5A11259   1.875  15.964   8.591  0.4645  0.0744  0.2803
  767loPI   C6A11260   1.840  16.480   8.747 -0.1671  0.1026  0.0741
  767loPI   C1B11261   1.522  15.655   7.221 -0.1989  0.0204  0.0375
  767loPI   C2B11262   1.584  15.644   7.591 -0.0710  0.1485  0.0376
  767loPI   C3B11263   1.572  15.736   7.937 -0.0725  0.0269  0.0648
  767loPI   C4B11264   1.450  15.734   8.407 -0.1469  0.0231  0.0828
  768loPI    C111265   4.312   6.957   5.635 -0.0398  0.1109  0.0410
  768loPI    C211266   4.014   7.202   5.738 -0.3311 -0.1621 -0.1335
  768loPI    C311267   4.194   7.245   5.384 -0.1371  0.0227 -0.0152
  768loPI   PO411268   4.375   6.869   5.858 -0.2179 -0.1618  0.1351
  768loPI   GL111269   4.514   6.783   6.223 -0.0151  0.0356 -0.0620
  768loPI   GL211270   4.440   6.460   6.304 -0.1635  0.0280 -0.2343
  768loPI   C1A11271   4.559   6.942   6.522 -0.1999 -0.2937 -0.0789
  768loPI   C2A11272   4.466   7.014   7.000 -0.1306 -0.3405  0.0075
  768loPI   C3A11273   4.339   7.078   7.376  0.1525  0.2828  0.2449
  768loPI   C4A11274   4.183   7.055   7.815 -0.1284  0.2552 -0.1011
  768loPI   C5A11275   4.180   7.279   8.193 -0.3857 -0.1405 -0.0448
  768loPI   C6A11276   3.735   7.404   8.507  0.0105  0.0346 -0.1376
  768loPI   C1B11277   4.445   6.401   6.555  0.0823 -0.1815 -0.1449
  768loPI   C2B11278   4.406   6.509   6.913 -0.1031 -0.0231 -0.3427
  768loPI   C3B11279   4.315   6.507   7.280  0.0945 -0.1172  0.1059
  768loPI   C4B11280   4.216   6.621   7.612 -0.0194  0.1810 -0.0049
  769loPI    C111281  16.003   2.601   5.753  0.2466  0.0461 -0.0596
  769loPI    C211282  16.222   2.904   5.611 -0.0267  0.1872 -0.1878
  769loPI    C311283  16.016   2.671   5.359 -0.0329  0.0620 -0.0680
  769loPI   PO411284  15.894   2.636   5.902 -0.0118  0.1536  0.0206
  769loPI   GL111285  15.905   2.413   6.323  0.2198 -0.0399 -0.0013
  769loPI   GL211286  16.161   2.595   6.359  0.0522  0.0766 -0.0288
  769loPI   C1A11287  16.018   2.487   6.781 -0.1343 -0.2715  0.1244
  769loPI   C2A11288  15.964   2.389   7.177 -0.0200  0.0880  0.1540
  769loPI   C3A11289  16.095   2.340   7.605 -0.2798  0.2686 -0.0590
  769loPI   C4A11290  16.229   2.454   7.877  0.1899 -0.1562 -0.0974
  769loPI   C5A11291  16.229   2.478   8.271  0.1196  0.3683 -0.0723
  769loPI   C6A11292  16.057   2.434   8.709 -0.0399  0.3204 -0.1849
  769loPI   C1B11293  16.434   2.632   6.719  0.2621 -0.0759  0.0553
  769loPI   C2B11294  16.500   2.557   7.109 -0.1000 -0.0617  0.1531
  769loPI   C3B11295  16.662   2.579   7.580  0.3439  0.0354  0.1618
  769loPI   C4B11296  16.685   2.609   7.995  0.1251  0.1867 -0.0764
  770loPI    C111297   3.261   8.550   5.604 -0.1278  0.1322 -0.0283
  770loPI    C211298   3.008   8.859   5.593 -0.3660 -0.0602 -0.0494
  770loPI    C311299   2.967   8.558   5.334  0.0967  0.0639 -0.2790
  770loPI   PO411300   3.254   8.492   5.824 -0.0270  0.0211  0.3727
  770loPI   GL111301   3.220   8.119   6.164 -0.1832  0.1390  0.0378
  770loPI   GL211302   2.994   8.323   6.338  0.0768 -0.2979  0.2055
  770loPI   C1A11303   3.301   8.080   6.622  0.0435  0.0063  0.1295
  770loPI   C2A11304   3.247   8.079   6.952  0.1817 -0.0580 -0.1803
  770loPI   C3A11305   3.077   8.096   7.393  0.0591 -0.1523  0.0124
  770loPI   C4A11306   3.131   8.231   7.765  0.4759  0.0110  0.2499
  770loPI   C5A11307   3.351   8.050   8.201  0.0319 -0.2296  0.0832
  770loPI   C6A11308   3.525   8.018   8.647  0.1862 -0.2772  0.0036
  770loPI   C1B11309   2.908   8.388   6.691 -0.3154  0.0029  0.1411
  770loPI   C2B11310   2.762   8.402   7.055  0.0987 -0.4395  0.0746
  770loPI   C3B11311   2.711   8.426   7.533  0.1095  0.0106  0.1835
  770loPI   C4B11312   2.639   8.475   8.050 -0.1260 -0.0006 -0.2553
  771loPI    C111313  12.654   7.977   5.628 -0.0710 -0.0550 -0.1610
  771loPI    C211314  12.832   8.015   5.272 -0.1289  0.2437 -0.1605
  771loPI    C311315  12.524   7.764   5.316  0.1090 -0.0666 -0.2294
  771loPI   PO411316  12.791   8.090   5.843 -0.0313 -0.4099  0.0531
  771loPI   GL111317  12.625   8.180   6.248 -0.0870 -0.1094  0.2197
  771loPI   GL211318  12.735   7.927   6.389 -0.2078  0.0683 -0.2606
  771loPI   C1A11319  12.462   8.364   6.652  0.0675  0.0108  0.1347
  771loPI   C2A11320  12.412   8.330   7.086  0.1333 -0.3938  0.1715
  771loPI   C3A11321  12.353   8.291   7.527 -0.0297 -0.1843  0.2242
  771loPI   C4A11322  12.296   8.210   7.939 -0.0828  0.0845 -0.0840
  771loPI   C5A11323  12.355   8.391   8.331  0.1671  0.1790  0.0595
  771loPI   C6A11324  12.564   8.820   8.409 -0.2510 -0.1257 -0.0135
  771loPI   C1B11325  12.772   7.989   6.841 -0.0182  0.1158 -0.0805
  771loPI   C2B11326  12.790   8.017   7.385 -0.2556 -0.1936  0.1883
  771loPI   C3B11327  12.791   8.024   7.831 -0.2023 -0.1697  0.0235
  771loPI   C4B11328  12.648   7.872   8.170  0.2954  0.2693 -0.3787
  772loPI    C111329   6.167  10.029   5.569 -0.0588 -0.3179 -0.0519
  772loPI    C211330   6.528   9.898   5.682  0.0804  0.1423  0.0586
  772loPI    C311331   6.452   9.965   5.295  0.0557 -0.1128  0.0173
  772loPI   PO411332   6.104  10.222   5.761 -0.0980  0.2103 -0.1939
  772loPI   GL111333   6.207  10.218   6.195 -0.0443 -0.0192  0.0639
  772loPI   GL211334   6.079  10.539   6.220 -0.0082 -0.1644 -0.3341
  772loPI   C1A11335   6.358  10.345   6.580  0.1401  0.0636 -0.0706
  772loPI   C2A11336   6.338  10.341   7.029  0.1576 -0.0876 -0.0614
  772loPI   C3A11337   6.324  10.355   7.417 -0.0712 -0.1270 -0.1351
  772loPI   C4A11338   6.307  10.174   7.801  0.0353 -0.0752 -0.1409
  772loPI   C5A11339   6.099  10.331   8.122  0.1242  0.0762  0.2339
  772loPI   C6A11340   5.824  10.105   8.375 -0.1500  0.0105  0.3032
  772loPI   C1B11341   6.022  10.742   6.583  0.1292  0.2180  0.1275
  772loPI   C2B11342   5.771  10.683   6.973 -0.0830 -0.3190  0.0168
  772loPI   C3B11343   5.707  10.677   7.326 -0.0688 -0.1533  0.0177
  772loPI   C4B11344   5.898  10.520   7.680  0.2776 -0.0570 -0.2140
  773loPI    C111345  11.659   1.762   6.008  0.1706  0.0332 -0.2129
  773loPI    C211346  11.668   2.139   5.874  0.1858  0.1085 -0.0043
  773loPI    C311347  11.479   1.856   5.663  0.1677  0.2335 -0.1580
  773loPI   PO411348  11.688   1.800   6.261 -0.2036  0.0537 -0.0808
  773loPI   GL111349  11.556   1.797   6.668  0.0314  0.2263 -0.0317
  773loPI   GL211350  11.426   1.425   6.569  0.2986  0.2159 -0.0762
  773loPI   C1A11351  11.443   1.948   7.015 -0.3638  0.0189  0.0657
  773loPI   C2A11352  11.422   1.916   7.474 -0.2961  0.0960 -0.2659
  773loPI   C3A11353  11.332   2.062   7.914 -0.1215  0.0105 -0.0585
  773loPI   C4A11354  11.207   1.964   8.334  0.1029  0.1301 -0.2017
  773loPI   C5A11355  11.181   1.712   8.792  0.0931 -0.0976  0.2535
  773loPI   C6A11356  11.133   1.728   9.242 -0.0300  0.1344 -0.0014
  773loPI   C1B11357  11.448   1.293   6.978  0.1971  0.0449 -0.0740
  773loPI   C2B11358  11.350   1.391   7.317  0.1022 -0.1753  0.1741
  773loPI   C3B11359  11.264   1.544   7.767 -0.0697  0.0274 -0.1351
  773loPI   C4B11360  11.123   1.448   8.269 -0.1157 -0.2377 -0.1139
  774loPI    C111361   3.503  13.405   6.006 -0.1072  0.2649  0.0741
  774loPI    C211362   3.674  13.283   5.665  0.2060  0.2279  0.2405
  774loPI    C311363   3.277  13.324   5.686  0.1313 -0.3072  0.0381
  774loPI   PO411364   3.669  13.527   6.128  0.1281 -0.0167 -0.0204
  774loPI   GL111365   3.969  13.713   6.386 -0.3808  0.1760 -0.2529
  774loPI   GL211366   3.822  13.998   6.397  0.0905  0.0156  0.2708
  774loPI   C1A11367   4.051  13.474   6.662  0.1011  0.0659  0.0463
  774loPI   C2A11368   4.004  13.255   6.991 -0.0980  0.2989 -0.1362
  774loPI   C3A11369   4.055  13.273   7.421  0.2523  0.0297  0.0342
  774loPI   C4A11370   4.034  13.191   7.811  0.1539  0.0615 -0.1304
  774loPI   C5A11371   4.115  13.258   8.244 -0.1321  0.1364 -0.1515
  774loPI   C6A11372   4.218  13.565   8.620 -0.2709  0.0387  0.3846
  774loPI   C1B11373   3.778  14.219   6.819 -0.0762 -0.3297  0.1691
  774loPI   C2B11374   3.693  14.095   7.219 -0.0261  0.0526  0.2852
  774loPI   C3B11375   3.773  14.012   7.593 -0.2643  0.2897 -0.0241
  774loPI   C4B11376   3.615  14.124   7.998  0.2204  0.3655 -0.1576
  775loPI    C111377   9.487  16.860   5.743 -0.1426 -0.0150 -0.1595
  775loPI    C211378   9.651  17.000   5.407 -0.1159  0.0546 -0.1177
  775loPI    C311379   9.263  16.902   5.414 -0.0823 -0.0892 -0.2103
  775loPI   PO411380   9.526  17.006   5.895  0.0306 -0.1989 -0.0602
  775loPI   GL111381   9.403  17.050   6.372 -0.1729 -0.5073 -0.1954
  775loPI   GL211382   9.256  16.810   6.303  0.1234  0.0426 -0.0297
  775loPI   C1A11383   9.407  17.098   6.906  0.0750 -0.0215  0.1829
  775loPI   C2A11384   9.382  17.036   7.269 -0.1772  0.0474  0.0717
  775loPI   C3A11385   9.505  16.991   7.703 -0.1965 -0.0306 -0.2189
  775loPI   C4A11386   9.501  16.862   8.088  0.1414 -0.1009  0.2309
  775loPI   C5A11387   9.657  17.039   8.410  0.1127 -0.0488  0.4426
  775loPI   C6A11388   9.706  16.964   8.835 -0.6568 -0.1569 -0.0006
  775loPI   C1B11389   9.067  16.807   6.665  0.2740  0.0240  0.1072
  775loPI   C2B11390   8.987  16.852   7.072  0.0122 -0.0249 -0.0562
  775loPI   C3B11391   8.963  16.791   7.461  0.0583  0.2240  0.2678
  775loPI   C4B11392   8.995  16.702   7.948  0.4056  0.2872  0.0500
  776loPI    C111393   8.567  15.071   5.675  0.2223  0.0595 -0.1114
  776loPI    C211394   8.691  14.701   5.764 -0.1992 -0.0790 -0.0768
  776loPI    C311395   8.738  14.844   5.393  0.0336 -0.1369 -0.0712
  776loPI   PO411396   8.379  15.084   5.794 -0.0189  0.4157  0.0883
  776loPI   GL111397   8.411  14.974   6.165 -0.1816  0.0472  0.0708
  776loPI   GL211398   8.546  15.263   6.295 -0.1077  0.1534 -0.1688
  776loPI   C1A11399   8.088  14.847   6.477 -0.2420 -0.0618  0.1209
  776loPI   C2A11400   7.917  14.872   6.892 -0.0443  0.0985 -0.2563
  776loPI   C3A11401   7.893  14.755   7.257 -0.3826 -0.1637  0.0247
  776loPI   C4A11402   7.801  14.865   7.745 -0.1321 -0.2491  0.2796
  776loPI   C5A11403   7.715  14.915   8.162 -0.0500  0.0657  0.1785
  776loPI   C6A11404   7.944  15.024   8.500 -0.2504 -0.1419  0.0837
  776loPI   C1B11405   8.375  15.132   6.701  0.1587 -0.0954 -0.0952
  776loPI   C2B11406   8.407  15.088   7.166 -0.2547  0.1098 -0.3698
  776loPI   C3B11407   8.311  14.883   7.564 -0.2887  0.1268 -0.0686
  776loPI   C4B11408   8.370  15.085   7.921 -0.1136  0.0909 -0.1324
  777loPI    C111409  15.817  13.474   5.865 -0.0757  0.0771  0.0587
  777loPI    C211410  16.114  13.315   5.651 -0.1195 -0.1233  0.1448
  777loPI    C311411  15.843  13.549   5.473 -0.0125 -0.0846  0.0314
  777loPI   PO411412  15.920  13.627   6.031  0.1745 -0.2241  0.1345
  777loPI   GL111413  16.040  13.515   6.469 -0.0109 -0.0326 -0.0835
  777loPI   GL211414  15.880  13.540   6.755 -0.0998  0.2552  0.1827
  777loPI   C1A11415  16.142  13.190   6.907 -0.1648 -0.2346 -0.1907
  777loPI   C2A11416  16.148  13.182   7.329 -0.0336  0.1279  0.0310
  777loPI   C3A11417  16.259  13.096   7.683  0.1036  0.3153 -0.0882
  777loPI   C4A11418  16.478  12.976   8.045 -0.2332  0.0168  0.2389
  777loPI   C5A11419  16.727  13.016   8.397 -0.0014  0.1149  0.1241
  777loPI   C6A11420  16.747  12.984   8.818 -0.0500 -0.0226 -0.0565
  777loPI   C1B11421  15.860  13.683   7.182 -0.1902 -0.0526  0.2097
  777loPI   C2B11422  15.598  13.924   7.575 -0.1333  0.0803 -0.0495
  777loPI   C3B11423  15.646  14.115   8.041  0.2332  0.1038 -0.2607
  777loPI   C4B11424  15.844  14.342   8.304 -0.1282 -0.0087 -0.0052
  778loPI    C111425   6.648   6.262   5.713  0.1228  0.1480  0.0580
  778loPI    C211426   6.304   6.462   5.753  0.0230  0.0170 -0.1318
  778loPI    C311427   6.641   6.660   5.669 -0.0560  0.1177 -0.2150
  778loPI   PO411428   6.649   6.076   5.958  0.3388  0.1953  0.0962
  778loPI   GL111429   6.772   6.052   6.275 -0.0147 -0.2334  0.0795
  778loPI   GL211430   6.644   5.833   6.463  0.1358  0.0828 -0.0692
  778loPI   C1A11431   6.695   6.313   6.633 -0.0416  0.0268  0.0292
  778loPI   C2A11432   6.584   6.417   6.973  0.2743  0.0955 -0.2361
  778loPI   C3A11433   6.636   6.507   7.359  0.2465  0.1218 -0.1417
  778loPI   C4A11434   6.532   6.557   7.788 -0.0659  0.0609 -0.2570
  778loPI   C5A11435   6.444   6.498   8.275  0.1053  0.2597  0.2848
  778loPI   C6A11436   6.525   6.150   8.670 -0.0241  0.1699 -0.0537
  778loPI   C1B11437   6.620   5.821   6.875  0.1687  0.2369  0.0500
  778loPI   C2B11438   6.495   5.960   7.312  0.1977  0.2057  0.0337
  778loPI   C3B11439   6.496   6.007   7.723 -0.0197  0.2073 -0.1941
  778loPI   C4B11440   6.470   6.058   8.108  0.0877  0.1354 -0.0455
  779loPI    C111441   4.516   0.186   5.754 -0.0015 -0.2239  0.3117
  779loPI    C211442   4.463   0.040   5.385  0.1253 -0.0924  0.2404
  779loPI    C311443   4.784  -0.067   5.599  0.2164  0.0764  0.1893
  779loPI   PO411444   4.300   0.185   5.847  0.1577 -0.1321 -0.2080
  779loPI   GL111445   4.120   0.343   6.261 -0.0732  0.0718  0.1774
  779loPI   GL211446   4.421   0.489   6.247 -0.2472 -0.1738 -0.3462
  779loPI   C1A11447   4.196   0.137   6.649  0.0727 -0.0731 -0.1413
  779loPI   C2A11448   4.092   0.134   7.081  0.0508 -0.0336 -0.0420
  779loPI   C3A11449   4.245   0.218   7.487 -0.1687  0.2028  0.1108
  779loPI   C4A11450   4.218   0.156   7.860  0.0868 -0.1856 -0.1011
  779loPI   C5A11451   4.231   0.295   8.231 -0.0319 -0.1337 -0.3080
  779loPI   C6A11452   3.960   0.498   8.579  0.1331 -0.2384 -0.3170
  779loPI   C1B11453   4.692   0.369   6.583  0.1535 -0.2252  0.1089
  779loPI   C2B11454   4.731   0.363   6.989 -0.0247 -0.0432  0.2450
  779loPI   C3B11455   4.693   0.391   7.350  0.1845 -0.0793 -0.0930
  779loPI   C4B11456   4.731   0.390   7.778  0.1600  0.1646  0.0676
  780loPI    C111457   4.883  12.815   5.921  0.0745  0.0079  0.1700
  780loPI    C211458   4.669  12.605   5.655  0.0703  0.1093  0.0926
  780loPI    C311459   4.662  13.005   5.646  0.2292  0.1135  0.1172
  780loPI   PO411460   4.766  12.675   6.162 -0.2343  0.0404 -0.0018
  780loPI   GL111461   4.955  12.779   6.531  0.0816 -0.1802  0.3252
  780loPI   GL211462   5.014  13.080   6.428 -0.1413 -0.0199 -0.0617
  780loPI   C1A11463   4.873  12.635   6.940 -0.0259 -0.0413  0.1578
  780loPI   C2A11464   4.907  12.607   7.431  0.0297  0.1969  0.0154
  780loPI   C3A11465   4.781  12.620   7.828  0.2188  0.4012 -0.0377
  780loPI   C4A11466   4.864  12.567   8.220 -0.2021  0.0615  0.6784
  780loPI   C5A11467   5.099  12.264   8.441 -0.1207 -0.0487  0.0684
  780loPI   C6A11468   5.513  12.160   8.627  0.1717  0.0638 -0.3535
  780loPI   C1B11469   4.987  13.144   6.843  0.2675  0.1776 -0.1207
  780loPI   C2B11470   4.916  13.154   7.303 -0.1388 -0.1195  0.0383
  780loPI   C3B11471   4.935  13.093   7.748  0.0736 -0.0120 -0.1040
  780loPI   C4B11472   5.015  13.107   8.172 -0.0853 -0.0446 -0.3764
  781loPI    C111473  13.857  16.113   6.140  0.2282 -0.0485  0.1260
  781loPI    C211474  14.144  16.358   6.008  0.2055 -0.1158 -0.0516
  781loPI    C311475  13.781  16.366   5.840  0.1136 -0.0574  0.1470
  781loPI   PO411476  13.933  16.145   6.408 -0.0581  0.0162 -0.0609
  781loPI   GL111477  13.782  16.071   6.787 -0.0382 -0.2509  0.0826
  781loPI   GL211478  13.604  16.320   6.791  0.2191 -0.2241  0.1662
  781loPI   C1A11479  14.027  16.096   7.183 -0.0684 -0.0482  0.0814
  781loPI   C2A11480  14.172  16.141   7.620 -0.0760 -0.0511 -0.0579
  781loPI   C3A11481  14.067  16.193   8.038  0.0096 -0.0789 -0.2004
  781loPI   C4A11482  14.180  16.327   8.428 -0.2073 -0.1577  0.0972
  781loPI   C5A11483  14.374  16.590   8.713 -0.0157 -0.1438 -0.0226
  781loPI   C6A11484  14.216  17.015   8.887 -0.2837 -0.2770 -0.1312
  781loPI   C1B11485  13.335  16.434   7.182 -0.0035  0.1267 -0.0593
  781loPI   C2B11486  13.152  16.583   7.604  0.1890 -0.2680  0.0212
  781loPI   C3B11487  13.129  16.763   7.970  0.1087  0.1117 -0.3935
  781loPI   C4B11488  13.242  16.652   8.391 -0.1759 -0.2481 -0.1607
  782loPI    C111489  10.327   3.034   5.823  0.1814  0.1502  0.2020
  782loPI    C211490  10.677   3.226   5.790  0.0346  0.3522 -0.2571
  782loPI    C311491  10.644   2.847   5.666  0.1362  0.2702 -0.0374
  782loPI   PO411492  10.250   3.091   6.067  0.0383  0.0824  0.1225
  782loPI   GL111493  10.205   2.936   6.456 -0.3029  0.0952  0.1030
  782loPI   GL211494   9.903   2.700   6.517 -0.2664  0.1116  0.0567
  782loPI   C1A11495  10.195   2.889   6.909 -0.2128  0.0924 -0.2572
  782loPI   C2A11496  10.108   2.929   7.356 -0.2437  0.1010  0.1698
  782loPI   C3A11497  10.170   3.002   7.811 -0.0942 -0.1040 -0.0498
  782loPI   C4A11498  10.234   2.978   8.258  0.0156 -0.4207 -0.1774
  782loPI   C5A11499  10.225   3.007   8.650 -0.1552  0.2323 -0.0214
  782loPI   C6A11500  10.209   3.218   8.934  0.4340 -0.0876 -0.0652
  782loPI   C1B11501   9.727   2.740   6.929  0.0199 -0.3579 -0.1105
  782loPI   C2B11502   9.602   2.843   7.333  0.3332  0.1531  0.0639
  782loPI   C3B11503   9.610   2.784   7.742 -0.1437  0.1609 -0.1544
  782loPI   C4B11504   9.789   2.817   8.076 -0.2408  0.1288 -0.2274
  783loPI    C111505   4.451  11.240   5.609  0.0314  0.0218  0.1166
  783loPI    C211506   4.140  11.420   5.433 -0.2150 -0.2807  0.2319
  783loPI    C311507   4.431  11.260   5.210 -0.0642  0.1298  0.1264
  783loPI   PO411508   4.400  11.144   5.801  0.0261  0.0089 -0.0391
  783loPI   GL111509   4.306  11.076   6.163 -0.0950  0.0882 -0.0136
  783loPI   GL211510   4.458  11.189   6.444 -0.2960  0.0023  0.0132
  783loPI   C1A11511   4.128  10.831   6.542  0.0627 -0.2371 -0.1175
  783loPI   C2A11512   4.100  10.818   6.910  0.2341  0.0789  0.0690
  783loPI   C3A11513   4.038  10.794   7.339  0.1668 -0.2644 -0.2437
  783loPI   C4A11514   4.128  10.711   7.844  0.2990 -0.0733  0.1394
  783loPI   C5A11515   4.015  10.673   8.319 -0.1119 -0.0254  0.2089
  783loPI   C6A11516   3.693  10.939   8.510  0.2701  0.3431  0.1016
  783loPI   C1B11517   4.548  11.153   6.778  0.4363 -0.1113 -0.1722
  783loPI   C2B11518   4.460  11.084   7.188  0.1049  0.3321  0.2634
  783loPI   C3B11519   4.536  10.947   7.665  0.0081  0.0110 -0.1236
  783loPI   C4B11520   4.505  11.056   8.029  0.1511 -0.1066 -0.4221
  784loPI    C111521  10.347   2.525   6.050 -0.0857  0.3668 -0.0053
  784loPI    C211522  10.098   2.290   5.843 -0.0427  0.1774  0.1544
  784loPI    C311523  10.492   2.267   5.780 -0.0330  0.1536  0.2227
  784loPI   PO411524  10.259   2.502   6.270  0.1423  0.3323  0.0660
  784loPI   GL111525  10.239   2.322   6.632 -0.0527 -0.2625  0.1119
  784loPI   GL211526  10.477   2.542   6.740  0.1869  0.0413 -0.0574
  784loPI   C1A11527  10.046   2.413   7.013  0.2752  0.0556 -0.0956
  784loPI   C2A11528   9.978   2.459   7.451 -0.0293 -0.0268 -0.0134
  784loPI   C3A11529  10.111   2.495   7.823  0.0535  0.1747 -0.2760
  784loPI   C4A11530  10.064   2.470   8.270 -0.0579 -0.0506  0.0480
  784loPI   C5A11531   9.841   2.181   8.683 -0.2707 -0.0682  0.2780
  784loPI   C6A11532   9.939   1.711   8.809  0.3153  0.0061  0.2827
  784loPI   C1B11533  10.518   2.622   7.148  0.3136  0.2578  0.1121
  784loPI   C2B11534  10.540   2.748   7.626  0.1814  0.1687  0.1797
  784loPI   C3B11535  10.525   2.654   8.077  0.2444  0.0582  0.2746
  784loPI   C4B11536  10.711   2.809   8.562  0.1743  0.1393  0.0193
  785loPI    C111537  10.715  14.183   6.113 -0.1168  0.1686 -0.0980
  785loPI    C211538  10.536  14.047   5.783  0.0763 -0.3005 -0.0177
  785loPI    C311539  10.935  14.041   5.811  0.0699 -0.0832  0.1506
  785loPI   PO411540  10.681  14.380   6.189  0.2773  0.3136  0.2614
  785loPI   GL111541  10.803  14.564   6.502 -0.1630 -0.0460  0.2625
  785loPI   GL211542  10.716  14.812   6.540 -0.0619  0.3038 -0.0039
  785loPI   C1A11543  10.693  14.406   6.942 -0.2343 -0.1594  0.0712
  785loPI   C2A11544  10.583  14.361   7.322 -0.2967  0.0074 -0.0711
  785loPI   C3A11545  10.431  14.454   7.751 -0.0873  0.0847 -0.0304
  785loPI   C4A11546  10.593  14.515   8.187  0.0794  0.2095  0.0514
  785loPI   C5A11547  10.464  14.460   8.543 -0.0217 -0.0166  0.3871
  785loPI   C6A11548  10.309  14.213   8.748  0.1292  0.3663  0.1735
  785loPI   C1B11549  10.624  14.906   6.900  0.1163  0.0546  0.1377
  785loPI   C2B11550  10.748  14.861   7.360 -0.0228 -0.3494  0.3134
  785loPI   C3B11551  10.641  14.970   7.833 -0.4012 -0.1124 -0.3193
  785loPI   C4B11552  10.509  14.987   8.225  0.4775 -0.0475 -0.0412
  786loPI    C111553   2.822   2.291   5.783  0.1650 -0.0553  0.2987
  786loPI    C211554   3.088   2.015   5.668 -0.0060 -0.0889 -0.0286
  786loPI    C311555   2.701   1.970   5.577 -0.0742  0.1301  0.1442
  786loPI   PO411556   2.974   2.404   6.056  0.1515  0.3134 -0.0602
  786loPI   GL111557   3.080   2.143   6.394 -0.1270  0.1931  0.1270
  786loPI   GL211558   3.236   1.926   6.145  0.0047 -0.1327 -0.1856
  786loPI   C1A11559   2.994   2.117   6.782 -0.3623  0.1088 -0.0953
  786loPI   C2A11560   3.071   2.119   7.264  0.0125  0.0125 -0.2108
  786loPI   C3A11561   3.156   2.187   7.739 -0.1040  0.1961  0.1214
  786loPI   C4A11562   3.233   2.087   8.229  0.0424 -0.1226 -0.3014
  786loPI   C5A11563   3.669   1.968   8.315 -0.1371  0.1440  0.0356
  786loPI   C6A11564   4.030   2.074   8.237 -0.1869  0.2025 -0.0054
  786loPI   C1B11565   3.450   1.933   6.561  0.1155  0.3263  0.0137
  786loPI   C2B11566   3.474   1.834   6.975 -0.1331 -0.5564 -0.1062
  786loPI   C3B11567   3.581   1.915   7.367  0.0215 -0.0564 -0.2017
  786loPI   C4B11568   3.631   1.778   7.832  0.3151 -0.1224  0.2248
  787loPI    C111569   4.552   1.065   5.377  0.2221  0.0989 -0.0808
  787loPI    C211570   4.167   1.079   5.273  0.1731 -0.1234  0.0620
  787loPI    C311571   4.421   0.848   5.068  0.1914 -0.1253  0.0867
  787loPI   PO411572   4.640   1.140   5.649  0.1769 -0.2352  0.1564
  787loPI   GL111573   4.536   1.325   6.013  0.0282  0.0151 -0.1043
  787loPI   GL211574   4.509   1.045   6.155 -0.0905  0.1136  0.0681
  787loPI   C1A11575   4.750   1.429   6.401 -0.2176  0.1041 -0.0686
  787loPI   C2A11576   4.786   1.446   6.844 -0.0373 -0.0800 -0.0248
  787loPI   C3A11577   4.817   1.355   7.215 -0.0176  0.0425  0.0377
  787loPI   C4A11578   4.760   1.396   7.732  0.3756 -0.0029 -0.0983
  787loPI   C5A11579   4.603   1.352   8.206  0.2727  0.0877  0.1138
  787loPI   C6A11580   4.527   1.315   8.664  0.0421 -0.0970  0.0341
  787loPI   C1B11581   4.553   0.894   6.549 -0.2073  0.0391  0.0469
  787loPI   C2B11582   4.635   0.851   7.061 -0.2018 -0.0528 -0.0398
  787loPI   C3B11583   4.751   0.877   7.509 -0.1950 -0.1411 -0.2323
  787loPI   C4B11584   4.751   0.845   7.915  0.2214 -0.2833 -0.0915
  788loPI    C111585  13.466  11.312   5.817 -0.0952 -0.0379  0.1214
  788loPI    C211586  13.185  11.383   6.093 -0.1937  0.1943 -0.0353
  788loPI    C311587  13.081  11.248   5.732 -0.0543 -0.2339  0.0780
  788loPI   PO411588  13.662  11.255   6.004  0.0873 -0.2133 -0.0572
  788loPI   GL111589  13.503  11.197   6.423  0.1209 -0.0958  0.1097
  788loPI   GL211590  13.517  11.503   6.538 -0.1027 -0.0838 -0.2177
  788loPI   C1A11591  13.306  11.152   6.839  0.0001 -0.1152 -0.1985
  788loPI   C2A11592  13.282  11.167   7.256  0.0395 -0.0744 -0.2429
  788loPI   C3A11593  13.298  11.111   7.676 -0.0916  0.0067 -0.1085
  788loPI   C4A11594  13.323  11.030   8.047  0.0760 -0.1713 -0.0413
  788loPI   C5A11595  13.386  11.013   8.445 -0.2729 -0.3602 -0.3127
  788loPI   C6A11596  13.443  10.861   8.853 -0.0990 -0.2270 -0.0657
  788loPI   C1B11597  13.390  11.593   7.023 -0.1332  0.2457 -0.0405
  788loPI   C2B11598  13.407  11.661   7.475  0.0725  0.2420 -0.0880
  788loPI   C3B11599  13.456  11.544   7.809 -0.1800 -0.1787 -0.1873
  788loPI   C4B11600  13.470  11.624   8.275  0.2382 -0.1176 -0.0128
  789loPI    C111601  17.029  12.973   5.861  0.1912  0.0872  0.1147
  789loPI    C211602  17.125  13.125   5.504 -0.2095  0.1217  0.0169
  789loPI    C311603  16.930  12.777   5.527  0.0985 -0.0423  0.2172
  789loPI   PO411604  17.011  13.242   6.037  0.1639 -0.0505 -0.0077
  789loPI   GL111605  17.271  13.321   6.352  0.2886  0.0804 -0.1786
  789loPI   GL211606  17.559  13.455   6.481 -0.0604 -0.1275  0.1680
  789loPI   C1A11607  17.344  13.080   6.685 -0.2855  0.2577 -0.3708
  789loPI   C2A11608  17.391  13.037   7.091 -0.2813  0.1442  0.4644
  789loPI   C3A11609  17.219  13.211   7.513  0.1565 -0.0522  0.0841
  789loPI   C4A11610  17.097  13.561   7.819 -0.2071 -0.1899  0.1448
  789loPI   C5A11611  17.233  13.920   8.004  0.1143 -0.2147 -0.1038
  789loPI   C6A11612  17.282  14.085   8.393  0.0335 -0.5862  0.1812
  789loPI   C1B11613  17.306  13.527   6.921  0.0605 -0.1345  0.0509
  789loPI   C2B11614  16.971  13.651   7.296 -0.2052  0.2166  0.2152
  789loPI   C3B11615  16.762  13.946   7.568  0.3246 -0.2114 -0.1672
  789loPI   C4B11616  16.726  14.119   8.023  0.0824 -0.0984 -0.2199
  790loPI    C111617  11.221  14.348   6.175 -0.0985 -0.0668 -0.0104
  790loPI    C211618  11.282  14.543   5.831  0.1206 -0.0993  0.0086
  790loPI    C311619  11.393  14.160   5.868 -0.0182 -0.1342  0.0752
  790loPI   PO411620  11.308  14.383   6.360  0.2336  0.2838  0.2516
  790loPI   GL111621  11.455  14.508   6.699 -0.0232  0.2876  0.1041
  790loPI   GL211622  11.181  14.571   6.808  0.6960 -0.0543 -0.1162
  790loPI   C1A11623  11.452  14.279   7.064  0.1627  0.4268  0.0768
  790loPI   C2A11624  11.518  14.228   7.532 -0.1716 -0.2178  0.1553
  790loPI   C3A11625  11.467  14.181   7.899 -0.1933  0.3013  0.1487
  790loPI   C4A11626  11.445  14.174   8.339  0.1704 -0.1432  0.0712
  790loPI   C5A11627  11.516  14.262   8.769  0.1741  0.0720 -0.2766
  790loPI   C6A11628  11.817  14.408   9.055 -0.1423  0.3792 -0.0878
  790loPI   C1B11629  11.060  14.486   7.269 -0.0311  0.0109  0.0627
  790loPI   C2B11630  11.008  14.544   7.755  0.0321  0.2179  0.2951
  790loPI   C3B11631  11.059  14.478   8.150 -0.0091 -0.2494  0.3251
  790loPI   C4B11632  11.065  14.506   8.598 -0.0166 -0.0679 -0.2354
  791loPI    C111633  10.221  12.322   5.880  0.1020 -0.2355 -0.2644
  791loPI    C211634  10.566  12.405   5.694  0.0840  0.3874 -0.0411
  791loPI    C311635  10.217  12.478   5.512  0.0659  0.1669 -0.0977
  791loPI   PO411636  10.283  12.427   6.176 -0.1524 -0.0686  0.1738
  791loPI   GL111637  10.236  12.350   6.602 -0.2697 -0.1412  0.0697
  791loPI   GL211638  10.009  12.602   6.769  0.2097 -0.0325  0.1514
  791loPI   C1A11639  10.304  12.267   6.996  0.0217 -0.0691 -0.0926
  791loPI   C2A11640  10.335  12.350   7.390 -0.0693  0.0303 -0.1483
  791loPI   C3A11641  10.320  12.405   7.783  0.2446 -0.0282 -0.1801
  791loPI   C4A11642  10.334  12.519   8.172  0.1025  0.2983 -0.0815
  791loPI   C5A11643  10.402  12.415   8.605  0.0479 -0.0427 -0.0884
  791loPI   C6A11644  10.643  12.115   9.009  0.0260 -0.4451  0.0051
  791loPI   C1B11645   9.921  12.668   7.208  0.1592 -0.2368 -0.0888
  791loPI   C2B11646   9.903  12.581   7.630  0.2994  0.2529  0.2346
  791loPI   C3B11647   9.839  12.702   8.080  0.2325 -0.3187  0.1445
  791loPI   C4B11648   9.970  12.731   8.499  0.2891  0.3224  0.1360
  792loPI    C111649   0.137  10.381   5.423 -0.0815 -0.0179 -0.0978
  792loPI    C211650  -0.163  10.152   5.290  0.0370 -0.0855 -0.2526
  792loPI    C311651  -0.196  10.550   5.280 -0.1569 -0.0932 -0.0125
  792loPI   PO411652   0.166  10.227   5.673  0.0759 -0.4047  0.1251
  792loPI   GL111653   0.166  10.283   6.116  0.0940 -0.0890 -0.0566
  792loPI   GL211654   0.453  10.323   6.334  0.3344 -0.0838  0.0379
  792loPI   C1A11655  -0.068  10.608   6.327 -0.1923  0.1412  0.1921
  792loPI   C2A11656  -0.004  10.796   6.682  0.1212 -0.1176 -0.1023
  792loPI   C3A11657  -0.051  10.714   7.173 -0.0132  0.1357  0.0279
  792loPI   C4A11658  -0.149  10.700   7.564 -0.0568  0.2185  0.0695
  792loPI   C5A11659  -0.094  10.751   8.016 -0.1562  0.1433  0.2861
  792loPI   C6A11660  -0.055  10.768   8.461  0.1102  0.2072 -0.0980
  792loPI   C1B11661   0.355  10.374   6.750  0.0489  0.0928  0.0816
  792loPI   C2B11662   0.311  10.336   7.184 -0.2349  0.5121 -0.1049
  792loPI   C3B11663   0.272  10.388   7.636 -0.0593  0.0403  0.1006
  792loPI   C4B11664   0.276  10.385   8.091 -0.3804 -0.0756 -0.0463
  793loPI    C111665  15.339  13.275   5.950  0.1636 -0.1828  0.0694
  793loPI    C211666  15.444  13.220   5.568  0.2707  0.1843  0.0419
  793loPI    C311667  15.099  13.402   5.656  0.1552 -0.0693  0.1247
  793loPI   PO411668  15.463  13.072   6.090  0.3133 -0.2356  0.3105
  793loPI   GL111669  15.342  12.963   6.474  0.1722 -0.2754 -0.0699
  793loPI   GL211670  15.708  13.107   6.539  0.1389 -0.0210  0.1095
  793loPI   C1A11671  15.270  12.818   6.878  0.1041 -0.0695  0.1784
  793loPI   C2A11672  15.344  12.793   7.279 -0.0660  0.3222  0.0058
  793loPI   C3A11673  15.423  12.840   7.690 -0.3138 -0.2088 -0.1479
  793loPI   C4A11674  15.560  12.990   7.995 -0.0822 -0.1424  0.0764
  793loPI   C5A11675  15.641  12.803   8.412 -0.0704 -0.0168  0.0443
  793loPI   C6A11676  15.528  12.649   8.843  0.3137 -0.1125 -0.2359
  793loPI   C1B11677  15.817  12.796   6.846  0.2884  0.4457  0.2415
  793loPI   C2B11678  15.890  12.809   7.262  0.0050 -0.0666 -0.2121
  793loPI   C3B11679  16.003  12.680   7.706  0.1307  0.3103  0.0183
  793loPI   C4B11680  16.103  12.642   8.133  0.1859  0.2083  0.2364
  794loPI    C111681   7.909   9.573   5.933  0.0609 -0.0601 -0.0029
  794loPI    C211682   8.073   9.423   5.601 -0.0218 -0.1208 -0.0167
  794loPI    C311683   7.747   9.252   5.759 -0.0645 -0.0091  0.0178
  794loPI   PO411684   8.210   9.723   5.959  0.0163 -0.2516 -0.1006
  794loPI   GL111685   8.374   9.698   6.347  0.2266 -0.2143  0.2666
  794loPI   GL211686   8.528   9.708   6.568 -0.2273 -0.0605 -0.0871
  794loPI   C1A11687   7.960   9.623   6.601 -0.1530 -0.0267  0.3332
  794loPI   C2A11688   7.914   9.518   7.020  0.2178 -0.1694  0.2055
  794loPI   C3A11689   8.015   9.624   7.431 -0.2148  0.3562  0.0157
  794loPI   C4A11690   7.943   9.462   7.835  0.0980 -0.0483  0.0835
  794loPI   C5A11691   7.985   9.310   8.346 -0.0271  0.1562 -0.1074
  794loPI   C6A11692   8.173   8.945   8.372  0.4274  0.1833  0.0224
  794loPI   C1B11693   8.611   9.744   6.993  0.3580 -0.1044 -0.0077
  794loPI   C2B11694   8.613   9.707   7.469  0.0332  0.2832  0.2472
  794loPI   C3B11695   8.482   9.567   7.837  0.0720  0.0111 -0.1145
  794loPI   C4B11696   8.484   9.618   8.259 -0.2154 -0.2559 -0.2951
  795loPI    C111697   3.578  12.332   5.841  0.0298 -0.0690  0.0427
  795loPI    C211698   3.734  12.281   5.476  0.0697 -0.0245  0.0535
  795loPI    C311699   3.370  12.442   5.517  0.1698  0.2078  0.0442
  795loPI   PO411700   3.715  12.429   5.971  0.3014  0.3491 -0.0035
  795loPI   GL111701   3.932  12.312   6.306  0.0620  0.1273 -0.0572
  795loPI   GL211702   3.934  12.647   6.350  0.2414 -0.2909 -0.0007
  795loPI   C1A11703   3.915  12.316   6.763 -0.0571 -0.1535 -0.0793
  795loPI   C2A11704   3.997  12.282   7.179 -0.1477 -0.3653  0.0366
  795loPI   C3A11705   3.816  12.214   7.478 -0.0056  0.3274 -0.2833
  795loPI   C4A11706   3.874  12.165   7.879  0.1420 -0.0986 -0.1176
  795loPI   C5A11707   3.805  12.228   8.370  0.4283  0.3623 -0.0919
  795loPI   C6A11708   3.299  12.228   8.665 -0.1513  0.0846 -0.4287
  795loPI   C1B11709   3.995  12.824   6.787 -0.3493  0.0351  0.0759
  795loPI   C2B11710   4.016  12.760   7.136 -0.0088  0.2701 -0.0517
  795loPI   C3B11711   3.915  12.681   7.533  0.2839 -0.0204  0.1308
  795loPI   C4B11712   4.045  12.724   7.937 -0.1475 -0.3426 -0.4406
  796loPI    C111713  16.763   1.218   6.084  0.3748 -0.1394  0.2828
  796loPI    C211714  16.598   0.918   6.290  0.1010 -0.1155  0.1044
  796loPI    C311715  16.538   0.946   5.896  0.2634  0.0807  0.0920
  796loPI   PO411716  16.780   1.389   6.331  0.0266 -0.0787 -0.2305
  796loPI   GL111717  17.068   1.466   6.625 -0.0077 -0.2830  0.0702
  796loPI   GL211718  17.195   1.166   6.658 -0.4917  0.0533  0.0847
  796loPI   C1A11719  17.002   1.550   7.066  0.1249  0.8130 -0.1927
  796loPI   C2A11720  16.982   1.659   7.433 -0.0736 -0.2162  0.0431
  796loPI   C3A11721  16.919   1.799   7.804 -0.2337 -0.1018 -0.3429
  796loPI   C4A11722  16.946   1.817   8.231  0.1039  0.1560  0.0262
  796loPI   C5A11723  16.927   1.820   8.676 -0.2194 -0.0916 -0.0249
  796loPI   C6A11724  16.849   1.699   9.076 -0.0596  0.4498  0.0471
  796loPI   C1B11725  17.384   1.304   7.155 -0.3793  0.3462 -0.0668
  796loPI   C2B11726  17.384   1.368   7.619 -0.1555  0.1224  0.0319
  796loPI   C3B11727  17.263   1.517   8.051  0.0935  0.2490 -0.0243
  796loPI   C4B11728  17.296   1.500   8.506 -0.2698  0.2655  0.0231
  797loPI    C111729   3.787   8.660   5.448  0.0150 -0.2158  0.1918
  797loPI    C211730   3.565   8.409   5.230 -0.0664 -0.0253  0.0530
  797loPI    C311731   3.482   8.801   5.230  0.0382 -0.0017  0.2945
  797loPI   PO411732   3.802   8.514   5.690 -0.2709 -0.0446 -0.0433
  797loPI   GL111733   4.069   8.630   6.043 -0.0172 -0.0716  0.2493
  797loPI   GL211734   4.290   8.475   6.290 -0.0311 -0.4689 -0.2399
  797loPI   C1A11735   3.915   8.743   6.554 -0.1850  0.0755 -0.3277
  797loPI   C2A11736   3.776   8.782   6.990 -0.2838  0.4200 -0.2076
  797loPI   C3A11737   3.779   8.710   7.430  0.2349  0.1430  0.0255
  797loPI   C4A11738   3.696   8.829   7.898 -0.2477  0.2036  0.0914
  797loPI   C5A11739   3.845   8.929   8.427  0.0709  0.0849 -0.1833
  797loPI   C6A11740   4.206   8.740   8.645 -0.1000  0.0117 -0.2605
  797loPI   C1B11741   4.278   8.438   6.719  0.2457 -0.1535 -0.1749
  797loPI   C2B11742   4.179   8.449   7.233 -0.0874  0.3941 -0.1320
  797loPI   C3B11743   4.141   8.416   7.661 -0.0600 -0.1961  0.1072
  797loPI   C4B11744   4.149   8.477   8.059  0.2648 -0.3035 -0.2616
  798loPI    C111745   4.909   9.572   5.661  0.0217 -0.2650  0.0406
  798loPI    C211746   5.108   9.332   5.410 -0.0685 -0.2057 -0.0890
  798loPI    C311747   4.809   9.559   5.274 -0.0401 -0.0833  0.0497
  798loPI   PO411748   4.935   9.421   5.887 -0.0304  0.0789  0.1468
  798loPI   GL111749   5.049   9.234   6.252  0.2358  0.1652  0.0934
  798loPI   GL211750   5.206   9.399   6.471  0.0689 -0.3826 -0.0977
  798loPI   C1A11751   4.805   9.167   6.602  0.0158  0.1994  0.0582
  798loPI   C2A11752   4.760   9.048   6.932  0.0953 -0.1303 -0.0431
  798loPI   C3A11753   4.701   9.289   7.366 -0.1087 -0.2269  0.0861
  798loPI   C4A11754   4.727   9.171   7.820 -0.0001 -0.1504 -0.0409
  798loPI   C5A11755   4.597   9.079   8.194 -0.2372  0.0127  0.0773
  798loPI   C6A11756   4.540   9.129   8.573  0.1072  0.1191  0.0431
  798loPI   C1B11757   5.238   9.425   6.883  0.1891 -0.1088 -0.1858
  798loPI   C2B11758   5.243   9.378   7.322 -0.1386 -0.0053 -0.1489
  798loPI   C3B11759   5.275   9.310   7.720  0.3320  0.0833  0.0827
  798loPI   C4B11760   5.243   9.251   8.158  0.0718  0.3252  0.1240
  799loPI    C111761  16.299   4.327   5.961  0.1413 -0.0478 -0.0196
  799loPI    C211762  16.225   3.944   5.874  0.1102 -0.1191  0.3078
  799loPI    C311763  16.444   4.167   5.624 -0.2564 -0.2180 -0.1164
  799loPI   PO411764  16.354   4.364   6.165 -0.0654  0.1052  0.2177
  799loPI   GL111765  16.352   4.611   6.443  0.2016 -0.1067  0.0958
  799loPI   GL211766  16.207   4.914   6.411  0.0269  0.1880 -0.0418
  799loPI   C1A11767  16.477   4.506   6.902 -0.0545  0.0837 -0.0928
  799loPI   C2A11768  16.377   4.360   7.376  0.2542  0.2285  0.4637
  799loPI   C3A11769  16.410   4.405   7.742 -0.0452 -0.3807  0.0794
  799loPI   C4A11770  16.384   4.459   8.188 -0.2490  0.0239 -0.3848
  799loPI   C5A11771  16.242   4.382   8.573 -0.1257  0.0981 -0.0269
  799loPI   C6A11772  16.415   4.157   8.994  0.0118  0.0224  0.1601
  799loPI   C1B11773  16.099   4.798   6.840  0.0905 -0.2431 -0.1709
  799loPI   C2B11774  15.989   4.743   7.274  0.0534 -0.0884  0.0691
  799loPI   C3B11775  15.987   4.670   7.721  0.1497  0.0065  0.1172
  799loPI   C4B11776  15.963   4.841   8.122 -0.2474  0.0721  0.0136
  800loPI    C111777  16.844   0.361   5.913  0.0843 -0.0328  0.2647
  800loPI    C211778  16.998   0.698   5.763 -0.2382  0.0812  0.1814
  800loPI    C311779  16.693   0.518   5.577  0.0234 -0.3371  0.1472
  800loPI   PO411780  16.876   0.442   6.201 -0.0572 -0.0349  0.1004
  800loPI   GL111781  16.924   0.691   6.681 -0.1926  0.1108  0.1515
  800loPI   GL211782  16.632   0.527   6.671 -0.0114 -0.2807 -0.2619
  800loPI   C1A11783  17.196   0.781   7.098 -0.1401  0.0687 -0.0313
  800loPI   C2A11784  17.355   0.794   7.460 -0.0921 -0.0847 -0.2432
  800loPI   C3A11785  17.306   0.908   7.885  0.1228  0.2006  0.0280
  800loPI   C4A11786  17.207   0.978   8.321  0.0122 -0.1626  0.0568
  800loPI   C5A11787  17.378   1.092   8.762 -0.0251 -0.3307 -0.2051
  800loPI   C6A11788  17.766   1.194   9.064 -0.0816  0.2303  0.1390
  800loPI   C1B11789  16.208   0.386   6.993 -0.0856 -0.0938 -0.0790
  800loPI   C2B11790  16.336   0.259   7.509  0.0638  0.0934  0.1963
  800loPI   C3B11791  16.332   0.049   7.854 -0.1189 -0.0903 -0.0895
  800loPI   C4B11792  16.409  -0.108   8.297 -0.1014 -0.0807  0.0962
  801loPI    C111793   8.934   7.671   5.929 -0.0921 -0.0255 -0.1187
  801loPI    C211794   9.332   7.714   5.912 -0.0924 -0.0222 -0.1171
  801loPI    C311795   9.116   7.718   5.575 -0.0764 -0.1640 -0.1297
  801loPI   PO411796   8.901   7.551   6.154 -0.0421  0.0376 -0.1375
  801loPI   GL111797   8.586   7.426   6.389  0.1245 -0.0573 -0.1113
  801loPI   GL211798   8.384   7.216   6.261 -0.0347 -0.1939 -0.0888
  801loPI   C1A11799   8.713   7.278   6.816  0.1903 -0.0157  0.1886
  801loPI   C2A11800   8.664   7.337   7.265 -0.1133  0.1186  0.2208
  801loPI   C3A11801   8.536   7.217   7.707 -0.1941  0.1220  0.0987
  801loPI   C4A11802   8.441   7.115   8.083  0.0839  0.0771  0.0128
  801loPI   C5A11803   8.226   7.249   8.385 -0.0292 -0.1504 -0.1676
  801loPI   C6A11804   7.946   7.651   8.417 -0.3741  0.1559 -0.0449
  801loPI   C1B11805   8.211   7.098   6.639 -0.0243 -0.1767 -0.3531
  801loPI   C2B11806   8.031   6.993   7.080 -0.3554  0.3190  0.2061
  801loPI   C3B11807   8.105   7.088   7.545  0.1070 -0.1012  0.1460
  801loPI   C4B11808   7.971   7.057   7.984 -0.0789  0.2410 -0.0295
  802loPI    C111809   5.878   2.612   5.644  0.0009  0.0980 -0.2077
  802loPI    C211810   5.860   2.305   5.388  0.0601  0.0676 -0.1754
  802loPI    C311811   5.612   2.616   5.345  0.0024  0.0168 -0.2102
  802loPI   PO411812   6.143   2.678   5.687  0.1497 -0.1511  0.0867
  802loPI   GL111813   6.263   2.645   6.136 -0.1678 -0.0686 -0.0019
  802loPI   GL211814   6.024   2.681   6.150 -0.0433 -0.3217 -0.2221
  802loPI   C1A11815   6.407   2.510   6.553 -0.1618 -0.0341  0.0058
  802loPI   C2A11816   6.447   2.611   6.975 -0.0648  0.1546 -0.0396
  802loPI   C3A11817   6.485   2.582   7.395 -0.1481  0.3332  0.1236
  802loPI   C4A11818   6.404   2.595   7.858  0.2235  0.3071  0.0194
  802loPI   C5A11819   6.290   2.633   8.282 -0.1766  0.1852  0.2732
  802loPI   C6A11820   6.109   2.617   8.709 -0.2991  0.3442 -0.0678
  802loPI   C1B11821   6.059   2.833   6.606  0.0250  0.0221 -0.2577
  802loPI   C2B11822   5.976   2.897   7.030  0.2491 -0.0176 -0.0839
  802loPI   C3B11823   6.130   2.918   7.414  0.3138 -0.3344  0.0683
  802loPI   C4B11824   6.016   2.919   7.868  0.0459 -0.2837  0.0959
  803loPI    C111825   7.748   2.153   5.935  0.1512  0.1220  0.0479
  803loPI    C211826   7.672   1.876   5.656  0.1523  0.0837  0.0854
  803loPI    C311827   7.605   2.263   5.578 -0.1123  0.0481  0.1284
  803loPI   PO411828   7.728   1.975   6.162  0.0613 -0.0880 -0.1254
  803loPI   GL111829   7.740   1.884   6.486 -0.1086 -0.2448  0.4468
  803loPI   GL211830   7.765   1.551   6.550 -0.0838  0.1398 -0.1112
  803loPI   C1A11831   7.731   2.148   6.813 -0.0846 -0.0608  0.1266
  803loPI   C2A11832   7.674   2.118   7.247 -0.0796 -0.2260  0.0001
  803loPI   C3A11833   7.701   2.150   7.701 -0.1158  0.0588  0.0427
  803loPI   C4A11834   7.563   2.135   8.105 -0.3154  0.0270 -0.3803
  803loPI   C5A11835   7.600   2.156   8.514  0.0658  0.1838  0.0216
  803loPI   C6A11836   7.428   1.969   8.899  0.2639 -0.0187  0.0811
  803loPI   C1B11837   7.601   1.601   6.978 -0.0169 -0.0420  0.2190
  803loPI   C2B11838   7.582   1.696   7.428  0.1307 -0.0834  0.0088
  803loPI   C3B11839   7.525   1.664   7.847 -0.3496  0.1070 -0.2141
  803loPI   C4B11840   7.560   1.639   8.276 -0.2340  0.0095 -0.0009
  804loPI    C111841   8.984  10.899   5.799 -0.1362  0.1410  0.1089
  804loPI    C211842   9.121  10.866   5.424 -0.4260 -0.4104  0.0398
  804loPI    C311843   8.820  11.117   5.506  0.0117  0.1397  0.0244
  804loPI   PO411844   9.094  10.642   5.886  0.3968 -0.2244 -0.1113
  804loPI   GL111845   9.271  10.467   6.236 -0.0980  0.0480  0.0300
  804loPI   GL211846   9.410  10.783   6.305  0.1111  0.0242  0.1971
  804loPI   C1A11847   9.117  10.487   6.701 -0.3829  0.3391 -0.0070
  804loPI   C2A11848   9.103  10.360   7.110  0.0590  0.0878  0.1881
  804loPI   C3A11849   9.203  10.419   7.559 -0.2336  0.2945  0.2655
  804loPI   C4A11850   9.121  10.447   7.934 -0.2848 -0.0199  0.1570
  804loPI   C5A11851   9.158  10.316   8.338 -0.2845 -0.0004  0.0170
  804loPI   C6A11852   9.020  10.332   8.811 -0.1255  0.0391  0.2401
  804loPI   C1B11853   9.643  11.063   6.674 -0.0592 -0.1430 -0.2038
  804loPI   C2B11854   9.616  11.146   7.079 -0.1502 -0.0046  0.1656
  804loPI   C3B11855   9.697  11.105   7.492  0.0957  0.0588  0.2131
  804loPI   C4B11856   9.775  11.094   7.888 -0.1751 -0.4517  0.2066
  805loPI    C111857   6.802  11.032   5.475 -0.0910  0.1935  0.1098
  805loPI    C211858   6.608  11.380   5.437 -0.3071  0.0463 -0.1696
  805loPI    C311859   6.772  11.207   5.116 -0.0333 -0.0162  0.0013
  805loPI   PO411860   6.753  10.992   5.695  0.3992 -0.1600 -0.1038
  805loPI   GL111861   6.797  10.916   6.078  0.2083  0.0387  0.1147
  805loPI   GL211862   7.011  11.029   6.268  0.0656 -0.0767 -0.2572
  805loPI   C1A11863   6.456  10.911   6.419 -0.0632  0.1297 -0.0439
  805loPI   C2A11864   6.421  10.865   6.915  0.0086 -0.1257  0.2406
  805loPI   C3A11865   6.295  10.903   7.401  0.0835 -0.3216 -0.2347
  805loPI   C4A11866   6.393  10.702   7.783  0.0262 -0.0048 -0.2988
  805loPI   C5A11867   6.478  10.663   8.247 -0.1202 -0.0091 -0.0488
  805loPI   C6A11868   6.351  10.555   8.596  0.2508  0.3839 -0.4613
  805loPI   C1B11869   6.872  11.036   6.678  0.1880 -0.1967 -0.0651
  805loPI   C2B11870   6.810  11.091   7.201  0.2730 -0.2186  0.0570
  805loPI   C3B11871   6.787  10.946   7.621  0.2374  0.3241  0.1930
  805loPI   C4B11872   6.928  10.774   8.057 -0.2861 -0.0416  0.0492
  806loPI    C111873   4.350  11.882   5.690  0.0263 -0.0134 -0.1227
  806loPI    C211874   4.075  12.111   5.869  0.2371  0.1325  0.0203
  806loPI    C311875   4.270  12.247   5.548  0.1973  0.0597 -0.0350
  806loPI   PO411876   4.428  11.762   5.929 -0.0484  0.0816 -0.0482
  806loPI   GL111877   4.230  11.771   6.298 -0.1284  0.1338  0.4000
  806loPI   GL211878   4.445  11.984   6.384 -0.0294 -0.1739 -0.2068
  806loPI   C1A11879   4.159  11.537   6.563 -0.0076 -0.0019  0.0774
  806loPI   C2A11880   4.231  11.492   7.013  0.1676  0.2804  0.0330
  806loPI   C3A11881   4.052  11.373   7.321  0.0137  0.0849 -0.1407
  806loPI   C4A11882   4.155  11.243   7.671  0.0484  0.0080  0.0385
  806loPI   C5A11883   4.078  11.345   8.070  0.0232 -0.0845  0.0433
  806loPI   C6A11884   4.251  11.426   8.382 -0.0652 -0.0366  0.0283
  806loPI   C1B11885   4.275  11.953   6.805  0.2487  0.1704 -0.1982
  806loPI   C2B11886   4.213  11.864   7.331  0.3573  0.0741  0.0217
  806loPI   C3B11887   4.198  11.757   7.693  0.2472  0.1354  0.3483
  806loPI   C4B11888   4.216  11.893   8.099 -0.0699  0.0358 -0.0580
  807loPI    C111889  13.812  13.647   6.444 -0.0951  0.0688  0.2858
  807loPI    C211890  13.984  14.005   6.398  0.0123  0.0254  0.3460
  807loPI    C311891  14.208  13.673   6.393 -0.1063 -0.0536  0.1251
  807loPI   PO411892  13.703  13.672   6.737 -0.0676 -0.1072 -0.0432
  807loPI   GL111893  13.402  13.582   7.027  0.1635 -0.1046  0.0581
  807loPI   GL211894  13.286  13.421   7.086 -0.2694 -0.1715 -0.0661
  807loPI   C1A11895  13.680  13.671   7.401  0.0180 -0.2952 -0.2077
  807loPI   C2A11896  13.664  13.659   7.860  0.0791 -0.2616 -0.3910
  807loPI   C3A11897  13.700  13.525   8.156  0.0603 -0.1408 -0.2026
  807loPI   C4A11898  13.943  13.632   8.466  0.0575 -0.0521 -0.0707
  807loPI   C5A11899  13.835  13.949   8.822 -0.0190  0.1306 -0.0847
  807loPI   C6A11900  14.045  14.261   8.979  0.0183  0.2959 -0.1181
  807loPI   C1B11901  13.334  13.398   7.538  0.0628 -0.0505  0.0965
  807loPI   C2B11902  13.275  13.383   8.021 -0.2083  0.1181  0.0576
  807loPI   C3B11903  13.156  13.284   8.390  0.1150 -0.1193 -0.0076
  807loPI   C4B11904  12.836  13.134   8.722  0.3763 -0.1944  0.2909
  808loPI    C111905   0.470  12.924   5.702 -0.1286  0.0948  0.2223
  808loPI    C211906   0.498  13.322   5.728  0.1524  0.1057 -0.1654
  808loPI    C311907   0.760  13.117   5.505 -0.0357 -0.2910 -0.0307
  808loPI   PO411908   0.433  12.846   6.024  0.0596 -0.2230 -0.2075
  808loPI   GL111909   0.242  12.914   6.421  0.1659  0.0235  0.3107
  808loPI   GL211910   0.397  12.624   6.434  0.4341  0.0350 -0.0141
  808loPI   C1A11911   0.306  12.892   6.891 -0.0392 -0.0212  0.0181
  808loPI   C2A11912   0.251  12.845   7.383  0.2389  0.0847  0.1820
  808loPI   C3A11913   0.349  12.729   7.772  0.0859 -0.3889  0.4055
  808loPI   C4A11914   0.677  12.684   8.089 -0.1947  0.0185 -0.2232
  808loPI   C5A11915   0.785  12.386   8.265  0.0631  0.0997 -0.2174
  808loPI   C6A11916   1.045  12.331   8.623  0.0488 -0.2797 -0.0648
  808loPI   C1B11917   0.636  12.567   6.693 -0.0775  0.1471 -0.0951
  808loPI   C2B11918   0.885  12.649   6.991 -0.2363 -0.3667 -0.1572
  808loPI   C3B11919   0.950  12.858   7.338 -0.1495 -0.1936 -0.0132
  808loPI   C4B11920   0.641  13.082   7.584 -0.2219 -0.1685 -0.0586
  809loPI    C111921   6.106   8.327   5.714  0.1684  0.0496  0.0542
  809loPI    C211922   6.047   8.666   5.509  0.3558  0.0381 -0.0207
  809loPI    C311923   6.307   8.394   5.374  0.2649 -0.1005  0.0812
  809loPI   PO411924   6.118   8.430   5.966  0.2088  0.1328  0.0977
  809loPI   GL111925   5.928   8.476   6.339  0.3378  0.1861 -0.0472
  809loPI   GL211926   6.027   8.827   6.373 -0.2702 -0.4361  0.4301
  809loPI   C1A11927   5.990   8.280   6.824  0.0304 -0.0120  0.0452
  809loPI   C2A11928   5.960   8.280   7.313  0.1334  0.0925 -0.1193
  809loPI   C3A11929   5.936   8.103   7.684 -0.0557 -0.0327 -0.3124
  809loPI   C4A11930   5.838   8.040   8.027 -0.0313  0.1343  0.2378
  809loPI   C5A11931   5.859   7.617   8.304  0.1516 -0.1383 -0.3398
  809loPI   C6A11932   5.961   7.310   8.572 -0.0520  0.1774 -0.3252
  809loPI   C1B11933   6.111   8.796   6.752  0.1729 -0.0006 -0.0355
  809loPI   C2B11934   6.085   8.810   7.233 -0.1202  0.0007  0.0166
  809loPI   C3B11935   5.994   8.736   7.681 -0.1377 -0.0282 -0.0780
  809loPI   C4B11936   5.955   8.635   8.114  0.1707 -0.1179  0.1094
  810loPI    C111937  16.549   3.175   5.884  0.0157  0.1131  0.1310
  810loPI    C211938  16.663   3.547   5.791  0.1237  0.0114 -0.1564
  810loPI    C311939  16.288   3.429   5.719 -0.0084  0.1656  0.2492
  810loPI   PO411940  16.571   3.146   6.126  0.1335 -0.0167 -0.1505
  810loPI   GL111941  16.432   3.177   6.532 -0.1656 -0.0054 -0.0704
  810loPI   GL211942  16.570   3.537   6.668 -0.1096 -0.2988 -0.2112
  810loPI   C1A11943  16.518   3.063   6.950 -0.1166 -0.0000 -0.0581
  810loPI   C2A11944  16.520   3.036   7.272 -0.1385 -0.1649  0.1718
  810loPI   C3A11945  16.679   3.094   7.701 -0.1458  0.0225  0.2639
  810loPI   C4A11946  16.708   3.175   8.121 -0.1667 -0.1155  0.2012
  810loPI   C5A11947  16.799   3.129   8.546  0.1546 -0.2324 -0.0866
  810loPI   C6A11948  16.980   3.182   8.982  0.0028  0.2775  0.1518
  810loPI   C1B11949  16.686   3.569   7.061 -0.1109  0.0624  0.1816
  810loPI   C2B11950  16.653   3.572   7.493 -0.1143  0.0916  0.0630
  810loPI   C3B11951  16.662   3.669   7.970  0.0448 -0.0867 -0.1936
  810loPI   C4B11952  16.779   3.616   8.348  0.1005 -0.0063  0.0333
  811loPI    C111953  12.393  16.160   6.327  0.0831  0.2140  0.0469
  811loPI    C211954  12.323  16.208   5.936  0.0793  0.0488  0.0266
  811loPI    C311955  12.502  15.876   6.068 -0.1088  0.0086  0.1872
  811loPI   PO411956  12.112  16.253   6.433 -0.2004 -0.2683  0.0526
  811loPI   GL111957  11.884  16.118   6.739  0.4166 -0.1012  0.0528
  811loPI   GL211958  11.623  16.193   6.818  0.1518 -0.0151  0.2331
  811loPI   C1A11959  12.028  16.181   7.229 -0.0062  0.3624  0.2667
  811loPI   C2A11960  12.184  16.448   7.585 -0.0754 -0.2459 -0.1357
  811loPI   C3A11961  12.189  16.549   8.031 -0.2447 -0.2477  0.2954
  811loPI   C4A11962  12.274  16.516   8.386 -0.3418  0.0713 -0.2352
  811loPI   C5A11963  12.701  16.385   8.535  0.4844 -0.0310  0.1351
  811loPI   C6A11964  12.999  16.119   8.758 -0.1661  0.0434  0.5003
  811loPI   C1B11965  11.517  16.149   7.212 -0.1152 -0.0382  0.0744
  811loPI   C2B11966  11.584  16.198   7.591  0.2647  0.2549 -0.0387
  811loPI   C3B11967  11.747  16.331   7.878  0.0863 -0.2224  0.0234
  811loPI   C4B11968  12.011  16.099   8.189 -0.1864  0.1245 -0.3504
  812loPI    C111969   1.219   5.041   6.088  0.0868  0.1908 -0.1583
  812loPI    C211970   1.554   5.046   6.305  0.0800  0.0607 -0.1435
  812loPI    C311971   1.496   4.758   6.034 -0.0005  0.1080 -0.1770
  812loPI   PO411972   1.205   5.339   6.048 -0.1158 -0.5379  0.2478
  812loPI   GL111973   1.299   5.586   6.338 -0.2393 -0.1184  0.0566
  812loPI   GL211974   1.448   5.820   6.387 -0.0145 -0.0413 -0.2244
  812loPI   C1A11975   1.342   5.369   6.690  0.1484 -0.0328  0.0349
  812loPI   C2A11976   1.407   5.453   7.120 -0.0247  0.0472  0.2909
  812loPI   C3A11977   1.372   5.453   7.488  0.0312 -0.0001  0.0519
  812loPI   C4A11978   1.303   5.464   7.975  0.1118  0.0431 -0.2321
  812loPI   C5A11979   1.404   5.460   8.351 -0.1261  0.1014  0.1246
  812loPI   C6A11980   1.554   5.123   8.606  0.0277  0.2671 -0.1817
  812loPI   C1B11981   1.467   5.917   6.877  0.4210  0.1579  0.1609
  812loPI   C2B11982   1.407   5.984   7.319 -0.2877  0.1743 -0.2154
  812loPI   C3B11983   1.334   5.977   7.824  0.0526 -0.2245  0.0766
  812loPI   C4B11984   1.426   5.947   8.243 -0.0789  0.0298  0.3206
  813loPI    C111985  15.493   3.129   5.727  0.0865  0.0831 -0.1680
  813loPI    C211986  15.852   3.219   5.576  0.2111 -0.1329 -0.0069
  813loPI    C311987  15.520   3.338   5.387  0.3658  0.2067 -0.0726
  813loPI   PO411988  15.531   3.151   5.986  0.0905  0.0081 -0.4781
  813loPI   GL111989  15.705   2.956   6.358  0.2536  0.1018 -0.0220
  813loPI   GL211990  15.532   2.760   6.531 -0.1818  0.1810  0.2305
  813loPI   C1A11991  16.019   2.973   6.712 -0.1780  0.1026 -0.3048
  813loPI   C2A11992  16.047   2.922   7.173  0.2725 -0.3917 -0.2610
  813loPI   C3A11993  16.215   2.931   7.668  0.0393 -0.0348 -0.0035
  813loPI   C4A11994  16.231   3.000   8.033 -0.0664 -0.1374  0.1016
  813loPI   C5A11995  16.261   2.952   8.518 -0.3473 -0.2302  0.0844
  813loPI   C6A11996  15.998   3.078   8.762  0.2120 -0.2700 -0.3165
  813loPI   C1B11997  15.601   2.745   7.018 -0.0663  0.1163  0.2428
  813loPI   C2B11998  15.743   2.710   7.515  0.0698  0.0410  0.1121
  813loPI   C3B11999  15.696   2.664   7.921 -0.3299  0.0747 -0.2039
  813loPI   C4B12000  15.840   2.741   8.327  0.1548 -0.0229 -0.2929
  814loPI    C112001  16.512   6.837   6.100  0.0782 -0.0537 -0.1596
  814loPI    C212002  16.624   6.854   5.717  0.2291  0.2615 -0.1045
  814loPI    C312003  16.237   6.825   5.810  0.2088 -0.1020 -0.2826
  814loPI   PO412004  16.648   6.958   6.213  0.2329 -0.0551  0.0626
  814loPI   GL112005  16.724   7.139   6.604 -0.1603 -0.2746  0.1012
  814loPI   GL212006  16.499   6.954   6.707  0.0272 -0.1078  0.0302
  814loPI   C1A12007  16.915   7.073   7.023 -0.3304  0.0684  0.2062
  814loPI   C2A12008  16.855   6.976   7.423  0.0035 -0.4041 -0.2270
  814loPI   C3A12009  16.799   7.033   7.927 -0.3194  0.1690 -0.2176
  814loPI   C4A12010  17.104   7.170   8.304  0.1556  0.1873 -0.1073
  814loPI   C5A12011  17.470   7.281   8.422  0.0178 -0.0294  0.4985
  814loPI   C6A12012  17.814   7.564   8.464  0.0867 -0.0886  0.0562
  814loPI   C1B12013  16.385   6.777   7.145  0.0679 -0.4039 -0.0656
  814loPI   C2B12014  16.382   6.830   7.613 -0.3517  0.3821  0.1511
  814loPI   C3B12015  16.260   6.843   7.949  0.0173 -0.1583 -0.0321
  814loPI   C4B12016  16.356   6.936   8.353  0.2814  0.1267 -0.3774
  815loPI    C112017  10.514  14.882   6.100  0.2044  0.0819 -0.1410
  815loPI    C212018  10.665  15.190   6.305 -0.0026 -0.0677  0.2471
  815loPI    C312019  10.416  15.257   5.999 -0.0185  0.1518  0.3059
  815loPI   PO412020  10.318  14.732   6.242  0.0284 -0.0152 -0.2514
  815loPI   GL112021  10.223  14.559   6.585  0.0738 -0.2383 -0.0935
  815loPI   GL212022  10.383  14.325   6.581  0.1996 -0.0385  0.2923
  815loPI   C1A12023  10.165  14.668   7.011  0.0350 -0.2731 -0.0451
  815loPI   C2A12024  10.173  14.740   7.378  0.0368 -0.0117 -0.0486
  815loPI   C3A12025  10.086  14.767   7.826  0.0564  0.0359 -0.0598
  815loPI   C4A12026  10.080  14.739   8.175  0.0458  0.0998  0.0737
  815loPI   C5A12027  10.098  14.732   8.628  0.1967 -0.2101 -0.1076
  815loPI   C6A12028   9.792  14.668   9.020  0.2876 -0.0955 -0.1697
  815loPI   C1B12029  10.065  14.225   6.924  0.0914  0.0206 -0.0519
  815loPI   C2B12030  10.084  14.243   7.379 -0.0463 -0.0097  0.0563
  815loPI   C3B12031   9.995  14.247   7.831  0.0746  0.2018  0.2193
  815loPI   C4B12032   9.992  14.284   8.312  0.1548  0.1396 -0.2118
  816loPI    C112033  12.316   5.593   6.181  0.0587 -0.2102  0.0716
  816loPI    C212034  12.429   5.631   5.799 -0.2003 -0.0214  0.0109
  816loPI    C312035  12.041   5.637   5.894 -0.1407 -0.1420  0.2706
  816loPI   PO412036  12.609   5.805   6.240 -0.0573 -0.0655  0.2524
  816loPI   GL112037  12.863   5.681   6.477  0.1717  0.3002 -0.0422
  816loPI   GL212038  12.941   6.047   6.540  0.3378  0.0380  0.1714
  816loPI   C1A12039  12.880   5.456   6.868  0.1024 -0.1011  0.3413
  816loPI   C2A12040  12.774   5.534   7.306  0.0479  0.0235  0.1166
  816loPI   C3A12041  12.798   5.581   7.652 -0.1068  0.2285 -0.0929
  816loPI   C4A12042  12.850   5.542   8.027  0.0106  0.1729 -0.0655
  816loPI   C5A12043  13.118   5.614   8.367 -0.0366 -0.0413 -0.0384
  816loPI   C6A12044  13.375   5.721   8.700  0.0284  0.3237  0.0832
  816loPI   C1B12045  12.878   5.968   6.923 -0.0892 -0.1793 -0.2814
  816loPI   C2B12046  12.881   6.006   7.346  0.0842 -0.0750 -0.2799
  816loPI   C3B12047  12.926   6.035   7.796  0.0637  0.2053  0.2477
  816loPI   C4B12048  12.836   6.009   8.219 -0.0206 -0.1567  0.2793
  817loPI    C112049   0.791   1.680   5.738  0.0419 -0.0732 -0.0275
  817loPI    C212050   0.614   1.322   5.719 -0.2757  0.0710  0.1417
  817loPI    C312051   0.715   1.514   5.383 -0.0921 -0.1809  0.0504
  817loPI   PO412052   0.888   1.639   6.005 -0.1348  0.0546  0.5158
  817loPI   GL112053   0.826   1.657   6.474 -0.1713  0.1310  0.0086
  817loPI   GL212054   1.051   1.423   6.523 -0.1128 -0.3328 -0.3397
  817loPI   C1A12055   0.719   1.723   6.887  0.1436 -0.2351  0.0460
  817loPI   C2A12056   0.748   1.835   7.386  0.4156  0.0373  0.0853
  817loPI   C3A12057   0.807   1.789   7.800 -0.0201  0.1779  0.1416
  817loPI   C4A12058   0.790   1.786   8.196  0.0995 -0.1839 -0.1393
  817loPI   C5A12059   0.702   1.883   8.576 -0.2095  0.0278  0.5456
  817loPI   C6A12060   0.793   1.938   9.029  0.4191  0.0098  0.0832
  817loPI   C1B12061   1.097   1.416   6.941 -0.1943 -0.0964 -0.1517
  817loPI   C2B12062   1.125   1.487   7.355 -0.1029  0.0384  0.2099
  817loPI   C3B12063   1.258   1.533   7.784 -0.3060 -0.2084 -0.0628
  817loPI   C4B12064   1.246   1.514   8.200 -0.0783  0.1764 -0.2287
  818loPI    C112065  16.199  10.934   5.927 -0.2803  0.0157 -0.1279
  818loPI    C212066  16.409  11.274   5.928 -0.1763 -0.0479  0.0117
  818loPI    C312067  16.484  10.994   5.653 -0.2089  0.0088 -0.0554
  818loPI   PO412068  16.184  10.917   6.224 -0.2134  0.3739 -0.1732
  818loPI   GL112069  16.158  10.874   6.552  0.3608  0.0706  0.0752
  818loPI   GL212070  16.550  10.812   6.668  0.2226 -0.0224 -0.4479
  818loPI   C1A12071  16.108  10.633   6.933  0.0675 -0.1225  0.0454
  818loPI   C2A12072  16.127  10.586   7.423  0.1768 -0.0674  0.0481
  818loPI   C3A12073  16.078  10.607   7.824  0.0373  0.1527  0.1167
  818loPI   C4A12074  15.898  10.496   8.209  0.1250  0.1014 -0.0787
  818loPI   C5A12075  15.946  10.587   8.681  0.0503  0.0728  0.1372
  818loPI   C6A12076  15.925  10.340   9.040 -0.0791 -0.0370 -0.4094
  818loPI   C1B12077  16.597  10.780   7.061  0.0055 -0.1184  0.0366
  818loPI   C2B12078  16.522  10.859   7.477  0.2529 -0.3209  0.0616
  818loPI   C3B12079  16.526  10.763   7.915  0.0670 -0.1020 -0.0239
  818loPI   C4B12080  16.568  10.842   8.352 -0.0670 -0.1675  0.1653
  819loPI    C112081   9.689  15.845   5.830 -0.1319 -0.0993 -0.0745
  819loPI    C212082   9.877  16.140   5.636  0.0956 -0.0902  0.1538
  819loPI    C312083   9.860  15.774   5.475  0.0676 -0.0242  0.0051
  819loPI   PO412084   9.769  15.804   6.080  0.2738 -0.1246 -0.1946
  819loPI   GL112085   9.524  15.630   6.412  0.0903 -0.0485 -0.1876
  819loPI   GL212086   9.646  15.413   6.443  0.0953 -0.1807  0.1591
  819loPI   C1A12087   9.323  15.491   6.800  0.0306 -0.1485  0.0324
  819loPI   C2A12088   9.341  15.347   7.218 -0.3870 -0.1384  0.2848
  819loPI   C3A12089   9.273  15.432   7.701  0.0669  0.3637 -0.0906
  819loPI   C4A12090   9.203  15.458   8.103 -0.1171  0.0144  0.1618
  819loPI   C5A12091   9.307  15.788   8.435  0.1302 -0.3355 -0.0804
  819loPI   C6A12092   9.570  15.988   8.777  0.1006 -0.0302 -0.0992
  819loPI   C1B12093   9.809  15.473   6.827 -0.0685  0.0407 -0.1181
  819loPI   C2B12094   9.845  15.562   7.302 -0.1223  0.0711 -0.0461
  819loPI   C3B12095   9.756  15.566   7.773 -0.0913 -0.2391  0.1282
  819loPI   C4B12096   9.681  15.597   8.200  0.1337  0.3159  0.0663
  820loPI    C112097  16.901   9.758   5.853 -0.2375 -0.1105 -0.3170
  820loPI    C212098  16.983   9.857   5.474 -0.0215  0.0502 -0.2305
  820loPI    C312099  16.714  10.068   5.683 -0.0224  0.0624 -0.2439
  820loPI   PO412100  17.078   9.524   5.914 -0.0125  0.0456 -0.2116
  820loPI   GL112101  17.172   9.391   6.273  0.2198 -0.3654 -0.1775
  820loPI   GL212102  17.094   9.038   6.321 -0.2044  0.4558  0.1426
  820loPI   C1A12103  17.305   9.590   6.663 -0.0188 -0.1926  0.1726
  820loPI   C2A12104  17.351   9.702   7.085 -0.0945 -0.4553  0.2700
  820loPI   C3A12105  17.291   9.668   7.503  0.2183 -0.1720 -0.4267
  820loPI   C4A12106  17.304   9.642   7.934  0.1858 -0.0544  0.0716
  820loPI   C5A12107  17.163   9.621   8.351 -0.0051 -0.1738 -0.1345
  820loPI   C6A12108  17.633   9.612   8.622 -0.1303  0.0079 -0.1425
  820loPI   C1B12109  17.307   9.088   6.750  0.2681  0.1724 -0.4237
  820loPI   C2B12110  17.251   9.143   7.186 -0.0253 -0.0591 -0.2904
  820loPI   C3B12111  17.140   9.115   7.665  0.0940 -0.0094  0.0247
  820loPI   C4B12112  17.134   9.133   8.058 -0.1557  0.2556  0.0615
  821loPI    C112113   8.113   1.991   5.504  0.0030  0.0218  0.0377
  821loPI    C212114   8.353   1.783   5.261  0.0014 -0.1450  0.1768
  821loPI    C312115   8.420   2.173   5.323 -0.1329 -0.0461 -0.2662
  821loPI   PO412116   8.126   1.833   5.759 -0.3025  0.1357  0.2440
  821loPI   GL112117   8.257   1.843   6.284 -0.1120 -0.1651  0.1754
  821loPI   GL212118   8.162   2.252   6.233  0.1942  0.2114 -0.3620
  821loPI   C1A12119   8.217   1.811   6.699  0.1005  0.0339 -0.0434
  821loPI   C2A12120   8.041   1.817   7.171 -0.0702 -0.2475  0.0875
  821loPI   C3A12121   8.031   1.770   7.590  0.5447 -0.1794 -0.2652
  821loPI   C4A12122   8.003   1.870   8.088 -0.3179 -0.2239  0.0301
  821loPI   C5A12123   7.926   1.740   8.611 -0.1480 -0.0238 -0.3107
  821loPI   C6A12124   7.978   1.669   8.997  0.3084 -0.1469  0.0245
  821loPI   C1B12125   8.170   2.380   6.623  0.1192 -0.4011 -0.1196
  821loPI   C2B12126   8.186   2.314   7.080  0.2144 -0.1167 -0.1551
  821loPI   C3B12127   8.180   2.264   7.479  0.0503  0.1494 -0.0815
  821loPI   C4B12128   8.103   2.369   7.859  0.0882 -0.2821  0.3437
  822loPI    C112129   9.071  14.079   5.543  0.2248  0.0222 -0.0097
  822loPI    C212130   9.103  14.477   5.515 -0.0284  0.0370 -0.1196
  822loPI    C312131   9.257  14.243   5.229  0.0518  0.0585 -0.0943
  822loPI   PO412132   9.189  13.990   5.743 -0.2987  0.0002 -0.1189
  822loPI   GL112133   9.210  14.134   6.249  0.1081 -0.0318  0.0085
  822loPI   GL212134   9.382  14.179   6.453 -0.1472  0.1369 -0.1643
  822loPI   C1A12135   8.853  14.200   6.552  0.0462  0.3123  0.0778
  822loPI   C2A12136   8.786  14.106   7.040 -0.0642  0.3432  0.1025
  822loPI   C3A12137   8.665  14.170   7.455  0.1095  0.0441  0.0666
  822loPI   C4A12138   8.661  14.139   7.873  0.1004  0.0789  0.2202
  822loPI   C5A12139   8.628  14.210   8.348  0.1387 -0.4761  0.2888
  822loPI   C6A12140   8.498  14.258   8.685  0.1005 -0.0267 -0.0116
  822loPI   C1B12141   9.154  13.873   6.722  0.2210  0.0599  0.0305
  822loPI   C2B12142   9.118  13.847   7.257  0.0205 -0.1746 -0.0303
  822loPI   C3B12143   9.061  13.848   7.610 -0.1470  0.1481  0.0445
  822loPI   C4B12144   9.016  13.834   8.079  0.0029  0.2558 -0.1055
  823loPI    C112145  15.404   4.133   5.808 -0.0253 -0.1253 -0.0821
  823loPI    C212146  15.103   4.225   5.562 -0.0495  0.1042  0.0306
  823loPI    C312147  15.465   4.385   5.504 -0.0834  0.2486  0.2084
  823loPI   PO412148  15.310   4.013   6.059  0.0197  0.0307 -0.2488
  823loPI   GL112149  15.517   3.922   6.411 -0.0861 -0.0474 -0.0039
  823loPI   GL212150  15.403   4.184   6.574 -0.1571  0.3053 -0.0265
  823loPI   C1A12151  15.735   3.901   6.804  0.2328 -0.0598  0.1916
  823loPI   C2A12152  15.764   3.721   7.168  0.0707  0.0895 -0.1368
  823loPI   C3A12153  15.814   3.688   7.624 -0.2235  0.1865 -0.3152
  823loPI   C4A12154  15.837   3.731   8.030 -0.0421 -0.0170 -0.0332
  823loPI   C5A12155  15.828   3.789   8.488  0.1879 -0.2869 -0.1140
  823loPI   C6A12156  16.097   3.764   8.968  0.0469  0.1248  0.0001
  823loPI   C1B12157  15.459   4.191   7.059  0.1415  0.0827 -0.0349
  823loPI   C2B12158  15.406   4.012   7.466 -0.1797 -0.0380  0.1712
  823loPI   C3B12159  15.418   4.061   7.929 -0.3185 -0.1788  0.0384
  823loPI   C4B12160  15.369   4.141   8.386 -0.3402 -0.0459 -0.1160
  824loPI    C112161  11.081   7.859   5.710 -0.2012 -0.1633  0.0164
  824loPI    C212162  11.251   7.559   5.508 -0.2099 -0.0449 -0.1689
  824loPI    C312163  11.098   7.871   5.311 -0.2590  0.0514  0.0193
  824loPI   PO412164  10.821   7.682   5.904 -0.0673  0.0230  0.0939
  824loPI   GL112165  10.860   7.813   6.262  0.2376 -0.1825  0.0640
  824loPI   GL212166  10.589   7.595   6.378 -0.0907  0.0118 -0.2012
  824loPI   C1A12167  11.076   7.866   6.600 -0.0885 -0.2323 -0.0513
  824loPI   C2A12168  11.066   7.847   7.043  0.0016  0.1322 -0.4536
  824loPI   C3A12169  10.981   7.828   7.478 -0.2860  0.0128  0.1356
  824loPI   C4A12170  10.843   7.713   7.930 -0.0589 -0.3245 -0.0987
  824loPI   C5A12171  10.699   7.900   8.344 -0.1024 -0.0098  0.2327
  824loPI   C6A12172  10.500   7.969   8.725 -0.0431 -0.0540  0.2498
  824loPI   C1B12173  10.821   7.482   6.698 -0.1402 -0.0695  0.0218
  824loPI   C2B12174  10.871   7.382   7.096 -0.1941  0.2467  0.0100
  824loPI   C3B12175  10.762   7.169   7.569  0.1300 -0.0906  0.0193
  824loPI   C4B12176  10.843   7.229   7.953 -0.1709  0.1831 -0.2696
  825loPI    C112177   0.106   3.650   6.183  0.0650  0.0190 -0.1059
  825loPI    C212178   0.106   3.815   5.818 -0.0712 -0.0561 -0.1404
  825loPI    C312179   0.086   3.417   5.858  0.1366 -0.0592 -0.0544
  825loPI   PO412180  -0.100   3.731   6.325  0.0428  0.1735  0.0482
  825loPI   GL112181  -0.307   3.626   6.687 -0.3173  0.1568  0.0278
  825loPI   GL212182  -0.578   3.873   6.781 -0.0274  0.5077  0.2180
  825loPI   C1A12183  -0.045   3.511   7.115 -0.1627 -0.1877  0.1895
  825loPI   C2A12184   0.030   3.422   7.589  0.0560 -0.1766 -0.0712
  825loPI   C3A12185   0.052   3.473   7.966 -0.0590  0.1630  0.0580
  825loPI   C4A12186   0.158   3.355   8.309  0.0642 -0.0622  0.1991
  825loPI   C5A12187   0.421   3.521   8.574  0.2101 -0.3639 -0.1206
  825loPI   C6A12188   0.839   3.295   8.835 -0.2247 -0.1642  0.3082
  825loPI   C1B12189  -0.402   3.848   7.196  0.1555  0.0481  0.0689
  825loPI   C2B12190  -0.316   3.764   7.563 -0.3243 -0.0343  0.1322
  825loPI   C3B12191  -0.345   3.823   8.050 -0.1819  0.0552 -0.1855
  825loPI   C4B12192  -0.075   3.857   8.386  0.1558 -0.2218 -0.2000
  826loPI    C112193  11.318  11.810   6.101 -0.0591 -0.1581  0.0163
  826loPI    C212194  11.277  11.598   5.764  0.1510 -0.2525  0.0486
  826loPI    C312195  10.955  11.693   5.981  0.0335 -0.3507 -0.0813
  826loPI   PO412196  11.553  11.704   6.125  0.1458 -0.1365 -0.2045
  826loPI   GL112197  11.767  11.678   6.479  0.2495 -0.2379  0.2786
  826loPI   GL212198  11.481  11.485   6.637 -0.1223 -0.1553 -0.1930
  826loPI   C1A12199  11.926  11.508   6.830 -0.1057  0.1118  0.4331
  826loPI   C2A12200  11.967  11.606   7.320 -0.2686 -0.3576  0.2137
  826loPI   C3A12201  12.008  11.454   7.727 -0.1072  0.1757  0.0108
  826loPI   C4A12202  12.011  11.386   8.174 -0.0965 -0.2143 -0.3582
  826loPI   C5A12203  11.956  11.668   8.580 -0.3485 -0.2849  0.0071
  826loPI   C6A12204  11.813  12.039   8.755 -0.0107 -0.3330  0.2951
  826loPI   C1B12205  11.490  11.396   7.112 -0.0320  0.3060  0.0881
  826loPI   C2B12206  11.559  11.346   7.559 -0.0507 -0.0774 -0.1775
  826loPI   C3B12207  11.556  11.334   8.042 -0.1342 -0.4115 -0.0277
  826loPI   C4B12208  11.599  11.275   8.418  0.2585  0.2400 -0.0009
  827loPI    C112209   8.774   6.148   5.659  0.1358  0.1336 -0.1250
  827loPI    C212210   8.521   5.888   5.491 -0.0785  0.1841  0.1117
  827loPI    C312211   8.838   6.021   5.286 -0.0575 -0.1351 -0.0694
  827loPI   PO412212   8.773   6.030   5.914  0.0769  0.0095 -0.3334
  827loPI   GL112213   8.750   6.045   6.282  0.0288 -0.3458 -0.2288
  827loPI   GL212214   8.837   5.797   6.383  0.0977  0.2438 -0.1753
  827loPI   C1A12215   8.578   6.262   6.682 -0.0566  0.3732  0.0364
  827loPI   C2A12216   8.593   6.263   7.051  0.1197 -0.2149 -0.0036
  827loPI   C3A12217   8.434   6.190   7.396  0.0295  0.1883 -0.0125
  827loPI   C4A12218   8.258   6.214   7.789 -0.0486  0.0526  0.1395
  827loPI   C5A12219   8.293   6.229   8.293  0.2349 -0.4444 -0.1461
  827loPI   C6A12220   8.100   6.430   8.665  0.1612  0.0833 -0.2206
  827loPI   C1B12221   8.812   5.825   6.843 -0.1477 -0.2620 -0.1430
  827loPI   C2B12222   8.865   5.896   7.281  0.0579 -0.1591  0.1640
  827loPI   C3B12223   8.728   5.872   7.712 -0.0700 -0.1790 -0.2480
  827loPI   C4B12224   8.643   5.868   8.212  0.0287 -0.1601  0.3305
  828loPI    C112225   3.021   3.688   5.774  0.0735 -0.0496  0.1130
  828loPI    C212226   3.307   3.485   5.581 -0.0468  0.1073 -0.2388
  828loPI    C312227   2.943   3.324   5.627 -0.0065  0.0534 -0.1047
  828loPI   PO412228   3.117   3.686   6.062  0.1264 -0.0810  0.0442
  828loPI   GL112229   3.040   3.999   6.493 -0.1873  0.0593  0.0465
  828loPI   GL212230   2.814   4.178   6.673  0.1941 -0.1816  0.3208
  828loPI   C1A12231   3.283   3.916   6.885 -0.1238  0.1988 -0.1011
  828loPI   C2A12232   3.362   3.695   7.238 -0.2451  0.0755  0.1814
  828loPI   C3A12233   3.390   3.770   7.629  0.1137  0.0719  0.1725
  828loPI   C4A12234   3.355   3.734   8.008 -0.0674  0.0822 -0.0196
  828loPI   C5A12235   3.462   3.731   8.308  0.2114  0.0881 -0.1677
  828loPI   C6A12236   3.715   3.545   8.606 -0.2436 -0.2150 -0.0471
  828loPI   C1B12237   2.920   4.132   7.043 -0.1009  0.3416 -0.0001
  828loPI   C2B12238   3.021   4.107   7.472 -0.2017  0.0284  0.2045
  828loPI   C3B12239   2.860   4.204   7.844 -0.1277 -0.0223 -0.0291
  828loPI   C4B12240   2.962   3.969   8.201 -0.0013 -0.1245  0.1419
  829loPI    C112241  16.843  15.032   5.972 -0.0373 -0.2138 -0.0131
  829loPI    C212242  17.237  14.966   5.966  0.0415  0.2260 -0.0217
  829loPI    C312243  16.989  14.712   5.781  0.3278  0.0073 -0.1136
  829loPI   PO412244  16.829  15.150   6.250 -0.0101 -0.2115 -0.1158
  829loPI   GL112245  16.515  15.310   6.691  0.0932 -0.0712  0.0495
  829loPI   GL212246  16.828  15.404   6.662  0.0163 -0.2291  0.0182
  829loPI   C1A12247  16.261  15.179   6.963 -0.2800  0.0722 -0.0934
  829loPI   C2A12248  16.207  15.285   7.430 -0.3279  0.1467  0.1256
  829loPI   C3A12249  15.993  15.594   7.666 -0.1650  0.1181  0.0140
  829loPI   C4A12250  16.006  15.721   8.100 -0.3335 -0.0042 -0.0661
  829loPI   C5A12251  16.192  15.692   8.485  0.0679  0.2532  0.0941
  829loPI   C6A12252  16.186  15.778   8.914 -0.3177  0.1103 -0.1591
  829loPI   C1B12253  17.108  15.273   6.901  0.1464 -0.0653 -0.3314
  829loPI   C2B12254  17.233  15.279   7.323  0.0744 -0.1473 -0.2032
  829loPI   C3B12255  17.274  15.082   7.735 -0.1469  0.0493 -0.0085
  829loPI   C4B12256  17.598  15.031   8.013  0.0176 -0.1025  0.1216
  830loPI    C112257  12.542   4.048   6.016  0.1144  0.0659 -0.0419
  830loPI    C212258  12.616   3.655   6.030  0.1699  0.0777  0.0016
  830loPI    C312259  12.365   3.802   5.756  0.2586  0.0289 -0.1064
  830loPI   PO412260  12.638   4.244   5.998 -0.3884  0.0776  0.2392
  830loPI   GL112261  12.729   4.444   6.284 -0.1191 -0.1129  0.0736
  830loPI   GL212262  12.588   4.733   6.386 -0.0352 -0.0241 -0.1441
  830loPI   C1A12263  12.681   4.325   6.681 -0.1984 -0.6584 -0.0693
  830loPI   C2A12264  12.651   4.486   7.045 -0.0932 -0.1954  0.3606
  830loPI   C3A12265  12.636   4.492   7.470 -0.1592 -0.1110 -0.0646
  830loPI   C4A12266  12.718   4.550   7.896  0.1965 -0.0107 -0.2557
  830loPI   C5A12267  12.567   4.670   8.359 -0.0138 -0.2165 -0.0619
  830loPI   C6A12268  12.644   4.668   8.739 -0.0300  0.2524  0.2211
  830loPI   C1B12269  12.275   4.696   6.784  0.3122  0.1780  0.0730
  830loPI   C2B12270  12.264   4.724   7.264 -0.3121 -0.3176 -0.0986
  830loPI   C3B12271  12.282   4.760   7.806  0.2277 -0.1504 -0.1090
  830loPI   C4B12272  12.099   4.804   8.229 -0.0474  0.0698 -0.0161
  831loPI    C112273   9.603   4.011   5.990  0.3781  0.1605 -0.1123
  831loPI    C212274   9.608   3.793   5.654  0.1091 -0.1359  0.0706
  831loPI    C312275   9.279   3.997   5.756  0.2550  0.1088  0.0596
  831loPI   PO412276   9.668   3.828   6.202 -0.3747 -0.0475  0.0358
  831loPI   GL112277   9.854   3.923   6.663 -0.0762  0.2509  0.0280
  831loPI   GL212278  10.100   4.159   6.764 -0.2022 -0.1184 -0.1835
  831loPI   C1A12279   9.810   3.848   7.149 -0.1638  0.0118 -0.0798
  831loPI   C2A12280   9.844   3.812   7.561 -0.0176  0.1899 -0.3086
  831loPI   C3A12281   9.885   3.935   7.937  0.0868 -0.0371  0.0432
  831loPI   C4A12282   9.859   3.848   8.259 -0.1378 -0.0461 -0.2497
  831loPI   C5A12283   9.882   4.143   8.651 -0.0377 -0.3246 -0.0202
  831loPI   C6A12284  10.252   4.271   8.845  0.1331 -0.0606 -0.0353
  831loPI   C1B12285   9.962   4.331   7.184  0.2318  0.1663  0.1810
  831loPI   C2B12286   9.914   4.330   7.616  0.2500  0.2930  0.3762
  831loPI   C3B12287   9.993   4.416   7.956  0.1060 -0.0481  0.2341
  831loPI   C4B12288  10.097   4.475   8.350  0.1058  0.1358 -0.1586
  832loPI    C112289   6.791   8.350   5.563 -0.0933  0.1883 -0.0941
  832loPI    C212290   6.756   8.564   5.227 -0.0600  0.2916 -0.0322
  832loPI    C312291   6.712   8.167   5.216 -0.2835  0.3173 -0.1207
  832loPI   PO412292   6.673   8.418   5.703  0.1589  0.1448  0.2564
  832loPI   GL112293   6.562   8.412   6.139 -0.2133 -0.2223  0.2485
  832loPI   GL212294   6.911   8.588   6.153  0.3644  0.0382  0.1045
  832loPI   C1A12295   6.431   8.535   6.545  0.1907  0.1079  0.2019
  832loPI   C2A12296   6.452   8.447   7.043  0.0113 -0.2572  0.0921
  832loPI   C3A12297   6.427   8.354   7.485 -0.2034 -0.2192  0.1679
  832loPI   C4A12298   6.360   8.297   7.908 -0.0620 -0.2025  0.0190
  832loPI   C5A12299   6.254   8.187   8.304 -0.0950 -0.1637 -0.0144
  832loPI   C6A12300   6.179   8.210   8.769 -0.1507 -0.3633  0.0295
  832loPI   C1B12301   6.957   8.659   6.514  0.2545  0.3169  0.0797
  832loPI   C2B12302   6.954   8.591   6.925  0.1367 -0.0879  0.1242
  832loPI   C3B12303   6.932   8.579   7.389 -0.0212 -0.0186 -0.1431
  832loPI   C4B12304   6.851   8.408   7.728  0.0525  0.0765  0.0238
  833loPI    C112305   2.583   9.861   5.201  0.1881 -0.0654 -0.0651
  833loPI    C212306   2.484   9.476   5.156  0.0862 -0.0361 -0.0930
  833loPI    C312307   2.786   9.631   4.944  0.0630 -0.0757 -0.1553
  833loPI   PO412308   2.611   9.809   5.560 -0.4525 -0.0587  0.3896
  833loPI   GL112309   2.477   9.890   5.967 -0.0067 -0.0292 -0.0243
  833loPI   GL212310   2.705   9.754   6.071  0.0878 -0.0832 -0.1181
  833loPI   C1A12311   2.338   9.997   6.356 -0.1707  0.3046 -0.2301
  833loPI   C2A12312   2.251   9.972   6.791  0.0717  0.0099  0.1322
  833loPI   C3A12313   2.177  10.129   7.256 -0.1136  0.2405 -0.0778
  833loPI   C4A12314   2.099  10.157   7.693  0.0796  0.0344  0.2272
  833loPI   C5A12315   2.009  10.221   8.211  0.1028 -0.1600  0.0625
  833loPI   C6A12316   1.691  10.214   8.446  0.0984 -0.1242  0.0155
  833loPI   C1B12317   2.768   9.799   6.489  0.0859 -0.1536 -0.1751
  833loPI   C2B12318   2.702   9.806   6.928 -0.1741  0.0836 -0.3005
  833loPI   C3B12319   2.527   9.765   7.423 -0.1101  0.1588  0.0490
  833loPI   C4B12320   2.489   9.838   7.850  0.0844 -0.2650  0.2190
  834loPI    C112321  12.796  15.025   6.392  0.1515  0.1288  0.2656
  834loPI    C212322  13.178  15.019   6.273  0.0829 -0.0239  0.0465
  834loPI    C312323  12.886  15.071   6.005 -0.0934 -0.6908  0.0912
  834loPI   PO412324  12.757  14.895   6.588  0.1841 -0.0145 -0.0012
  834loPI   GL112325  12.721  14.875   7.053  0.0330 -0.3555 -0.2240
  834loPI   GL212326  12.978  15.038   7.124  0.2295 -0.2730 -0.5199
  834loPI   C1A12327  12.601  14.777   7.473 -0.3534 -0.2010  0.1671
  834loPI   C2A12328  12.383  14.621   7.755  0.4537 -0.1157  0.2667
  834loPI   C3A12329  12.492  14.332   8.050  0.0759  0.1597 -0.2317
  834loPI   C4A12330  12.643  14.167   8.452 -0.2945 -0.1000 -0.0505
  834loPI   C5A12331  12.802  14.044   8.882  0.0547 -0.2496  0.2089
  834loPI   C6A12332  12.873  13.994   9.286  0.0046 -0.0176 -0.1413
  834loPI   C1B12333  12.919  15.232   7.496  0.1155 -0.1913  0.0392
  834loPI   C2B12334  12.537  15.085   7.817  0.1672 -0.1661  0.0940
  834loPI   C3B12335  12.639  14.888   8.216 -0.1024  0.0268  0.1696
  834loPI   C4B12336  12.825  14.713   8.505  0.1463 -0.0938  0.0788
  835loPI    C112337   9.036  16.338   5.921  0.0501  0.0752  0.0217
  835loPI    C212338   9.022  16.450   5.537 -0.0420  0.0278  0.0112
  835loPI    C312339   9.363  16.311   5.693 -0.0276 -0.0371 -0.0777
  835loPI   PO412340   8.986  16.445   6.062  0.0056  0.1342  0.1381
  835loPI   GL112341   9.085  16.381   6.435  0.0423 -0.0682  0.0344
  835loPI   GL212342   8.784  16.289   6.538 -0.0955 -0.0378  0.1419
  835loPI   C1A12343   9.150  16.317   6.858 -0.1512  0.1952  0.0769
  835loPI   C2A12344   9.042  16.327   7.269 -0.0688  0.3260  0.1576
  835loPI   C3A12345   8.978  16.258   7.700  0.0823 -0.1248 -0.2210
  835loPI   C4A12346   8.894  16.245   8.169 -0.2493  0.1230 -0.0238
  835loPI   C5A12347   8.728  16.142   8.522 -0.0760  0.0012  0.0888
  835loPI   C6A12348   8.484  16.177   8.761  0.2108  0.1772  0.1877
  835loPI   C1B12349   8.462  16.154   6.902 -0.0249  0.1969  0.0117
  835loPI   C2B12350   8.505  16.023   7.284 -0.2645  0.4455  0.0503
  835loPI   C3B12351   8.485  16.005   7.724 -0.1704 -0.0002 -0.2047
  835loPI   C4B12352   8.338  16.137   8.178  0.2864  0.1988 -0.0703
  836loPI    C112353  14.564  10.992   6.093 -0.0041 -0.0135 -0.0553
  836loPI    C212354  14.640  10.910   5.709  0.2891 -0.2673  0.0521
  836loPI    C312355  14.904  11.118   5.925 -0.0964  0.3084 -0.0072
  836loPI   PO412356  14.354  10.820   6.306 -0.1200  0.1506 -0.1674
  836loPI   GL112357  14.326  10.490   6.631 -0.2047  0.1012  0.1132
  836loPI   GL212358  14.281  10.756   6.786 -0.1206  0.3548 -0.1965
  836loPI   C1A12359  14.214  10.297   7.032  0.1191 -0.1873  0.1514
  836loPI   C2A12360  14.175  10.368   7.469  0.2052 -0.1634  0.1839
  836loPI   C3A12361  14.140  10.329   7.894 -0.2718  0.0381 -0.0014
  836loPI   C4A12362  14.136  10.379   8.353 -0.0167  0.1500  0.3115
  836loPI   C5A12363  13.890  10.130   8.641 -0.1125 -0.2621  0.0185
  836loPI   C6A12364  13.592   9.859   8.669  0.0994  0.0358  0.1999
  836loPI   C1B12365  14.288  10.919   7.253  0.0487  0.0662 -0.2181
  836loPI   C2B12366  14.307  10.835   7.636  0.4088  0.0974  0.1864
  836loPI   C3B12367  14.271  10.851   7.981  0.0092  0.0493 -0.2274
  836loPI   C4B12368  14.248  10.873   8.457  0.2750  0.0472 -0.2666
  837loPI    C112369  11.525  11.165   5.738 -0.0060  0.0856 -0.1162
  837loPI    C212370  11.833  10.980   5.563 -0.0368 -0.0261 -0.0535
  837loPI    C312371  11.459  10.867   5.479 -0.0577  0.0451 -0.0568
  837loPI   PO412372  11.497  11.194   6.018  0.0166 -0.2521 -0.2614
  837loPI   GL112373  11.612  11.021   6.435 -0.2858 -0.2613  0.1580
  837loPI   GL212374  11.880  11.127   6.405 -0.0021  0.1255  0.0047
  837loPI   C1A12375  11.428  10.868   6.713 -0.2444 -0.0871  0.1748
  837loPI   C2A12376  11.392  10.900   7.124 -0.0226 -0.5866 -0.0820
  837loPI   C3A12377  11.505  10.861   7.555 -0.0563  0.0026  0.5440
  837loPI   C4A12378  11.477  10.854   8.073  0.1125 -0.2118 -0.1971
  837loPI   C5A12379  11.338  10.711   8.507 -0.4684  0.0580  0.0779
  837loPI   C6A12380  11.253  10.379   8.830  0.0874  0.1014  0.2424
  837loPI   C1B12381  11.926  10.951   6.850  0.0337 -0.3374  0.0993
  837loPI   C2B12382  11.847  11.098   7.129 -0.1449 -0.1827 -0.1465
  837loPI   C3B12383  12.027  11.005   7.461 -0.0062 -0.0020 -0.1846
  837loPI   C4B12384  11.930  10.954   7.867  0.1578  0.4049  0.1456
  838loPI    C112385   0.829  15.804   6.055  0.0792  0.1099 -0.1817
  838loPI    C212386   0.588  16.082   5.897 -0.0181  0.0808 -0.0859
  838loPI    C312387   0.483  15.696   5.886 -0.0315  0.0797  0.0589
  838loPI   PO412388   0.896  15.887   6.265 -0.0771 -0.3513  0.0682
  838loPI   GL112389   0.955  16.052   6.625  0.2065 -0.0375  0.1655
  838loPI   GL212390   1.125  16.006   6.818 -0.3005  0.1322 -0.1102
  838loPI   C1A12391   0.724  16.135   6.951 -0.1110  0.0371  0.3515
  838loPI   C2A12392   0.726  16.191   7.465  0.0818 -0.0104 -0.2362
  838loPI   C3A12393   0.722  16.435   7.848 -0.2409 -0.0311 -0.1260
  838loPI   C4A12394   0.553  16.817   8.063  0.0065  0.2474  0.0603
  838loPI   C5A12395   0.536  17.090   8.494  0.1189  0.0578  0.1796
  838loPI   C6A12396   0.493  17.242   8.966 -0.1919 -0.1651  0.0799
  838loPI   C1B12397   1.204  15.961   7.321 -0.0046 -0.1154 -0.0106
  838loPI   C2B12398   1.186  15.937   7.697  0.2233  0.0098  0.0619
  838loPI   C3B12399   0.814  15.916   7.880  0.1266  0.0886 -0.0003
  838loPI   C4B12400   0.739  16.065   8.257  0.2275  0.1554 -0.2633
  839loPI    C112401   6.932  11.862   5.616  0.0391 -0.1889  0.0016
  839loPI    C212402   6.899  12.223   5.446  0.1581 -0.1891 -0.0234
  839loPI    C312403   6.605  11.954   5.405  0.0664 -0.0933  0.0007
  839loPI   PO412404   6.987  11.912   5.870 -0.4302  0.4491  0.2347
  839loPI   GL112405   6.743  12.073   6.232 -0.0649 -0.0919 -0.3792
  839loPI   GL212406   6.567  12.395   6.355  0.0345  0.2962  0.0322
  839loPI   C1A12407   6.645  11.908   6.640  0.0311 -0.0573 -0.0652
  839loPI   C2A12408   6.711  11.913   6.985 -0.2108  0.0952  0.2262
  839loPI   C3A12409   6.605  11.822   7.394 -0.0535  0.2794 -0.1343
  839loPI   C4A12410   6.542  11.797   7.817 -0.0697 -0.1189  0.2401
  839loPI   C5A12411   6.549  11.941   8.236  0.1173  0.4754 -0.1542
  839loPI   C6A12412   6.700  12.074   8.638  0.0385 -0.2129 -0.0595
  839loPI   C1B12413   6.663  12.458   6.710 -0.1611 -0.1939  0.4004
  839loPI   C2B12414   6.676  12.482   7.096 -0.0455 -0.2564  0.2191
  839loPI   C3B12415   6.625  12.301   7.452 -0.0480  0.1760 -0.2062
  839loPI   C4B12416   6.568  12.345   7.915 -0.5115  0.1955  0.3713
  840loPI    C112417   6.335  13.309   5.531 -0.0620 -0.0359 -0.0164
  840loPI    C212418   6.614  13.198   5.266 -0.0236 -0.0718  0.0390
  840loPI    C312419   6.308  13.427   5.149  0.1090  0.0930  0.0098
  840loPI   PO412420   6.466  13.429   5.694 -0.0542  0.1537 -0.0085
  840loPI   GL112421   6.625  13.277   6.063  0.0955 -0.1028 -0.0083
  840loPI   GL212422   6.524  13.473   6.244 -0.0815 -0.1249  0.0585
  840loPI   C1A12423   6.935  13.438   6.468  0.0378 -0.1833  0.3679
  840loPI   C2A12424   6.817  13.471   6.918 -0.0843 -0.0820  0.0792
  840loPI   C3A12425   6.873  13.462   7.261 -0.0034  0.1011  0.0334
  840loPI   C4A12426   6.802  13.445   7.690  0.0335  0.0124  0.0197
  840loPI   C5A12427   6.867  13.371   8.163  0.1440 -0.1498  0.1560
  840loPI   C6A12428   6.810  13.003   8.403  0.1541  0.1690  0.0395
  840loPI   C1B12429   6.378  13.343   6.678  0.0053  0.2066  0.1459
  840loPI   C2B12430   6.293  13.248   7.053  0.3364  0.1032  0.0512
  840loPI   C3B12431   6.433  13.192   7.529 -0.0385 -0.0213  0.0716
  840loPI   C4B12432   6.418  13.153   8.015 -0.0834  0.0651 -0.0605
  841loPI    C112433  14.958   2.815   5.803 -0.0227 -0.0752 -0.0923
  841loPI    C212434  14.670   3.012   5.606 -0.0472 -0.1364 -0.1179
  841loPI    C312435  14.651   2.614   5.643  0.0718 -0.1485 -0.1826
  841loPI   PO412436  15.016   3.030   6.027 -0.1252 -0.0186 -0.0159
  841loPI   GL112437  15.157   3.034   6.406  0.0088 -0.1174  0.1209
  841loPI   GL212438  14.890   2.906   6.482  0.3895 -0.0635 -0.0299
  841loPI   C1A12439  15.297   3.069   6.758  0.1512  0.2590  0.0218
  841loPI   C2A12440  15.204   2.963   7.181  0.0285  0.1968  0.0364
  841loPI   C3A12441  15.322   2.944   7.708 -0.0214 -0.1838  0.1697
  841loPI   C4A12442  15.313   3.044   8.127  0.0722  0.0020  0.0672
  841loPI   C5A12443  15.444   3.002   8.603  0.2418  0.2332 -0.0227
  841loPI   C6A12444  15.669   2.725   8.863 -0.0495  0.0418 -0.0915
  841loPI   C1B12445  14.814   2.737   6.879 -0.2202  0.1473 -0.2246
  841loPI   C2B12446  14.760   2.835   7.319 -0.0745 -0.1661  0.0893
  841loPI   C3B12447  14.620   2.786   7.637  0.0068  0.2227  0.3301
  841loPI   C4B12448  14.863   2.713   7.986  0.1996  0.1278 -0.1445
  842loPI    C112449  11.985   5.124   5.647  0.0994  0.0923  0.0000
  842loPI    C212450  12.212   5.177   5.322  0.2270 -0.2765  0.0250
  842loPI    C312451  11.889   4.942   5.305  0.0660 -0.0636  0.0916
  842loPI   PO412452  12.279   5.171   5.810  0.0469  0.0134  0.1124
  842loPI   GL112453  12.233   5.002   6.177  0.0176 -0.0644  0.3323
  842loPI   GL212454  12.068   4.786   6.168  0.2126 -0.1454  0.3565
  842loPI   C1A12455  12.438   5.190   6.478  0.0761 -0.2619 -0.4096
  842loPI   C2A12456  12.342   5.245   6.900 -0.1340 -0.1957  0.0536
  842loPI   C3A12457  12.339   5.232   7.419 -0.2304 -0.0204 -0.1397
  842loPI   C4A12458  12.390   5.395   7.803 -0.2343 -0.2237  0.2622
  842loPI   C5A12459  12.355   5.395   8.232 -0.0723 -0.1547 -0.1105
  842loPI   C6A12460  12.396   5.130   8.594 -0.2963  0.4660 -0.1098
  842loPI   C1B12461  11.891   4.930   6.579 -0.3838  0.2908  0.2860
  842loPI   C2B12462  11.892   5.074   6.995  0.4449 -0.1488 -0.1065
  842loPI   C3B12463  11.849   5.086   7.479  0.0602  0.0056 -0.0395
  842loPI   C4B12464  11.907   5.140   7.905 -0.2957  0.2046 -0.0679
  843loPI    C112465   5.031  10.335   5.651  0.1437  0.0525 -0.1752
  843loPI    C212466   5.090  10.027   5.402 -0.0327 -0.0366 -0.1091
  843loPI    C312467   4.967  10.380   5.259 -0.0176 -0.0526 -0.1620
  843loPI   PO412468   4.924  10.259   5.862  0.0075  0.2522  0.0987
  843loPI   GL112469   4.737  10.055   6.167 -0.0443 -0.2343  0.0577
  843loPI   GL212470   4.934   9.845   6.232  0.0640 -0.1943  0.0674
  843loPI   C1A12471   4.535  10.041   6.503  0.0509 -0.0281  0.0039
  843loPI   C2A12472   4.423   9.871   6.883 -0.0111 -0.1966  0.0999
  843loPI   C3A12473   4.478   9.927   7.366  0.1035  0.3667  0.0335
  843loPI   C4A12474   4.486   9.916   7.853 -0.0916  0.0328 -0.1524
  843loPI   C5A12475   4.264  10.022   8.235 -0.1268  0.1357 -0.0970
  843loPI   C6A12476   3.881   9.849   8.376  0.1894  0.0233  0.2867
  843loPI   C1B12477   4.866   9.701   6.674 -0.0300 -0.1443 -0.0444
  843loPI   C2B12478   4.914   9.717   7.168 -0.0943  0.1208  0.2156
  843loPI   C3B12479   4.927   9.681   7.619  0.1624  0.2794  0.0042
  843loPI   C4B12480   4.899   9.635   8.095  0.1997  0.1952 -0.1752
  844loPI    C112481   3.801   2.614   5.613  0.0401  0.1147  0.0073
  844loPI    C212482   4.107   2.388   5.737  0.0576  0.0840 -0.0902
  844loPI    C312483   3.848   2.244   5.468  0.0034  0.1392 -0.0680
  844loPI   PO412484   3.653   2.763   5.870 -0.0338  0.0644  0.3096
  844loPI   GL112485   3.332   2.690   6.209 -0.4487  0.1062  0.0886
  844loPI   GL212486   3.524   2.470   6.261  0.0749  0.0740  0.0751
  844loPI   C1A12487   3.431   2.951   6.564 -0.0766  0.0473  0.1598
  844loPI   C2A12488   3.521   2.871   7.021  0.4339  0.3046  0.7401
  844loPI   C3A12489   3.689   2.903   7.419  0.1088  0.1452 -0.1892
  844loPI   C4A12490   3.683   2.903   7.862 -0.0119  0.0181 -0.0041
  844loPI   C5A12491   3.693   2.924   8.285 -0.0087  0.0577  0.0040
  844loPI   C6A12492   3.551   3.002   8.699  0.1259  0.2568 -0.1779
  844loPI   C1B12493   3.544   2.442   6.716  0.2737 -0.3205  0.1274
  844loPI   C2B12494   3.564   2.442   7.276  0.1701  0.1090 -0.0571
  844loPI   C3B12495   3.646   2.350   7.733  0.4797 -0.3150  0.1263
  844loPI   C4B12496   3.827   2.484   8.098 -0.0705  0.0532 -0.1402
  845loPI    C112497  10.543   3.444   6.263 -0.2648  0.2574 -0.0443
  845loPI    C212498  10.803   3.683   6.451 -0.1161  0.0488  0.0196
  845loPI    C312499  10.773   3.694   6.052 -0.0493  0.1126  0.0160
  845loPI   PO412500  10.545   3.288   6.413  0.1368  0.1069  0.1231
  845loPI   GL112501  10.665   3.055   6.755  0.0791 -0.2033  0.1500
  845loPI   GL212502  10.888   3.311   6.788 -0.1326 -0.0586 -0.1217
  845loPI   C1A12503  10.675   3.073   7.166  0.1214  0.2482 -0.1496
  845loPI   C2A12504  10.782   3.140   7.602 -0.5100 -0.1380  0.2357
  845loPI   C3A12505  10.655   3.193   7.941  0.1453  0.1321  0.0824
  845loPI   C4A12506  10.675   3.273   8.349 -0.0934  0.0254  0.0812
  845loPI   C5A12507  11.118   3.316   8.553  0.3757  0.0386  0.1060
  845loPI   C6A12508  11.561   3.293   8.790 -0.2866  0.1962  0.0825
  845loPI   C1B12509  10.726   3.547   7.042 -0.1969  0.0510  0.1223
  845loPI   C2B12510  10.618   3.611   7.480 -0.1604 -0.1630 -0.0069
  845loPI   C3B12511  10.747   3.705   7.954  0.0346 -0.0966 -0.0051
  845loPI   C4B12512  10.773   3.771   8.366 -0.2590  0.3204  0.0551
  846loPI    C112513   7.869   0.165   5.783 -0.0682 -0.0057 -0.1324
  846loPI    C212514   7.983  -0.189   5.635  0.1262  0.1040 -0.2491
  846loPI    C312515   8.112   0.150   5.466  0.0257  0.2314 -0.0736
  846loPI   PO412516   7.909   0.188   6.096  0.1119  0.1023 -0.0825
  846loPI   GL112517   7.753   0.202   6.496  0.2499  0.0744 -0.0469
  846loPI   GL212518   7.837  -0.165   6.470 -0.4070 -0.3315  0.2084
  846loPI   C1A12519   7.806   0.275   6.885 -0.1765 -0.1254 -0.2715
  846loPI   C2A12520   7.848   0.270   7.361 -0.0416  0.0279 -0.0845
  846loPI   C3A12521   7.733   0.349   7.803  0.1021  0.0747 -0.4829
  846loPI   C4A12522   7.818   0.282   8.146 -0.0499 -0.0036 -0.0936
  846loPI   C5A12523   8.066   0.338   8.556  0.0989  0.3479  0.1880
  846loPI   C6A12524   8.493   0.356   8.797 -0.1326  0.0200 -0.1720
  846loPI   C1B12525   7.843  -0.232   6.894 -0.2585 -0.1842  0.0076
  846loPI   C2B12526   7.776  -0.271   7.388  0.1072  0.2975  0.1361
  846loPI   C3B12527   7.772  -0.179   7.849  0.5371  0.2799  0.0560
  846loPI   C4B12528   7.743  -0.174   8.274  0.2166 -0.2058  0.1680
  847loPI    C112529  16.904   3.734   6.319  0.1885  0.1115  0.2149
  847loPI    C212530  16.718   3.961   6.047 -0.0372 -0.2843  0.0318
  847loPI    C312531  16.653   4.022   6.437 -0.0629 -0.0101 -0.0139
  847loPI   PO412532  16.912   3.528   6.303 -0.2847  0.3851  0.0631
  847loPI   GL112533  16.905   3.111   6.535  0.0761 -0.1250  0.0849
  847loPI   GL212534  17.170   2.917   6.536 -0.1728 -0.0411  0.1980
  847loPI   C1A12535  17.067   3.176   7.001 -0.0348 -0.0189 -0.0542
  847loPI   C2A12536  17.058   3.307   7.379 -0.1563  0.0786 -0.0632
  847loPI   C3A12537  17.166   3.280   7.800  0.2445  0.1367  0.0734
  847loPI   C4A12538  17.229   3.280   8.193  0.2653  0.0668 -0.1089
  847loPI   C5A12539  17.254   3.455   8.606 -0.0566  0.0370  0.1702
  847loPI   C6A12540  17.582   3.678   8.841 -0.1414 -0.0892  0.2607
  847loPI   C1B12541  17.394   2.849   6.867 -0.2075  0.1353 -0.1249
  847loPI   C2B12542  17.595   2.895   7.292 -0.3340  0.2496 -0.2426
  847loPI   C3B12543  17.532   2.972   7.787  0.1214 -0.0401 -0.1637
  847loPI   C4B12544  17.611   2.931   8.161  0.0422  0.3779 -0.0787
  848loPI    C112545  17.125   4.189   6.231 -0.3341  0.0553 -0.1969
  848loPI    C212546  17.308   4.462   6.004  0.1432 -0.1020 -0.0154
  848loPI    C312547  17.232   4.098   5.856 -0.1518  0.0046 -0.1339
  848loPI   PO412548  17.207   4.247   6.452 -0.0810  0.0689 -0.2309
  848loPI   GL112549  17.083   4.545   6.719 -0.0212 -0.1633 -0.3179
  848loPI   GL212550  16.849   4.360   6.747 -0.0889 -0.0028 -0.1393
  848loPI   C1A12551  16.882   4.630   7.147  0.0515 -0.3535 -0.1543
  848loPI   C2A12552  16.839   4.666   7.555  0.0897 -0.0392  0.1492
  848loPI   C3A12553  16.854   4.649   7.938 -0.0661  0.0999  0.0378
  848loPI   C4A12554  16.864   4.814   8.417 -0.0239 -0.1117  0.2088
  848loPI   C5A12555  16.791   5.130   8.736  0.0736 -0.1790  0.2632
  848loPI   C6A12556  17.016   5.477   8.820 -0.1012 -0.3394 -0.4948
  848loPI   C1B12557  16.700   4.014   7.232  0.1282 -0.1870 -0.4094
  848loPI   C2B12558  16.797   4.052   7.645  0.0556 -0.1990 -0.2438
  848loPI   C3B12559  16.789   4.136   8.142  0.0810 -0.2669  0.1674
  848loPI   C4B12560  16.492   3.996   8.432 -0.0509  0.0656 -0.1378
  849loPI    C112561  11.175   6.832   6.124 -0.1895  0.0544 -0.0979
  849loPI    C212562  11.058   6.617   5.807 -0.3001  0.1268 -0.1071
  849loPI    C312563  11.130   7.009   5.768  0.1366  0.0482 -0.1448
  849loPI   PO412564  11.234   6.558   6.290 -0.1577  0.0542 -0.3588
  849loPI   GL112565  11.084   6.465   6.628  0.0780  0.3349 -0.1438
  849loPI   GL212566  10.871   6.542   6.740  0.0643 -0.1329 -0.2319
  849loPI   C1A12567  11.232   6.469   7.064  0.1334  0.0307  0.0647
  849loPI   C2A12568  11.107   6.293   7.464  0.2072  0.1685  0.1719
  849loPI   C3A12569  11.119   6.313   7.888 -0.1016 -0.0289  0.1190
  849loPI   C4A12570  11.000   6.417   8.320 -0.3959 -0.3511 -0.0075
  849loPI   C5A12571  10.633   6.459   8.540 -0.0003 -0.6319  0.1021
  849loPI   C6A12572  10.468   6.202   8.916  0.1577  0.2357 -0.2129
  849loPI   C1B12573  10.766   6.569   7.161  0.1695 -0.0055  0.0200
  849loPI   C2B12574  10.743   6.642   7.597 -0.0740  0.1239 -0.0301
  849loPI   C3B12575  10.681   6.751   8.047 -0.1717  0.0054 -0.0411
  849loPI   C4B12576  10.988   6.905   8.424  0.0274 -0.3215  0.1645
  850loPI    C112577   6.116   5.911   5.921  0.2100  0.0772  0.0291
  850loPI    C212578   5.914   6.024   5.595 -0.0446  0.0910  0.1885
  850loPI    C312579   6.302   5.929   5.567 -0.1239 -0.1527 -0.1638
  850loPI   PO412580   6.093   6.067   6.092  0.1693 -0.2057 -0.0038
  850loPI   GL112581   6.312   6.267   6.262 -0.0713  0.0681  0.2182
  850loPI   GL212582   6.237   6.585   6.228 -0.1070  0.0205  0.2613
  850loPI   C1A12583   6.146   6.290   6.672  0.1093  0.1962  0.0733
  850loPI   C2A12584   6.144   6.297   7.090 -0.0280 -0.2080  0.2361
  850loPI   C3A12585   6.111   6.312   7.522  0.0380  0.1961  0.2263
  850loPI   C4A12586   6.019   6.288   8.016 -0.1158 -0.2426 -0.0601
  850loPI   C5A12587   6.029   6.215   8.528 -0.1122 -0.0232  0.0597
  850loPI   C6A12588   6.223   6.370   8.931 -0.1666 -0.2388 -0.1808
  850loPI   C1B12589   6.311   6.769   6.617  0.0530 -0.2780 -0.0862
  850loPI   C2B12590   6.246   6.786   7.130 -0.2610 -0.4243 -0.2257
  850loPI   C3B12591   6.168   6.812   7.552  0.2436  0.4424  0.0343
  850loPI   C4B12592   6.127   6.770   7.936  0.0063  0.0906  0.0866
  851loPI    C112593   8.510   9.262   5.907  0.1281 -0.0379 -0.2169
  851loPI    C212594   8.154   9.137   6.042  0.1883  0.0295  0.0091
  851loPI    C312595   8.289   9.012   5.687 -0.0605  0.0040 -0.0786
  851loPI   PO412596   8.675   9.303   6.073 -0.1629 -0.1934  0.0493
  851loPI   GL112597   8.886   9.317   6.309  0.3022 -0.0045  0.1887
  851loPI   GL212598   8.889   8.970   6.395  0.0965 -0.1200 -0.1881
  851loPI   C1A12599   8.950   9.479   6.675 -0.1887  0.0540  0.0317
  851loPI   C2A12600   9.025   9.403   7.164  0.2507  0.1575 -0.0311
  851loPI   C3A12601   8.905   9.343   7.659  0.0846 -0.2270 -0.2042
  851loPI   C4A12602   8.944   9.306   8.112 -0.3076 -0.2003  0.1150
  851loPI   C5A12603   8.624   9.212   8.473  0.1261  0.2609 -0.0184
  851loPI   C6A12604   8.380   9.318   8.871 -0.0834  0.0101  0.1033
  851loPI   C1B12605   8.862   8.934   6.904  0.3934 -0.0564 -0.0176
  851loPI   C2B12606   8.854   8.897   7.423  0.1942  0.0771  0.1081
  851loPI   C3B12607   8.845   8.866   7.789 -0.3103  0.1745 -0.0667
  851loPI   C4B12608   8.659   8.705   8.169  0.1926  0.1503  0.0737
  852loPI    C112609   2.745  13.958   5.962 -0.1429 -0.4517 -0.3248
  852loPI    C212610   2.471  14.147   5.741 -0.1369  0.1542  0.1613
  852loPI    C312611   2.363  13.842   5.976 -0.2715 -0.0242 -0.1280
  852loPI   PO412612   2.841  14.076   6.129 -0.2397  0.1531 -0.1110
  852loPI   GL112613   2.671  13.895   6.492  0.0385 -0.2945  0.1375
  852loPI   GL212614   2.468  13.763   6.503 -0.2882  0.1149  0.2223
  852loPI   C1A12615   2.664  13.658   6.937 -0.0862  0.2604 -0.0536
  852loPI   C2A12616   2.798  13.748   7.492 -0.1041  0.3135 -0.1322
  852loPI   C3A12617   2.669  13.647   7.992  0.1451 -0.3379  0.2078
  852loPI   C4A12618   2.705  13.695   8.373 -0.0907  0.1056 -0.2609
  852loPI   C5A12619   3.053  13.559   8.656  0.0917 -0.0178  0.2578
  852loPI   C6A12620   3.304  13.541   8.975  0.2586 -0.0058  0.0359
  852loPI   C1B12621   2.300  14.043   6.809  0.2154 -0.1705  0.0471
  852loPI   C2B12622   2.313  13.948   7.228  0.1281 -0.0860 -0.0191
  852loPI   C3B12623   2.361  14.021   7.636 -0.0584  0.0095  0.2091
  852loPI   C4B12624   2.380  14.030   8.101 -0.2475 -0.1265 -0.1930
  853loPI    C112625   4.781  16.914   5.667 -0.2716  0.0769  0.0024
  853loPI    C212626   5.045  16.714   5.442  0.0236  0.2635  0.1770
  853loPI    C312627   4.657  16.620   5.425  0.1319 -0.1939  0.1138
  853loPI   PO412628   4.870  16.978   5.870  0.0640 -0.1679 -0.1261
  853loPI   GL112629   4.886  17.302   6.093  0.2234 -0.0854 -0.2629
  853loPI   GL212630   4.570  17.458   6.297  0.1930 -0.3077 -0.2412
  853loPI   C1A12631   5.007  17.529   6.510  0.2532 -0.0966  0.1124
  853loPI   C2A12632   5.103  17.628   6.870 -0.0825 -0.1018 -0.0274
  853loPI   C3A12633   5.136  17.656   7.296  0.1657  0.3671  0.3354
  853loPI   C4A12634   5.119  17.634   7.694  0.1026  0.0583  0.0307
  853loPI   C5A12635   5.051  17.582   8.137  0.0748 -0.2066 -0.2555
  853loPI   C6A12636   4.692  17.723   8.315  0.2324  0.3879 -0.1850
  853loPI   C1B12637   4.602  17.407   6.819  0.2664  0.1097 -0.1588
  853loPI   C2B12638   4.574  17.430   7.293  0.0096 -0.0991 -0.1267
  853loPI   C3B12639   4.610  17.457   7.689  0.0848  0.0826 -0.0199
  853loPI   C4B12640   4.488  17.375   8.048  0.3236  0.0932 -0.1322
  854loPI    C112641   9.677  14.028   5.988 -0.1645  0.4081 -0.0777
  854loPI    C212642   9.992  14.065   5.746  0.0382  0.0127  0.1155
  854loPI    C312643   9.689  13.825   5.644 -0.0594  0.1525  0.0736
  854loPI   PO412644   9.799  13.870   6.256  0.0159 -0.3735 -0.2089
  854loPI   GL112645   9.854  14.048   6.555 -0.1328 -0.3309  0.2371
  854loPI   GL212646  10.073  13.802   6.673 -0.0447  0.0057 -0.3563
  854loPI   C1A12647   9.564  14.079   6.927 -0.0566  0.0615  0.2972
  854loPI   C2A12648   9.570  14.059   7.411  0.1233  0.1757  0.1354
  854loPI   C3A12649   9.529  14.089   7.842  0.2390  0.1099 -0.0713
  854loPI   C4A12650   9.482  14.245   8.273  0.0873 -0.0679 -0.0739
  854loPI   C5A12651   9.160  14.144   8.523  0.1068 -0.0755 -0.1149
  854loPI   C6A12652   8.925  13.923   8.615  0.2594  0.0837  0.1006
  854loPI   C1B12653   9.997  13.780   7.160  0.0171 -0.2094 -0.0202
  854loPI   C2B12654   9.949  13.743   7.661  0.1567 -0.1521  0.1145
  854loPI   C3B12655   9.924  13.798   8.065 -0.2370  0.1936 -0.0120
  854loPI   C4B12656  10.085  13.742   8.533 -0.2721 -0.0759  0.0873
  855loPI    C112657  14.190   6.256   6.194 -0.1380 -0.0672 -0.0622
  855loPI    C212658  14.116   5.975   5.918  0.0901 -0.1053 -0.0866
  855loPI    C312659  14.402   6.248   5.855  0.1874 -0.1523  0.1387
  855loPI   PO412660  14.303   6.093   6.403 -0.1453 -0.0070  0.1396
  855loPI   GL112661  14.248   5.998   6.765 -0.2144 -0.0424  0.0770
  855loPI   GL212662  14.372   5.676   6.644  0.2688 -0.1169 -0.0655
  855loPI   C1A12663  14.341   6.165   7.161  0.2831  0.1022  0.0853
  855loPI   C2A12664  14.258   6.114   7.604  0.1375  0.0175  0.1707
  855loPI   C3A12665  14.257   6.015   8.008  0.1814  0.2039  0.0397
  855loPI   C4A12666  14.204   6.072   8.435  0.0808 -0.2172 -0.0761
  855loPI   C5A12667  13.818   5.957   8.696 -0.0106 -0.1072 -0.0649
  855loPI   C6A12668  13.702   5.735   9.074 -0.2447 -0.0931  0.3683
  855loPI   C1B12669  14.548   5.552   7.080 -0.1254  0.0696  0.0310
  855loPI   C2B12670  14.707   5.347   7.454 -0.0454 -0.0254  0.1651
  855loPI   C3B12671  14.679   5.232   7.914 -0.1690 -0.1272 -0.2420
  855loPI   C4B12672  14.740   5.296   8.358 -0.0131  0.2555 -0.1610
  856loPI    C112673   3.756   7.587   5.463  0.1791 -0.1106  0.0370
  856loPI    C212674   3.612   7.916   5.287  0.1516 -0.0613  0.1511
  856loPI    C312675   3.411   7.571   5.261  0.2937 -0.1235 -0.1602
  856loPI   PO412676   3.758   7.649   5.745 -0.3802 -0.1098 -0.0177
  856loPI   GL112677   3.807   7.508   6.125 -0.1546 -0.3475 -0.0023
  856loPI   GL212678   3.594   7.762   6.227 -0.2540 -0.2689 -0.2553
  856loPI   C1A12679   3.644   7.286   6.451  0.1235  0.3143  0.1637
  856loPI   C2A12680   3.705   7.186   6.836  0.1508  0.1923  0.1577
  856loPI   C3A12681   3.498   7.259   7.157 -0.1733  0.0551 -0.0710
  856loPI   C4A12682   3.385   7.313   7.587 -0.1492  0.1395 -0.2460
  856loPI   C5A12683   3.392   7.342   8.093  0.1955 -0.0575 -0.0627
  856loPI   C6A12684   3.299   7.656   8.388  0.0343 -0.1760 -0.3601
  856loPI   C1B12685   3.735   7.709   6.592 -0.0082  0.0979  0.2422
  856loPI   C2B12686   3.627   7.712   6.954  0.0624 -0.1212  0.0642
  856loPI   C3B12687   3.539   7.817   7.314 -0.0523 -0.3280 -0.5113
  856loPI   C4B12688   3.471   7.830   7.797 -0.0238  0.4718 -0.1500
  857loPI    C112689  16.366   7.937   6.120  0.3746  0.0291  0.1856
  857loPI    C212690  16.345   7.712   5.789  0.1267 -0.0072  0.2238
  857loPI    C312691  16.695   7.870   5.902  0.1967  0.0823 -0.1060
  857loPI   PO412692  16.194   7.797   6.253  0.0975 -0.0259  0.0475
  857loPI   GL112693  16.155   7.561   6.661  0.0808  0.1134  0.3322
  857loPI   GL212694  16.405   7.480   6.778 -0.0152  0.2780  0.1030
  857loPI   C1A12695  16.057   7.565   7.107 -0.2444 -0.0187  0.0230
  857loPI   C2A12696  16.058   7.602   7.561 -0.0256 -0.1336 -0.0087
  857loPI   C3A12697  15.922   7.686   7.952 -0.2367 -0.1222 -0.0327
  857loPI   C4A12698  15.687   7.721   8.451 -0.1430 -0.1897  0.0795
  857loPI   C5A12699  15.390   8.050   8.719  0.0559  0.2568  0.0911
  857loPI   C6A12700  15.423   8.431   8.830  0.0469  0.0421  0.2118
  857loPI   C1B12701  16.465   7.283   7.155  0.0505 -0.0999 -0.0335
  857loPI   C2B12702  16.451   7.311   7.574 -0.0182 -0.0831 -0.1319
  857loPI   C3B12703  16.352   7.342   8.015  0.2737  0.0509 -0.0528
  857loPI   C4B12704  16.591   7.418   8.439  0.0293  0.0061  0.2124
  858loPI    C112705   1.865  11.839   5.846 -0.1745 -0.1567 -0.0087
  858loPI    C212706   1.814  12.236   5.833 -0.2699 -0.1691 -0.0141
  858loPI    C312707   2.083  12.061   5.595 -0.1500 -0.0951  0.0665
  858loPI   PO412708   1.884  11.762   6.108 -0.3187  0.1941  0.1429
  858loPI   GL112709   1.759  11.607   6.521  0.1429  0.3053 -0.2646
  858loPI   GL212710   1.639  11.842   6.561  0.0984 -0.1088 -0.2812
  858loPI   C1A12711   1.865  11.476   7.019 -0.0208 -0.2682  0.2209
  858loPI   C2A12712   1.922  11.526   7.459  0.0110  0.2232 -0.1680
  858loPI   C3A12713   1.961  11.479   7.872 -0.6740 -0.1693 -0.3383
  858loPI   C4A12714   2.161  11.180   8.114 -0.0703 -0.0646 -0.1377
  858loPI   C5A12715   2.101  11.227   8.597 -0.3293 -0.0245  0.0683
  858loPI   C6A12716   1.851  11.341   8.910  0.0535 -0.2553 -0.2791
  858loPI   C1B12717   1.505  11.799   6.954 -0.1890 -0.1151 -0.0544
  858loPI   C2B12718   1.401  11.811   7.369 -0.1111 -0.1903  0.0275
  858loPI   C3B12719   1.454  11.706   7.694 -0.4114 -0.1767 -0.0338
  858loPI   C4B12720   1.533  11.694   8.025  0.1357 -0.0691 -0.0179
  859loPI    C112721   3.144  16.612   5.788  0.1330 -0.0517  0.2450
  859loPI    C212722   3.146  16.978   5.627 -0.4040 -0.1709 -0.0581
  859loPI    C312723   3.241  16.661   5.403  0.1020 -0.2227  0.2147
  859loPI   PO412724   3.333  16.627   6.078 -0.0474 -0.2390  0.1530
  859loPI   GL112725   3.260  16.872   6.466 -0.1409  0.0813 -0.1653
  859loPI   GL212726   3.066  16.612   6.495  0.2526  0.0376 -0.0238
  859loPI   C1A12727   3.155  16.927   6.912  0.1532  0.3083 -0.0545
  859loPI   C2A12728   3.178  16.846   7.303 -0.0401  0.0384  0.3342
  859loPI   C3A12729   3.165  16.784   7.753 -0.1774 -0.2202  0.0648
  859loPI   C4A12730   3.008  16.882   8.176  0.1232 -0.0097  0.1486
  859loPI   C5A12731   3.091  17.047   8.596 -0.1204 -0.0527  0.0097
  859loPI   C6A12732   3.070  17.445   8.913  0.1062 -0.2120  0.0291
  859loPI   C1B12733   3.151  16.397   6.963  0.3754 -0.0117  0.1623
  859loPI   C2B12734   3.179  16.332   7.497 -0.2468  0.1715 -0.3163
  859loPI   C3B12735   3.070  16.306   8.060 -0.1645  0.1522  0.0718
  859loPI   C4B12736   3.102  16.410   8.486  0.1955  0.2969 -0.1789
  860loPI    C112737  11.503   3.172   5.850  0.0136 -0.1473 -0.2082
  860loPI    C212738  11.155   3.300   5.702  0.0488 -0.0773 -0.2309
  860loPI    C312739  11.480   3.532   5.677  0.0913 -0.1322 -0.1877
  860loPI   PO412740  11.427   2.981   6.015 -0.0095 -0.2345  0.0808
  860loPI   GL112741  11.452   3.033   6.523  0.1667 -0.0275 -0.0661
  860loPI   GL212742  11.370   3.320   6.699 -0.2184 -0.2593 -0.1350
  860loPI   C1A12743  11.622   2.945   6.869  0.3445 -0.0246  0.0585
  860loPI   C2A12744  11.480   2.938   7.295  0.2527  0.0633 -0.1988
  860loPI   C3A12745  11.547   2.988   7.680  0.1002 -0.2881  0.0818
  860loPI   C4A12746  11.532   3.087   8.134 -0.3084 -0.0058  0.1524
  860loPI   C5A12747  11.461   2.902   8.445  0.1085 -0.2017 -0.2014
  860loPI   C6A12748  11.619   2.746   8.787 -0.0040  0.0922  0.1107
  860loPI   C1B12749  11.644   3.409   7.065 -0.1017  0.0545  0.1441
  860loPI   C2B12750  11.649   3.570   7.508 -0.1934  0.2188  0.0424
  860loPI   C3B12751  11.684   3.545   7.979 -0.1914  0.0806 -0.0064
  860loPI   C4B12752  11.633   3.589   8.422 -0.1317 -0.0851 -0.0920
  861loPI    C112753   8.127  13.182   5.690  0.2200  0.1807 -0.0335
  861loPI    C212754   8.000  12.969   5.376 -0.1442  0.1716  0.1144
  861loPI    C312755   8.390  12.985   5.462 -0.0740 -0.1066 -0.1337
  861loPI   PO412756   8.079  13.123   5.947  0.1096 -0.0029 -0.1675
  861loPI   GL112757   7.896  12.943   6.257  0.3568  0.2086 -0.0213
  861loPI   GL212758   8.142  12.862   6.445  0.3282  0.0407  0.0457
  861loPI   C1A12759   7.594  12.794   6.535 -0.0521 -0.0111  0.2422
  861loPI   C2A12760   7.672  12.820   7.014  0.0783 -0.3117 -0.0369
  861loPI   C3A12761   7.679  12.699   7.384 -0.0160  0.2235  0.1329
  861loPI   C4A12762   7.649  12.738   7.768  0.0107 -0.1673  0.3361
  861loPI   C5A12763   7.689  12.606   8.198  0.2942 -0.0202  0.2424
  861loPI   C6A12764   7.386  12.366   8.454  0.0212 -0.1254 -0.2437
  861loPI   C1B12765   8.172  13.017   6.772 -0.0175 -0.2070  0.0792
  861loPI   C2B12766   8.150  12.917   7.143 -0.2014 -0.2418 -0.3056
  861loPI   C3B12767   8.159  12.985   7.561 -0.0814  0.0651  0.0287
  861loPI   C4B12768   8.102  12.881   7.989  0.1064  0.2018  0.0785
  862loPI    C112769   5.687   4.102   5.773 -0.3635 -0.1996  0.0156
  862loPI    C212770   5.683   4.142   5.375  0.2240 -0.0492  0.0158
  862loPI    C312771   5.440   4.365   5.601  0.1779  0.1618 -0.2374
  862loPI   PO412772   5.885   4.100   5.887  0.2356 -0.1120 -0.2659
  862loPI   GL112773   6.035   3.976   6.333 -0.0893  0.0373  0.1707
  862loPI   GL212774   5.770   4.205   6.525 -0.2569  0.2214 -0.2199
  862loPI   C1A12775   6.127   3.890   6.715 -0.0756  0.1701  0.0936
  862loPI   C2A12776   6.206   3.965   7.090  0.2778 -0.0133  0.1163
  862loPI   C3A12777   6.145   3.988   7.466  0.1713 -0.3242  0.1236
  862loPI   C4A12778   6.144   3.857   7.931 -0.2758 -0.0997 -0.1094
  862loPI   C5A12779   6.179   4.148   8.232  0.0406  0.1561 -0.3331
  862loPI   C6A12780   6.091   4.380   8.704  0.0176 -0.0263  0.2279
  862loPI   C1B12781   5.818   4.205   6.991 -0.0341 -0.0624  0.0989
  862loPI   C2B12782   5.815   4.304   7.421 -0.1566 -0.4076 -0.0573
  862loPI   C3B12783   5.684   4.359   7.816  0.0960  0.1076 -0.2204
  862loPI   C4B12784   5.728   4.368   8.276 -0.0969 -0.1181  0.1920
  863loPI    C112785  12.007   6.326   6.045  0.1053  0.1712 -0.1233
  863loPI    C212786  11.885   6.210   5.682  0.1959 -0.0647 -0.0803
  863loPI    C312787  12.059   6.567   5.730 -0.1479  0.1239 -0.2036
  863loPI   PO412788  12.017   6.029   6.205 -0.1094 -0.2335 -0.0749
  863loPI   GL112789  11.970   6.075   6.663 -0.1169 -0.1436 -0.0625
  863loPI   GL212790  12.320   5.858   6.680  0.1618  0.0167  0.1306
  863loPI   C1A12791  12.084   6.257   6.962 -0.1422  0.1890  0.0771
  863loPI   C2A12792  12.100   6.143   7.394  0.0595  0.4330 -0.0585
  863loPI   C3A12793  11.956   6.189   7.795 -0.0994  0.1927  0.0594
  863loPI   C4A12794  11.925   6.226   8.212  0.3873  0.3378 -0.1945
  863loPI   C5A12795  12.174   6.061   8.528 -0.0681  0.0506 -0.0034
  863loPI   C6A12796  12.321   6.130   9.003  0.3936 -0.0551 -0.4644
  863loPI   C1B12797  12.412   5.885   7.158 -0.2087 -0.0306 -0.0749
  863loPI   C2B12798  12.395   5.866   7.631  0.2405 -0.2542 -0.0925
  863loPI   C3B12799  12.352   5.870   8.101  0.4689  0.0702 -0.0774
  863loPI   C4B12800  12.592   5.709   8.523  0.1758  0.1657 -0.1524
  864loPI    C112801  12.591   1.068   6.079 -0.1197 -0.1207 -0.0435
  864loPI    C212802  12.557   1.057   5.680 -0.0813 -0.3697 -0.0411
  864loPI    C312803  12.420   0.753   5.901  0.2228 -0.4005  0.1108
  864loPI   PO412804  12.716   1.315   6.093  0.0209 -0.1634  0.1452
  864loPI   GL112805  12.637   1.397   6.461  0.1354 -0.0070 -0.1086
  864loPI   GL212806  12.502   1.273   6.526  0.1437  0.1458  0.1091
  864loPI   C1A12807  12.861   1.401   6.866 -0.1485 -0.0909  0.2227
  864loPI   C2A12808  12.707   1.451   7.293 -0.2465 -0.0749  0.1579
  864loPI   C3A12809  12.628   1.504   7.822  0.2401  0.1730 -0.0745
  864loPI   C4A12810  12.620   1.405   8.304  0.3241 -0.2508  0.0185
  864loPI   C5A12811  12.484   1.421   8.830 -0.1170 -0.1867  0.1114
  864loPI   C6A12812  12.141   1.564   9.027 -0.4700  0.2346  0.3994
  864loPI   C1B12813  12.323   1.203   6.886  0.0058  0.0807 -0.0488
  864loPI   C2B12814  12.197   1.215   7.344  0.1885  0.2492  0.0700
  864loPI   C3B12815  12.189   1.380   7.698  0.0833 -0.3158  0.2357
  864loPI   C4B12816  12.153   1.290   8.121 -0.1510  0.1146 -0.0771
  865loPI    C112817   1.130   8.858   5.600 -0.0446 -0.0683 -0.1071
  865loPI    C212818   1.220   9.065   5.270  0.2593  0.1971  0.1363
  865loPI    C312819   1.512   8.900   5.488  0.0424 -0.2077  0.1293
  865loPI   PO412820   0.947   9.048   5.761 -0.1421 -0.0106 -0.0541
  865loPI   GL112821   0.929   9.384   6.065 -0.0611  0.1752  0.2151
  865loPI   GL212822   0.780   9.223   6.344  0.0932  0.0019  0.2039
  865loPI   C1A12823   1.182   9.656   6.316 -0.0648 -0.3345 -0.1218
  865loPI   C2A12824   1.254   9.788   6.682  0.0485  0.3908  0.0141
  865loPI   C3A12825   1.266   9.762   7.114  0.0066 -0.0412 -0.1303
  865loPI   C4A12826   1.142   9.754   7.577 -0.1131 -0.2560 -0.0176
  865loPI   C5A12827   1.158   9.741   7.990 -0.0296  0.0331 -0.2361
  865loPI   C6A12828   0.908   9.692   8.409 -0.0981 -0.0121  0.3286
  865loPI   C1B12829   0.741   9.019   6.714 -0.3140  0.0192 -0.3462
  865loPI   C2B12830   0.650   8.946   7.116  0.0008 -0.1839  0.2663
  865loPI   C3B12831   0.633   9.029   7.547  0.0281  0.5280  0.0799
  865loPI   C4B12832   0.487   9.036   7.932 -0.0601  0.1102 -0.0606
  866loPI    C112833  11.164   9.732   5.890 -0.0294  0.0703 -0.0151
  866loPI    C212834  10.970   9.845   5.559 -0.2231 -0.1548  0.0191
  866loPI    C312835  11.312   9.640   5.530 -0.0722  0.1008 -0.0406
  866loPI   PO412836  10.973   9.608   6.007  0.0061 -0.1478  0.1808
  866loPI   GL112837  10.749   9.666   6.357  0.2347 -0.2066 -0.1783
  866loPI   GL212838  10.445   9.868   6.349 -0.0083  0.0082 -0.1850
  866loPI   C1A12839  10.840   9.647   6.858 -0.0212  0.0127  0.1054
  866loPI   C2A12840  10.900   9.637   7.279  0.1616 -0.2491  0.0032
  866loPI   C3A12841  10.779   9.573   7.767  0.1271 -0.1055  0.2335
  866loPI   C4A12842  10.664   9.474   8.259 -0.0905 -0.2058 -0.0832
  866loPI   C5A12843  10.332   9.277   8.426 -0.0321 -0.2071 -0.1674
  866loPI   C6A12844  10.290   8.976   8.579 -0.2197  0.1455 -0.0417
  866loPI   C1B12845  10.426   9.943   6.713 -0.0587 -0.0214  0.0021
  866loPI   C2B12846  10.497   9.990   7.163  0.0943 -0.3587  0.2446
  866loPI   C3B12847  10.440   9.930   7.698  0.0975  0.1011 -0.1698
  866loPI   C4B12848  10.408   9.896   8.100  0.1706  0.1358  0.1208
  867loPI    C112849  16.112  10.030   5.940 -0.0762 -0.0216  0.1536
  867loPI    C212850  16.282   9.717   5.758  0.0668  0.0167  0.2200
  867loPI    C312851  15.945   9.875   5.611 -0.0338 -0.1994  0.2151
  867loPI   PO412852  16.059   9.979   6.233 -0.1738  0.2879  0.0843
  867loPI   GL112853  15.904   9.706   6.553 -0.0851  0.0978 -0.2641
  867loPI   GL212854  15.782   9.472   6.614 -0.3796  0.0052  0.3976
  867loPI   C1A12855  15.916   9.642   7.101  0.1377  0.0332  0.0165
  867loPI   C2A12856  15.811   9.578   7.578 -0.0979  0.2201  0.0679
  867loPI   C3A12857  15.792   9.502   7.998 -0.1284  0.0833  0.0842
  867loPI   C4A12858  15.796   9.499   8.402  0.2224  0.0268  0.4985
  867loPI   C5A12859  16.170   9.323   8.512 -0.0798 -0.1088  0.0770
  867loPI   C6A12860  16.122   8.942   8.713 -0.1947 -0.3635  0.4844
  867loPI   C1B12861  15.468   9.359   6.953 -0.0194  0.1052 -0.1034
  867loPI   C2B12862  15.362   9.329   7.260  0.1130 -0.1117 -0.3032
  867loPI   C3B12863  15.371   9.415   7.708  0.4432 -0.0573  0.0859
  867loPI   C4B12864  15.317   9.434   8.145 -0.2037 -0.0160  0.0606
  868loPI    C112865  12.430   3.303   5.699  0.0879 -0.2654 -0.1250
  868loPI    C212866  12.822   3.294   5.624  0.1139 -0.1162 -0.0098
  868loPI    C312867  12.578   3.503   5.386  0.1142 -0.1476 -0.0377
  868loPI   PO412868  12.426   3.162   5.965  0.0604  0.2299  0.0885
  868loPI   GL112869  12.425   2.869   6.323  0.0041  0.1824  0.1529
  868loPI   GL212870  12.385   3.317   6.405  0.1092  0.1275  0.2594
  868loPI   C1A12871  12.444   2.776   6.773  0.0548 -0.3443 -0.0845
  868loPI   C2A12872  12.496   2.822   7.156 -0.1896 -0.0024  0.1702
  868loPI   C3A12873  12.410   2.864   7.638  0.0078  0.0800  0.0966
  868loPI   C4A12874  12.435   2.925   8.137 -0.0576  0.0943  0.2490
  868loPI   C5A12875  12.293   3.001   8.591  0.1100 -0.0546 -0.1647
  868loPI   C6A12876  12.034   3.185   8.854 -0.1672  0.0394 -0.1870
  868loPI   C1B12877  12.481   3.262   6.858 -0.2517  0.1767  0.0064
  868loPI   C2B12878  12.467   3.288   7.275 -0.3896  0.0632  0.0329
  868loPI   C3B12879  12.614   3.370   7.690  0.1840 -0.4155  0.1221
  868loPI   C4B12880  12.543   3.421   8.100  0.0170  0.1110 -0.0238
  869loPI    C112881   9.994   9.402   5.553  0.0823 -0.1029 -0.1373
  869loPI    C212882   9.760   9.700   5.428  0.0193 -0.1050 -0.0264
  869loPI    C312883   9.711   9.332   5.280 -0.2047 -0.1549  0.1664
  869loPI   PO412884   9.981   9.400   5.830 -0.1443 -0.4173 -0.1854
  869loPI   GL112885  10.019   9.574   6.240  0.0274 -0.0449 -0.0620
  869loPI   GL212886  10.222   9.344   6.258  0.1872  0.0756  0.0664
  869loPI   C1A12887   9.917   9.799   6.621  0.1962  0.3572  0.2080
  869loPI   C2A12888  10.044   9.769   7.105 -0.4125  0.1653 -0.0618
  869loPI   C3A12889   9.916   9.801   7.482 -0.3544 -0.0525  0.0570
  869loPI   C4A12890   9.907   9.675   7.812 -0.0800  0.0618 -0.0710
  869loPI   C5A12891   9.921   9.614   8.304 -0.2099 -0.0749  0.0700
  869loPI   C6A12892  10.202   9.776   8.590  0.0669 -0.0655 -0.2972
  869loPI   C1B12893  10.343   9.447   6.584 -0.3664 -0.1179 -0.2679
  869loPI   C2B12894  10.442   9.482   6.991  0.0795  0.3829 -0.3524
  869loPI   C3B12895  10.375   9.523   7.422  0.0457  0.3361  0.2590
  869loPI   C4B12896  10.294   9.347   7.881 -0.0129 -0.0206 -0.0269
  870loPI    C112897   5.209   8.235   5.757  0.0596 -0.0126  0.0432
  870loPI    C212898   4.847   8.380   5.668  0.1492  0.0498 -0.2268
  870loPI    C312899   5.103   8.284   5.375  0.5051  0.3947 -0.0387
  870loPI   PO412900   5.137   8.091   5.925 -0.1751 -0.1078 -0.6372
  870loPI   GL112901   5.170   8.181   6.326 -0.1247 -0.0366 -0.2113
  870loPI   GL212902   5.399   8.355   6.317 -0.0754  0.0086 -0.0816
  870loPI   C1A12903   5.084   8.347   6.721  0.0868 -0.3928  0.4657
  870loPI   C2A12904   5.103   8.450   7.155  0.0246 -0.0916  0.1316
  870loPI   C3A12905   5.014   8.413   7.590 -0.0701 -0.2843 -0.1131
  870loPI   C4A12906   4.906   8.284   7.969 -0.0783  0.0700 -0.0915
  870loPI   C5A12907   5.031   8.269   8.355 -0.0222  0.0791  0.1111
  870loPI   C6A12908   5.334   8.314   8.630  0.0195  0.0414 -0.0669
  870loPI   C1B12909   5.585   8.573   6.768  0.0897 -0.0685 -0.0865
  870loPI   C2B12910   5.623   8.639   7.251 -0.0614  0.1234 -0.0270
  870loPI   C3B12911   5.533   8.487   7.624 -0.2250  0.1096 -0.0964
  870loPI   C4B12912   5.449   8.504   8.067 -0.1143 -0.4494 -0.2034
  871loPI    C112913   1.818  16.766   6.052 -0.1929  0.1643  0.1495
  871loPI    C212914   1.477  16.756   5.843 -0.1751 -0.2033  0.1312
  871loPI    C312915   1.720  16.438   5.845  0.2714  0.1256 -0.0221
  871loPI   PO412916   1.805  16.949   6.146  0.0440 -0.1600  0.1800
  871loPI   GL112917   1.839  17.150   6.509  0.0451  0.2556 -0.2006
  871loPI   GL212918   1.578  16.922   6.552  0.1189 -0.2643 -0.0819
  871loPI   C1A12919   1.854  17.320   6.886  0.1038 -0.0036 -0.0148
  871loPI   C2A12920   1.589  17.256   7.208 -0.1936  0.0032  0.0960
  871loPI   C3A12921   1.358  17.168   7.587  0.2137 -0.1289 -0.0071
  871loPI   C4A12922   1.383  17.306   7.951  0.0590  0.4055 -0.0604
  871loPI   C5A12923   1.341  17.338   8.491 -0.1680  0.3994  0.5467
  871loPI   C6A12924   1.196  17.773   8.810 -0.1301 -0.2146 -0.1775
  871loPI   C1B12925   1.714  16.781   6.977  0.2149 -0.2104  0.3342
  871loPI   C2B12926   1.598  16.743   7.336  0.0565 -0.0886 -0.0460
  871loPI   C3B12927   1.577  16.805   7.761 -0.3044  0.0112 -0.0479
  871loPI   C4B12928   1.486  16.807   8.223  0.0525 -0.2222  0.1711
  872loPI    C112929  13.299   5.388   5.929  0.0701 -0.1807 -0.0702
  872loPI    C212930  13.660   5.521   6.040 -0.0337  0.0033  0.0514
  872loPI    C312931  13.561   5.513   5.653  0.0684  0.0360  0.0242
  872loPI   PO412932  13.182   5.406   6.145  0.1871  0.0287 -0.1081
  872loPI   GL112933  13.049   5.206   6.485 -0.3177 -0.2177 -0.0224
  872loPI   GL212934  13.187   4.932   6.594 -0.0396  0.0663 -0.0597
  872loPI   C1A12935  12.742   4.915   6.802 -0.1045 -0.0149  0.0462
  872loPI   C2A12936  12.723   5.019   7.168  0.1397  0.1947  0.0975
  872loPI   C3A12937  12.752   4.960   7.632  0.1353 -0.1448 -0.0555
  872loPI   C4A12938  12.694   5.091   8.014  0.1778 -0.1246 -0.0736
  872loPI   C5A12939  12.879   5.107   8.445 -0.3766 -0.0407 -0.0893
  872loPI   C6A12940  12.911   5.365   8.764 -0.0046  0.0302 -0.2752
  872loPI   C1B12941  13.290   5.155   6.990 -0.0153  0.0981 -0.2026
  872loPI   C2B12942  13.211   5.179   7.476  0.0508  0.1251 -0.0816
  872loPI   C3B12943  13.232   5.222   7.910 -0.0766 -0.2384  0.0493
  872loPI   C4B12944  13.383   5.229   8.386 -0.0642  0.0276  0.0346
  873loPI    C112945  16.212   1.178   5.447 -0.0398  0.1510  0.1215
  873loPI    C212946  16.335   0.799   5.413 -0.1337  0.1131  0.1989
  873loPI    C312947  16.340   1.041   5.094  0.0690  0.0905  0.1838
  873loPI   PO412948  15.978   1.034   5.696 -0.0094 -0.1261  0.0952
  873loPI   GL112949  16.127   0.927   6.169  0.2642 -0.3940  0.1333
  873loPI   GL212950  16.164   0.676   6.440 -0.1079  0.2039  0.1333
  873loPI   C1A12951  15.942   1.071   6.608 -0.1359 -0.2986  0.0184
  873loPI   C2A12952  16.014   1.160   7.083  0.1281  0.1360 -0.0226
  873loPI   C3A12953  16.178   1.308   7.461  0.2083 -0.0195  0.2322
  873loPI   C4A12954  16.285   1.236   7.938  0.0175 -0.0589 -0.0780
  873loPI   C5A12955  16.342   1.106   8.375 -0.2715  0.0101  0.0125
  873loPI   C6A12956  16.185   1.042   8.810  0.1193 -0.1039 -0.1250
  873loPI   C1B12957  16.318   0.863   6.870  0.0151  0.0177  0.2723
  873loPI   C2B12958  16.341   0.819   7.422  0.0306  0.0990  0.2136
  873loPI   C3B12959  16.325   0.671   7.899 -0.0756 -0.1758  0.5502
  873loPI   C4B12960  16.204   0.398   8.120 -0.0583 -0.0843  0.1066
  874loPI    C112961  14.422  13.260   6.113  0.2225 -0.1230 -0.5075
  874loPI    C212962  14.127  12.994   6.071 -0.0069  0.0275  0.0565
  874loPI    C312963  14.049  13.385   6.037  0.1833  0.0567 -0.0547
  874loPI   PO412964  14.497  13.153   6.317 -0.2518  0.0558  0.0355
  874loPI   GL112965  14.560  13.179   6.658 -0.0002  0.1391  0.1766
  874loPI   GL212966  14.841  13.007   6.714 -0.0998  0.0725  0.1546
  874loPI   C1A12967  14.531  12.753   6.947  0.2983  0.1263 -0.1889
  874loPI   C2A12968  14.415  12.504   7.302 -0.3223  0.1095  0.0048
  874loPI   C3A12969  14.464  12.422   7.776  0.4613 -0.4015 -0.1134
  874loPI   C4A12970  14.567  12.428   8.171 -0.0335 -0.1585 -0.0936
  874loPI   C5A12971  14.786  12.633   8.535 -0.3060  0.2013  0.3319
  874loPI   C6A12972  15.109  12.989   8.638  0.1614 -0.1354  0.1451
  874loPI   C1B12973  14.985  13.134   7.099  0.0884 -0.3551 -0.0037
  874loPI   C2B12974  14.977  13.080   7.580 -0.0488  0.2488  0.4206
  874loPI   C3B12975  14.800  12.805   7.894  0.1887  0.0417 -0.0012
  874loPI   C4B12976  14.544  12.963   8.175  0.0959  0.0223  0.2969
  875loPI    C112977   9.925   8.922   5.809 -0.2270  0.0650  0.0644
  875loPI    C212978  10.164   8.894   5.490 -0.1670  0.1290  0.1036
  875loPI    C312979   9.768   8.865   5.446 -0.1608  0.1732  0.0186
  875loPI   PO412980  10.018   8.759   5.951  0.2794  0.0357 -0.2219
  875loPI   GL112981  10.192   8.847   6.374 -0.0386  0.1945  0.3455
  875loPI   GL212982  10.200   8.568   6.522 -0.0235 -0.1574 -0.0448
  875loPI   C1A12983  10.231   9.018   6.783  0.2356 -0.1519  0.0604
  875loPI   C2A12984  10.256   8.938   7.179  0.0358 -0.3815  0.3345
  875loPI   C3A12985  10.238   8.847   7.669  0.2603 -0.1137  0.3070
  875loPI   C4A12986  10.126   8.882   8.072  0.0232 -0.0954  0.0910
  875loPI   C5A12987   9.870   9.106   8.399 -0.0639 -0.1360  0.0986
  875loPI   C6A12988   9.854   9.358   8.821  0.0010 -0.1892 -0.0834
  875loPI   C1B12989  10.225   8.495   6.899  0.2281  0.0240  0.0695
  875loPI   C2B12990  10.069   8.491   7.321 -0.2149  0.3351 -0.0186
  875loPI   C3B12991  10.128   8.370   7.734 -0.2205  0.1841  0.0430
  875loPI   C4B12992  10.355   8.183   8.161  0.1601 -0.2962 -0.1348
  876loPI    C112993  10.479   0.941   6.128 -0.0434  0.2920 -0.0656
  876loPI    C212994  10.162   0.796   5.932  0.0241  0.1418 -0.0655
  876loPI    C312995  10.480   0.928   5.728 -0.1114  0.4678 -0.0723
  876loPI   PO412996  10.381   0.985   6.426 -0.1070 -0.2753  0.2440
  876loPI   GL112997  10.158   1.171   6.677  0.0477 -0.0189  0.0346
  876loPI   GL212998   9.970   0.965   6.803  0.0230  0.1155 -0.1158
  876loPI   C1A12999  10.287   1.129   7.118  0.0164  0.0708 -0.3238
  876loPI   C2A13000  10.247   1.115   7.608 -0.2343 -0.0134 -0.0199
  876loPI   C3A13001  10.278   1.083   7.997 -0.4257  0.0707 -0.0033
  876loPI   C4A13002  10.239   0.956   8.392  0.0154 -0.1387 -0.6010
  876loPI   C5A13003  10.688   1.264   8.502 -0.3604 -0.2297  0.0302
  876loPI   C6A13004  10.704   1.750   8.522 -0.0885  0.1960  0.3173
  876loPI   C1B13005   9.702   0.918   7.025  0.0254  0.4447  0.1238
  876loPI   C2B13006   9.814   1.026   7.450 -0.1112  0.2787  0.2313
  876loPI   C3B13007   9.820   0.962   7.866  0.0483 -0.1740  0.0480
  876loPI   C4B13008   9.675   1.028   8.185 -0.3057  0.1947 -0.1274
  877loPI    C113009   6.041  15.902   5.660  0.1842 -0.0033  0.0637
  877loPI    C213010   5.711  16.030   5.474  0.3444  0.1788 -0.0987
  877loPI    C313011   5.990  15.828   5.271  0.1505 -0.3346  0.1278
  877loPI   PO413012   6.098  16.112   5.819  0.4547 -0.1683  0.0024
  877loPI   GL113013   6.027  16.145   6.230 -0.2877  0.0297 -0.0641
  877loPI   GL213014   6.174  15.849   6.373 -0.2007  0.2649 -0.0236
  877loPI   C1A13015   5.955  16.314   6.601  0.0378  0.1336 -0.3618
  877loPI   C2A13016   5.768  16.507   6.948 -0.2280  0.2592 -0.0657
  877loPI   C3A13017   5.795  16.541   7.419 -0.1012  0.1243  0.0669
  877loPI   C4A13018   5.811  16.455   7.768  0.2910  0.0276  0.4083
  877loPI   C5A13019   5.900  16.515   8.266 -0.2462 -0.1180  0.2249
  877loPI   C6A13020   5.492  16.432   8.479 -0.4780  0.1908  0.4162
  877loPI   C1B13021   6.222  15.605   6.773 -0.2397  0.2013  0.0250
  877loPI   C2B13022   6.304  15.586   7.184  0.1548 -0.2732 -0.1395
  877loPI   C3B13023   6.166  15.674   7.506 -0.1056 -0.1976 -0.0005
  877loPI   C4B13024   6.121  15.598   7.851 -0.1548  0.1307  0.0595
  878loPI    C113025  13.393   6.934   6.095  0.2094 -0.1074  0.0913
  878loPI    C213026  13.177   7.198   5.887  0.0584 -0.1005  0.2549
  878loPI    C313027  13.540   7.091   5.758 -0.0805 -0.1872 -0.0756
  878loPI   PO413028  13.353   6.986   6.308 -0.0904 -0.1023 -0.0695
  878loPI   GL113029  13.553   7.184   6.663  0.1224  0.1417 -0.0227
  878loPI   GL213030  13.816   6.970   6.630 -0.0153 -0.4360  0.1294
  878loPI   C1A13031  13.656   7.316   6.925  0.1206  0.3534  0.2380
  878loPI   C2A13032  13.715   7.334   7.366  0.2477  0.0632  0.1054
  878loPI   C3A13033  13.632   7.259   7.795  0.0621 -0.2181  0.1284
  878loPI   C4A13034  13.390   7.211   8.175  0.0794 -0.1030 -0.1754
  878loPI   C5A13035  13.336   7.049   8.547  0.0512 -0.5124 -0.0689
  878loPI   C6A13036  12.919   6.950   8.819 -0.0297 -0.1709  0.1091
  878loPI   C1B13037  14.193   7.117   6.895 -0.1951  0.0282  0.1104
  878loPI   C2B13038  14.178   7.021   7.312  0.0738 -0.0483 -0.0374
  878loPI   C3B13039  14.145   6.899   7.718  0.1611 -0.0851 -0.0121
  878loPI   C4B13040  13.899   6.878   8.129 -0.1198 -0.2610  0.0451
  879loPI    C113041  12.783  13.491   6.230  0.0816  0.1985  0.0917
  879loPI    C213042  12.693  13.555   5.845  0.1448 -0.1332  0.0183
  879loPI    C313043  13.059  13.641   5.982  0.2007 -0.2486 -0.0570
  879loPI   PO413044  12.602  13.586   6.404 -0.1916 -0.2231  0.1002
  879loPI   GL113045  12.636  13.740   6.870 -0.1408  0.0378 -0.0680
  879loPI   GL213046  12.345  13.558   6.801 -0.2807  0.1475  0.0673
  879loPI   C1A13047  12.415  13.649   7.266  0.0644  0.1542 -0.0520
  879loPI   C2A13048  12.321  13.614   7.666  0.0686 -0.1373 -0.0127
  879loPI   C3A13049  12.123  13.486   8.062  0.3374  0.3236  0.0868
  879loPI   C4A13050  11.888  13.299   8.430 -0.0672 -0.0646  0.0524
  879loPI   C5A13051  12.009  13.092   8.830  0.0265 -0.6149 -0.0880
  879loPI   C6A13052  12.417  13.009   9.012 -0.0316  0.0267 -0.0701
  879loPI   C1B13053  12.320  13.206   7.031 -0.2675 -0.0518  0.1611
  879loPI   C2B13054  12.281  13.116   7.413 -0.0294 -0.0997 -0.2692
  879loPI   C3B13055  12.227  12.979   7.871  0.2922  0.1489  0.0593
  879loPI   C4B13056  12.063  12.898   8.251  0.1670  0.4005 -0.0072
  880loPI    C113057   0.239   6.585   5.747  0.2191 -0.0159  0.1337
  880loPI    C213058   0.061   6.897   5.571 -0.0446 -0.1166  0.2161
  880loPI    C313059  -0.048   6.524   5.476  0.1864 -0.1830  0.2042
  880loPI   PO413060   0.237   6.589   6.010 -0.0905  0.2802 -0.1063
  880loPI   GL113061   0.341   6.635   6.420 -0.1648 -0.0494 -0.3040
  880loPI   GL213062   0.355   7.002   6.280 -0.2035  0.0067  0.1770
  880loPI   C1A13063   0.300   6.332   6.839 -0.0059  0.3071  0.1312
  880loPI   C2A13064   0.087   6.353   7.262 -0.1455  0.3951 -0.0007
  880loPI   C3A13065   0.015   6.371   7.686 -0.2890  0.1230  0.2608
  880loPI   C4A13066   0.053   6.375   8.155 -0.0643  0.1436  0.1420
  880loPI   C5A13067   0.341   6.297   8.505 -0.0725  0.0621  0.2530
  880loPI   C6A13068   0.678   6.021   8.801  0.1721 -0.1284 -0.2937
  880loPI   C1B13069   0.273   7.005   6.703  0.1337 -0.0130  0.0368
  880loPI   C2B13070   0.278   6.926   7.151  0.1915  0.2232  0.1688
  880loPI   C3B13071   0.273   6.890   7.534  0.0408 -0.0227 -0.1119
  880loPI   C4B13072   0.196   6.926   7.996 -0.0869  0.1990  0.2402
  881loPI    C113073  10.548  11.416   6.063  0.0282  0.1428 -0.3531
  881loPI    C213074  10.245  11.354   5.809 -0.2682 -0.1068  0.0497
  881loPI    C313075  10.192  11.585   6.131  0.0702  0.1134 -0.0475
  881loPI   PO413076  10.683  11.121   6.183 -0.1659 -0.0090  0.0943
  881loPI   GL113077  10.767  11.109   6.566  0.2820 -0.3720 -0.1238
  881loPI   GL213078  10.591  11.005   6.711  0.5422  0.0847 -0.0276
  881loPI   C1A13079  11.044  11.275   6.930 -0.2667 -0.1051  0.2461
  881loPI   C2A13080  11.068  11.160   7.351 -0.0539 -0.0111 -0.1348
  881loPI   C3A13081  11.123  11.158   7.759 -0.1159  0.0506 -0.1954
  881loPI   C4A13082  11.089  11.156   8.208 -0.2156 -0.2541 -0.0275
  881loPI   C5A13083  11.048  11.397   8.622  0.3382  0.0682  0.0412
  881loPI   C6A13084  11.040  11.774   8.861  0.0578 -0.1443  0.0945
  881loPI   C1B13085  10.502  10.990   7.164 -0.3452 -0.0653  0.0475
  881loPI   C2B13086  10.606  10.890   7.631 -0.2509 -0.0886  0.0226
  881loPI   C3B13087  10.592  10.940   8.065 -0.1492 -0.0097 -0.0596
  881loPI   C4B13088  10.808  10.828   8.510  0.1615 -0.0626  0.1187
  882loPI    C113089   8.549   2.092   5.862  0.0687  0.0906  0.2100
  882loPI    C213090   8.642   1.728   6.000 -0.3093 -0.0419  0.1266
  882loPI    C313091   8.723   1.825   5.620 -0.0767  0.0141  0.1890
  882loPI   PO413092   8.597   2.247   5.999 -0.2617 -0.1936 -0.1097
  882loPI   GL113093   8.637   2.170   6.392 -0.1500 -0.1423  0.3156
  882loPI   GL213094   8.771   2.512   6.448  0.2182  0.3525  0.2228
  882loPI   C1A13095   8.685   1.912   6.776 -0.0745 -0.2108  0.1248
  882loPI   C2A13096   8.532   2.000   7.249 -0.0268 -0.0718 -0.0302
  882loPI   C3A13097   8.461   1.977   7.745 -0.0088 -0.0407 -0.5025
  882loPI   C4A13098   8.617   2.053   8.147  0.1652  0.2083 -0.2346
  882loPI   C5A13099   8.610   2.040   8.579  0.0271  0.0705  0.4538
  882loPI   C6A13100   8.455   2.125   8.998  0.0131 -0.0030  0.2001
  882loPI   C1B13101   8.613   2.495   6.880  0.0243 -0.3620 -0.0303
  882loPI   C2B13102   8.674   2.513   7.340  0.0930 -0.0892 -0.0065
  882loPI   C3B13103   8.637   2.426   7.842 -0.0117  0.1443 -0.3091
  882loPI   C4B13104   8.784   2.496   8.303 -0.1420 -0.0658  0.1200
  883loPI    C113105   6.522  15.093   5.615 -0.1511  0.0330 -0.0849
  883loPI    C213106   6.267  14.894   5.379  0.0320 -0.0921 -0.1801
  883loPI    C313107   6.529  15.150   5.219 -0.0702  0.0791 -0.0769
  883loPI   PO413108   6.373  15.123   5.811  0.2849  0.1975  0.0389
  883loPI   GL113109   6.296  14.860   6.213  0.0498 -0.3253 -0.2907
  883loPI   GL213110   6.639  14.756   6.300  0.1642 -0.0292  0.1115
  883loPI   C1A13111   6.107  14.607   6.569  0.0062  0.0679  0.4805
  883loPI   C2A13112   6.068  14.530   6.994  0.0989 -0.1140  0.2403
  883loPI   C3A13113   6.025  14.471   7.422  0.2038  0.3352  0.2853
  883loPI   C4A13114   6.028  14.523   7.869  0.1870 -0.0574 -0.1062
  883loPI   C5A13115   6.052  14.426   8.300  0.0159  0.1584  0.2078
  883loPI   C6A13116   6.084  14.379   8.723  0.2910 -0.1237 -0.1140
  883loPI   C1B13117   6.543  14.718   6.756  0.1516 -0.3200  0.1305
  883loPI   C2B13118   6.492  14.777   7.150  0.0451 -0.0655  0.2072
  883loPI   C3B13119   6.433  14.720   7.600 -0.1562 -0.0571 -0.1664
  883loPI   C4B13120   6.426  14.735   8.061  0.0833 -0.2127 -0.3075
  884loPI    C113121  12.392  14.904   6.135  0.2841  0.1798 -0.0963
  884loPI    C213122  12.232  14.661   5.860  0.0906 -0.0814  0.2383
  884loPI    C313123  12.512  14.927   5.754  0.0019 -0.1589 -0.2113
  884loPI   PO413124  12.239  14.768   6.349  0.1879  0.3303 -0.1095
  884loPI   GL113125  11.901  14.809   6.552  0.2194 -0.1739 -0.3130
  884loPI   GL213126  11.601  14.954   6.813 -0.0189  0.1731  0.0892
  884loPI   C1A13127  12.067  14.804   6.993  0.2161  0.1608 -0.2411
  884loPI   C2A13128  12.102  14.773   7.378  0.2244 -0.0636 -0.2787
  884loPI   C3A13129  11.983  14.913   7.771  0.2736  0.2619 -0.0567
  884loPI   C4A13130  12.188  14.736   8.172 -0.0086 -0.0449 -0.2460
  884loPI   C5A13131  12.300  14.575   8.578 -0.1949 -0.0374  0.0224
  884loPI   C6A13132  12.524  14.468   8.920 -0.0675 -0.0919 -0.0885
  884loPI   C1B13133  11.528  14.719   7.237 -0.2442 -0.1271  0.6122
  884loPI   C2B13134  11.493  14.657   7.714 -0.1429 -0.3032  0.0237
  884loPI   C3B13135  11.645  14.730   8.138  0.0929 -0.0822 -0.2335
  884loPI   C4B13136  11.833  15.073   8.409 -0.1628  0.4266  0.1631
  885loPI    C113137   1.805   4.510   5.741 -0.0318  0.0505  0.3129
  885loPI    C213138   2.117   4.492   5.491 -0.0619 -0.1094  0.2862
  885loPI    C313139   1.858   4.795   5.466 -0.0107 -0.0736  0.1874
  885loPI   PO413140   1.886   4.453   5.979  0.0119  0.0468  0.3130
  885loPI   GL113141   1.904   4.624   6.419 -0.0012  0.0878 -0.0964
  885loPI   GL213142   2.178   4.709   6.369 -0.3403 -0.1134 -0.0313
  885loPI   C1A13143   1.675   4.642   6.794  0.1182 -0.0551 -0.4337
  885loPI   C2A13144   1.621   4.624   7.160 -0.4986 -0.4289 -0.2866
  885loPI   C3A13145   1.673   4.601   7.561  0.1854 -0.0423 -0.0507
  885loPI   C4A13146   1.701   4.594   7.965 -0.1432  0.1583 -0.1849
  885loPI   C5A13147   1.515   4.652   8.400  0.1071 -0.0653  0.2209
  885loPI   C6A13148   1.373   4.478   8.760  0.2513  0.0091  0.0332
  885loPI   C1B13149   2.146   4.834   6.789 -0.3660  0.2757  0.4191
  885loPI   C2B13150   2.124   4.846   7.199  0.4804  0.0242  0.1634
  885loPI   C3B13151   2.149   4.775   7.517 -0.0486  0.2099 -0.1266
  885loPI   C4B13152   2.142   4.865   7.937 -0.1705  0.0372  0.1074
  886loPI    C113153  17.302  13.617   5.946 -0.0622 -0.0162 -0.1376
  886loPI    C213154  17.699  13.614   5.991 -0.0650  0.0099 -0.1106
  886loPI    C313155  17.536  13.499   5.644 -0.0409 -0.1503 -0.0699
  886loPI   PO413156  17.288  13.860   6.080 -0.2960  0.0792 -0.1714
  886loPI   GL113157  17.351  13.864   6.534 -0.0403  0.0658  0.0337
  886loPI   GL213158  16.948  13.806   6.761 -0.0947  0.0086 -0.4077
  886loPI   C1A13159  17.465  14.005   6.917  0.2114  0.1969 -0.1354
  886loPI   C2A13160  17.467  13.809   7.354  0.1593  0.2247  0.0808
  886loPI   C3A13161  17.573  13.612   7.722  0.1285  0.0362 -0.2943
  886loPI   C4A13162  17.730  13.642   8.185  0.0540  0.2337  0.0722
  886loPI   C5A13163  18.138  13.633   8.437  0.3178  0.1926 -0.1874
  886loPI   C6A13164  18.444  13.367   8.669  0.0637  0.1897  0.1874
  886loPI   C1B13165  16.680  14.030   7.022 -0.0719 -0.0024 -0.0955
  886loPI   C2B13166  16.613  14.397   7.385 -0.0101 -0.0942 -0.3595
  886loPI   C3B13167  16.448  14.352   7.616 -0.1290  0.2294 -0.3783
  886loPI   C4B13168  16.214  14.133   7.984 -0.1054  0.0896 -0.1154
  887loPI    C113169  13.457  13.302   6.519 -0.1811  0.1569 -0.0007
  887loPI    C213170  13.617  13.096   6.217 -0.1375  0.1486  0.0281
  887loPI    C313171  13.235  13.211   6.199 -0.1434  0.1222 -0.0170
  887loPI   PO413172  13.551  13.167   6.757 -0.2133  0.0695  0.2256
  887loPI   GL113173  13.733  13.155   7.113 -0.1560  0.0233 -0.3553
  887loPI   GL213174  13.970  13.345   7.045  0.0812 -0.0848 -0.0901
  887loPI   C1A13175  13.860  13.177   7.579  0.1070 -0.3350 -0.0156
  887loPI   C2A13176  13.729  13.114   7.940  0.0711  0.0375 -0.0077
  887loPI   C3A13177  13.930  13.111   8.384 -0.2929 -0.5534 -0.0679
  887loPI   C4A13178  13.872  12.910   8.757 -0.1040  0.0064  0.0881
  887loPI   C5A13179  14.034  12.596   8.926 -0.1846 -0.2473 -0.1027
  887loPI   C6A13180  14.023  12.199   8.847 -0.2278  0.0733 -0.3222
  887loPI   C1B13181  14.187  13.515   7.429  0.1305  0.0392  0.0283
  887loPI   C2B13182  14.158  13.349   7.955  0.0756 -0.3291  0.1018
  887loPI   C3B13183  14.402  13.494   8.321 -0.1079  0.1547  0.1994
  887loPI   C4B13184  14.448  13.795   8.687  0.2120 -0.3074 -0.1821
  888loPI    C113185  16.833   2.365   5.752  0.1487 -0.2029 -0.0507
  888loPI    C213186  16.480   2.409   5.569  0.0018 -0.0755  0.2554
  888loPI    C313187  16.723   2.724   5.612  0.0833 -0.1285  0.1868
  888loPI   PO413188  16.761   2.273   6.014 -0.0943  0.3016  0.0045
  888loPI   GL113189  16.635   2.337   6.406 -0.2035  0.1200 -0.4322
  888loPI   GL213190  16.851   2.504   6.439 -0.3484  0.3559 -0.1416
  888loPI   C1A13191  16.422   2.164   6.761  0.0741 -0.2070  0.1377
  888loPI   C2A13192  16.393   2.115   7.171 -0.0772  0.2350  0.1963
  888loPI   C3A13193  16.507   2.107   7.480  0.0217 -0.0822  0.2436
  888loPI   C4A13194  16.518   2.083   7.923  0.1698  0.2221 -0.0639
  888loPI   C5A13195  16.625   2.175   8.234  0.2063  0.2680  0.2396
  888loPI   C6A13196  16.957   2.265   8.459 -0.4224 -0.2110 -0.2165
  888loPI   C1B13197  16.902   2.669   6.846 -0.3175 -0.0510  0.0347
  888loPI   C2B13198  17.017   2.792   7.323  0.3425  0.1304 -0.0685
  888loPI   C3B13199  17.079   2.767   7.738 -0.0754 -0.3431  0.1536
  888loPI   C4B13200  17.162   2.801   8.168 -0.3190 -0.0939 -0.0876
  889loPI    C113201   3.637   1.671   5.637 -0.2581 -0.2346  0.2536
  889loPI    C213202   3.724   1.344   5.424 -0.3840 -0.1307  0.0392
  889loPI    C313203   3.932   1.681   5.367 -0.3832 -0.1176  0.1191
  889loPI   PO413204   3.598   1.623   5.949 -0.0182  0.0194  0.2011
  889loPI   GL113205   3.413   1.425   6.278 -0.2811  0.0184 -0.3939
  889loPI   GL213206   3.212   1.162   6.327  0.1865 -0.1683  0.2455
  889loPI   C1A13207   3.465   1.401   6.719  0.3794 -0.1036 -0.3471
  889loPI   C2A13208   3.382   1.347   7.123  0.2907  0.1525  0.1212
  889loPI   C3A13209   3.493   1.282   7.618 -0.0383  0.1547 -0.0023
  889loPI   C4A13210   3.476   1.306   8.021  0.3036  0.1596 -0.1358
  889loPI   C5A13211   3.565   1.414   8.558  0.4137  0.1653  0.2154
  889loPI   C6A13212   3.632   1.706   8.866 -0.4013 -0.1168  0.1766
  889loPI   C1B13213   3.021   1.174   6.896 -0.2330 -0.0058 -0.0221
  889loPI   C2B13214   2.998   1.181   7.319  0.0893 -0.3396  0.1279
  889loPI   C3B13215   2.978   1.133   7.797  0.0306 -0.2260 -0.1622
  889loPI   C4B13216   2.960   1.171   8.074 -0.0760 -0.0817 -0.1154
  890loPI    C113217   1.065  15.116   6.212  0.1384  0.4208 -0.0038
  890loPI    C213218   0.795  15.388   6.326  0.1127  0.3769  0.0406
  890loPI    C313219   0.836  15.296   5.939 -0.1601  0.1505  0.0628
  890loPI   PO413220   1.049  14.889   6.289 -0.1476 -0.3422 -0.2576
  890loPI   GL113221   1.117  14.856   6.754  0.0062  0.2211  0.1153
  890loPI   GL213222   1.244  14.534   6.834 -0.2121 -0.1259  0.0008
  890loPI   C1A13223   1.376  15.051   7.092  0.0042  0.1480  0.1252
  890loPI   C2A13224   1.512  15.153   7.439  0.0662  0.0972  0.2259
  890loPI   C3A13225   1.448  15.213   7.809  0.1118 -0.0937 -0.1357
  890loPI   C4A13226   1.411  15.202   8.248 -0.0317 -0.3192  0.2292
  890loPI   C5A13227   1.427  14.916   8.491  0.1429 -0.0860 -0.0103
  890loPI   C6A13228   1.246  14.580   8.721  0.0293 -0.1332  0.2901
  890loPI   C1B13229   1.194  14.558   7.311  0.2613  0.0051 -0.1343
  890loPI   C2B13230   1.067  14.480   7.770  0.0592  0.0930  0.2707
  890loPI   C3B13231   1.061  14.488   8.233 -0.2219  0.0992  0.0078
  890loPI   C4B13232   0.898  14.216   8.546  0.1374  0.0450  0.5138
  891loPI    C113233   6.060   0.750   5.662 -0.1538  0.0279 -0.0762
  891loPI    C213234   6.426   0.801   5.511 -0.1002 -0.2215 -0.0352
  891loPI    C313235   6.138   0.638   5.286 -0.1315 -0.2119 -0.0022
  891loPI   PO413236   6.177   0.669   6.007  0.0956 -0.1079 -0.0146
  891loPI   GL113237   6.342   0.524   6.418  0.0261 -0.2158 -0.2865
  891loPI   GL213238   6.001   0.445   6.526 -0.0161 -0.0480 -0.0749
  891loPI   C1A13239   6.585   0.682   6.766  0.0863  0.3334  0.0682
  891loPI   C2A13240   6.589   0.748   7.188 -0.1841  0.2927 -0.2689
  891loPI   C3A13241   6.488   0.701   7.648 -0.1117  0.0031  0.2718
  891loPI   C4A13242   6.442   0.671   8.052 -0.0745 -0.3118  0.1803
  891loPI   C5A13243   6.431   0.626   8.437 -0.0074  0.2006 -0.1074
  891loPI   C6A13244   6.098   0.400   8.606 -0.1252 -0.1805  0.3394
  891loPI   C1B13245   6.075   0.512   6.889 -0.0767 -0.1066  0.0009
  891loPI   C2B13246   5.984   0.509   7.361  0.0929  0.1864  0.2514
  891loPI   C3B13247   6.085   0.492   7.693 -0.0630 -0.0327  0.0632
  891loPI   C4B13248   5.991   0.533   8.121 -0.0761 -0.0635 -0.0802
  892loPI    C113249  15.029   7.249   5.946  0.0693  0.0670  0.1419
  892loPI    C213250  15.392   7.381   5.841 -0.0423  0.1717 -0.1225
  892loPI    C313251  15.165   7.597   6.090 -0.0161  0.2213 -0.1416
  892loPI   PO413252  15.119   7.013   6.040  0.1632  0.2620 -0.1139
  892loPI   GL113253  15.033   6.837   6.368 -0.4171  0.0121  0.1432
  892loPI   GL213254  15.392   6.707   6.415  0.2169 -0.0905  0.0897
  892loPI   C1A13255  15.071   6.845   6.776  0.1883 -0.0181 -0.0469
  892loPI   C2A13256  14.969   6.815   7.214  0.0041  0.4029 -0.1399
  892loPI   C3A13257  14.925   6.805   7.694  0.0791  0.1922  0.0617
  892loPI   C4A13258  14.962   6.815   8.061 -0.1074  0.2104  0.0164
  892loPI   C5A13259  15.093   6.591   8.436  0.1054  0.0220  0.1180
  892loPI   C6A13260  15.090   6.487   8.846  0.0422 -0.2344  0.1738
  892loPI   C1B13261  15.533   6.820   6.867 -0.0998 -0.1903  0.1625
  892loPI   C2B13262  15.465   6.896   7.380  0.0415 -0.1104 -0.0594
  892loPI   C3B13263  15.413   6.964   7.812 -0.1171 -0.0100  0.0542
  892loPI   C4B13264  15.371   6.984   8.272 -0.0059  0.1098  0.3141
  893loPI    C113265   3.240   6.074   5.727  0.0532  0.1917 -0.3146
  893loPI    C213266   3.176   5.679   5.720  0.0056  0.1924 -0.0220
  893loPI    C313267   3.237   5.878   5.378  0.0917 -0.0773 -0.1659
  893loPI   PO413268   3.142   6.105   5.964 -0.2054 -0.2103  0.1332
  893loPI   GL113269   3.150   5.867   6.194  0.2468  0.2573 -0.1694
  893loPI   GL213270   3.349   5.650   6.265  0.0287  0.1818  0.0323
  893loPI   C1A13271   2.955   6.009   6.666 -0.0140  0.0567  0.1225
  893loPI   C2A13272   2.844   6.005   7.111  0.0520  0.1423  0.0582
  893loPI   C3A13273   2.761   5.977   7.398  0.1927 -0.1589  0.0873
  893loPI   C4A13274   2.752   5.995   7.709  0.1215 -0.0102 -0.2910
  893loPI   C5A13275   2.792   6.050   8.080  0.1614  0.5017  0.2311
  893loPI   C6A13276   2.921   5.821   8.420  0.0418  0.0676  0.1622
  893loPI   C1B13277   3.331   5.685   6.705 -0.0525 -0.0410  0.2169
  893loPI   C2B13278   3.223   5.636   7.156 -0.3410 -0.0377 -0.3707
  893loPI   C3B13279   3.156   5.639   7.610  0.0866 -0.3021 -0.0354
  893loPI   C4B13280   3.240   5.759   8.034 -0.1815 -0.2631 -0.2675
  894loPI    C113281   7.784   6.413   5.548 -0.0965 -0.0733  0.1354
  894loPI    C213282   7.752   6.568   5.180  0.0807 -0.0744  0.1188
  894loPI    C313283   7.426   6.524   5.408 -0.0036  0.1026  0.0340
  894loPI   PO413284   7.943   6.659   5.690 -0.0930 -0.2437  0.0225
  894loPI   GL113285   8.007   6.788   6.137 -0.0533 -0.0509  0.0618
  894loPI   GL213286   8.190   6.576   6.267  0.0304 -0.0041 -0.0331
  894loPI   C1A13287   7.627   6.625   6.404 -0.1369 -0.0158 -0.0265
  894loPI   C2A13288   7.685   6.809   6.761 -0.1304  0.0368  0.0425
  894loPI   C3A13289   7.681   6.743   7.226 -0.2361  0.0274  0.0592
  894loPI   C4A13290   7.488   6.834   7.649 -0.5420  0.1308 -0.1374
  894loPI   C5A13291   7.426   6.854   8.077  0.0150  0.2806  0.0575
  894loPI   C6A13292   7.220   6.887   8.603 -0.0757  0.0693 -0.0497
  894loPI   C1B13293   8.123   6.537   6.688  0.0633  0.2788  0.2432
  894loPI   C2B13294   8.125   6.538   7.071  0.0318  0.2886 -0.0880
  894loPI   C3B13295   8.013   6.538   7.482 -0.1011 -0.0757 -0.2365
  894loPI   C4B13296   7.853   6.583   7.862 -0.3025  0.2109  0.2513
  895loPI    C113297   7.476  16.338   5.606 -0.0805 -0.0658 -0.0898
  895loPI    C213298   7.804  16.148   5.736 -0.0132  0.0596 -0.0746
  895loPI    C313299   7.704  16.133   5.349 -0.2066 -0.3034 -0.0147
  895loPI   PO413300   7.472  16.539   5.814 -0.2128 -0.3076  0.4207
  895loPI   GL113301   7.656  16.776   6.232 -0.0294 -0.0018 -0.1695
  895loPI   GL213302   7.377  16.519   6.381  0.1133  0.2786  0.1984
  895loPI   C1A13303   7.760  16.852   6.616 -0.0026 -0.2480 -0.2407
  895loPI   C2A13304   7.757  16.781   7.092 -0.0368 -0.0546  0.1846
  895loPI   C3A13305   7.721  16.692   7.424  0.3187 -0.0838 -0.1180
  895loPI   C4A13306   7.714  16.753   7.715  0.2053 -0.3991 -0.1047
  895loPI   C5A13307   7.644  16.817   8.179 -0.0395 -0.1272  0.1825
  895loPI   C6A13308   7.532  16.827   8.613  0.2104 -0.1045  0.2506
  895loPI   C1B13309   7.325  16.632   6.836 -0.0723  0.1547 -0.1422
  895loPI   C2B13310   7.221  16.503   7.210 -0.1895 -0.0086  0.0046
  895loPI   C3B13311   7.144  16.535   7.606 -0.1818  0.0196  0.2601
  895loPI   C4B13312   7.185  16.682   8.001  0.1169  0.0926 -0.1474
  896loPI    C113313  15.918   5.118   5.854 -0.0553 -0.2345 -0.0921
  896loPI    C213314  16.236   5.135   5.611 -0.0623 -0.1415 -0.0950
  896loPI    C313315  15.868   5.096   5.458 -0.0719 -0.0259 -0.1027
  896loPI   PO413316  16.021   5.201   6.048 -0.0493  0.0979  0.2280
  896loPI   GL113317  16.268   5.456   6.352 -0.0462 -0.1974  0.1466
  896loPI   GL213318  16.354   5.784   6.386 -0.1316 -0.0813  0.3708
  896loPI   C1A13319  16.195   5.375   6.691 -0.2137  0.1671 -0.2136
  896loPI   C2A13320  16.124   5.230   7.113  0.0855 -0.2191  0.1224
  896loPI   C3A13321  16.041   5.212   7.528  0.2724 -0.0040 -0.1336
  896loPI   C4A13322  16.104   5.289   7.955 -0.1729  0.0233 -0.0597
  896loPI   C5A13323  16.065   5.288   8.327 -0.3010 -0.2743  0.4854
  896loPI   C6A13324  16.029   5.702   8.554 -0.0652  0.0715 -0.0308
  896loPI   C1B13325  16.172   5.854   6.773  0.1846  0.1439  0.3210
  896loPI   C2B13326  16.214   5.760   7.174  0.1587 -0.1371  0.1853
  896loPI   C3B13327  16.194   5.800   7.594 -0.0708  0.0552 -0.3445
  896loPI   C4B13328  16.193   5.890   8.105 -0.2487  0.0439  0.2572
  897loPI    C113329   6.954  14.002   5.585 -0.0971 -0.1163 -0.0365
  897loPI    C213330   6.682  13.752   5.433 -0.1153 -0.1865  0.1098
  897loPI    C313331   7.050  13.766   5.277 -0.1955 -0.1058 -0.0757
  897loPI   PO413332   6.954  13.881   5.847  0.0731  0.0283  0.0348
  897loPI   GL113333   7.080  13.950   6.321 -0.0422 -0.1043  0.0097
  897loPI   GL213334   6.757  13.919   6.298  0.3435  0.2920  0.2612
  897loPI   C1A13335   6.958  13.956   6.840  0.1531 -0.3682  0.4093
  897loPI   C2A13336   6.842  13.958   7.282 -0.1262 -0.0656  0.0607
  897loPI   C3A13337   6.815  13.989   7.691 -0.0229  0.3414  0.0152
  897loPI   C4A13338   6.857  13.915   8.129  0.0413  0.0573  0.2014
  897loPI   C5A13339   6.774  13.878   8.602 -0.1843  0.3033  0.1377
  897loPI   C6A13340   6.625  13.740   9.017  0.1106 -0.1664 -0.2180
  897loPI   C1B13341   6.675  14.245   6.537 -0.2758 -0.0129  0.0767
  897loPI   C2B13342   6.465  14.287   7.016  0.2353  0.0471 -0.0040
  897loPI   C3B13343   6.493  14.229   7.427  0.3190 -0.3251  0.0718
  897loPI   C4B13344   6.449  14.280   7.892  0.0654 -0.1106  0.1479
  898loPI    C113345  13.761  10.607   6.044  0.2529 -0.0019 -0.0737
  898loPI    C213346  13.567  10.353   6.284  0.5049 -0.0137  0.1222
  898loPI    C313347  13.438  10.413   5.911  0.3082 -0.2539  0.1487
  898loPI   PO413348  13.814  10.816   6.246 -0.3751 -0.0876  0.1667
  898loPI   GL113349  13.811  10.780   6.675 -0.0098 -0.2981  0.2038
  898loPI   GL213350  13.800  10.486   6.644 -0.0209 -0.1421  0.0607
  898loPI   C1A13351  13.857  10.670   7.182 -0.1645  0.1317  0.0852
  898loPI   C2A13352  13.802  10.689   7.627 -0.0248 -0.0699 -0.1456
  898loPI   C3A13353  13.744  10.636   8.052 -0.0639  0.0167 -0.2906
  898loPI   C4A13354  13.671  10.577   8.457 -0.0080 -0.2189  0.0616
  898loPI   C5A13355  13.894  10.665   8.876 -0.0519  0.2233 -0.3006
  898loPI   C6A13356  13.953  10.787   9.229 -0.3414  0.2129  0.0889
  898loPI   C1B13357  13.696  10.155   6.995  0.0183  0.0767 -0.1023
  898loPI   C2B13358  13.744  10.103   7.489 -0.0734 -0.2541 -0.0453
  898loPI   C3B13359  13.690  10.180   7.781 -0.0233 -0.0826 -0.0718
  898loPI   C4B13360  13.683  10.167   8.178 -0.2917  0.0182  0.2960
  899loPI    C113361  13.598  14.671   6.582 -0.1284 -0.2041 -0.1137
  899loPI    C213362  13.783  14.445   6.309 -0.1230 -0.1979 -0.1151
  899loPI    C313363  13.647  14.808   6.209 -0.1952 -0.2293 -0.1318
  899loPI   PO413364  13.731  14.784   6.764  0.3546  0.2227  0.0381
  899loPI   GL113365  13.946  14.739   7.121  0.2445  0.0356  0.2323
  899loPI   GL213366  14.115  15.099   7.189  0.2732  0.1005 -0.0251
  899loPI   C1A13367  14.147  14.687   7.634  0.3134 -0.1261 -0.4818
  899loPI   C2A13368  14.164  15.008   8.002  0.1997  0.1016  0.1841
  899loPI   C3A13369  14.041  15.380   8.211 -0.3210  0.1250  0.2459
  899loPI   C4A13370  13.943  15.812   8.374  0.0155  0.0675 -0.1499
  899loPI   C5A13371  13.775  16.188   8.654 -0.0511 -0.1213 -0.0942
  899loPI   C6A13372  13.393  16.422   8.899  0.0609  0.3097 -0.2325
  899loPI   C1B13373  13.888  15.166   7.620 -0.1362 -0.4040  0.0504
  899loPI   C2B13374  13.660  15.191   7.993  0.0909  0.0216 -0.0163
  899loPI   C3B13375  13.670  15.196   8.464  0.0220  0.0312 -0.1746
  899loPI   C4B13376  13.969  15.390   8.726 -0.1791 -0.1146  0.1831
  900loPI    C113377   5.198   2.589   5.647  0.0717 -0.1693  0.0078
  900loPI    C213378   5.213   2.967   5.516  0.0289 -0.1217  0.1387
  900loPI    C313379   5.103   2.673   5.267 -0.2179 -0.0095  0.1131
  900loPI   PO413380   5.342   2.655   5.864  0.0285  0.2554  0.0848
  900loPI   GL113381   5.348   2.986   6.185  0.2015  0.0566 -0.0817
  900loPI   GL213382   5.602   2.919   6.237  0.2925 -0.2478 -0.2468
  900loPI   C1A13383   5.166   2.972   6.574  0.2156  0.2317  0.1636
  900loPI   C2A13384   5.144   3.002   6.994 -0.1579  0.2518  0.0712
  900loPI   C3A13385   5.039   3.031   7.373  0.1849 -0.0950 -0.4412
  900loPI   C4A13386   5.089   3.070   7.774 -0.0410 -0.1287  0.4138
  900loPI   C5A13387   5.064   3.105   8.242  0.1312  0.4446 -0.1120
  900loPI   C6A13388   5.114   3.190   8.694 -0.0196 -0.1116  0.1779
  900loPI   C1B13389   5.586   3.132   6.666 -0.2347 -0.1587 -0.1399
  900loPI   C2B13390   5.612   3.180   7.119  0.0354 -0.2423 -0.1997
  900loPI   C3B13391   5.671   3.270   7.547 -0.0314 -0.2180 -0.1324
  900loPI   C4B13392   5.453   3.369   7.968 -0.0358 -0.1637 -0.1731
  901loPI    C113393  11.330   0.716   6.056 -0.0942 -0.2466 -0.1448
  901loPI    C213394  11.223   1.022   5.822  0.0722 -0.1068 -0.0408
  901loPI    C313395  11.531   0.788   5.717  0.0051 -0.1813 -0.0727
  901loPI   PO413396  11.350   0.812   6.271 -0.0914  0.1187  0.2081
  901loPI   GL113397  11.325   0.889   6.712 -0.0856 -0.1894 -0.0601
  901loPI   GL213398  11.207   0.620   6.676  0.0399  0.1470 -0.1287
  901loPI   C1A13399  11.137   0.879   7.151 -0.0499 -0.0789 -0.0823
  901loPI   C2A13400  11.284   0.884   7.537 -0.0803 -0.2752 -0.0517
  901loPI   C3A13401  11.229   1.066   7.984 -0.0757 -0.1716  0.0708
  901loPI   C4A13402  11.098   0.992   8.504 -0.1000  0.1174 -0.1956
  901loPI   C5A13403  10.809   1.160   8.930  0.0126  0.0096 -0.4081
  901loPI   C6A13404  10.682   1.549   9.103 -0.2399 -0.3768  0.1267
  901loPI   C1B13405  11.149   0.398   7.047  0.0608 -0.0548  0.1423
  901loPI   C2B13406  11.207   0.424   7.492  0.1423  0.0868 -0.0165
  901loPI   C3B13407  11.154   0.494   7.818  0.0628 -0.2253 -0.0984
  901loPI   C4B13408  11.061   0.578   8.182 -0.2261 -0.1287  0.3510
  902loPI    C113409   7.358  11.671   5.697 -0.3512  0.3607 -0.1310
  902loPI    C213410   7.160  11.460   5.420 -0.1290  0.0457 -0.0551
  902loPI    C313411   7.545  11.553   5.363 -0.0408 -0.1439  0.2060
  902loPI   PO413412   7.368  11.570   6.018  0.0945 -0.0649 -0.1138
  902loPI   GL113413   7.200  11.711   6.339 -0.0996  0.1210  0.3919
  902loPI   GL213414   7.012  11.528   6.405  0.4427  0.0368 -0.1820
  902loPI   C1A13415   7.440  11.852   6.703  0.2989 -0.0847 -0.0599
  902loPI   C2A13416   7.467  11.692   7.092 -0.1901  0.0800  0.0325
  902loPI   C3A13417   7.415  11.755   7.565 -0.1332 -0.1414 -0.2653
  902loPI   C4A13418   7.335  11.654   7.974 -0.0167 -0.0940  0.2224
  902loPI   C5A13419   7.592  11.470   8.213  0.0155  0.0856 -0.2821
  902loPI   C6A13420   7.627  11.087   8.331  0.1167 -0.1079  0.0245
  902loPI   C1B13421   6.999  11.563   6.792  0.0412 -0.1410 -0.1017
  902loPI   C2B13422   7.001  11.555   7.216  0.1565  0.4461 -0.1895
  902loPI   C3B13423   6.956  11.552   7.630  0.0526 -0.2398  0.1727
  902loPI   C4B13424   6.813  11.463   8.033 -0.2784  0.1217 -0.2366
  903loPI    C113425  15.892   4.553   5.850  0.0474  0.2075  0.0323
  903loPI    C213426  16.165   4.628   5.567  0.1525  0.0779  0.0982
  903loPI    C313427  15.965   4.281   5.565  0.2034  0.0474  0.2227
  903loPI   PO413428  15.927   4.635   6.083  0.1188  0.0229 -0.2088
  903loPI   GL113429  15.912   4.423   6.460  0.1635 -0.1576 -0.0366
  903loPI   GL213430  16.077   4.049   6.468 -0.1753 -0.0311  0.1415
  903loPI   C1A13431  15.948   4.309   6.861  0.1767 -0.1680  0.0147
  903loPI   C2A13432  15.895   4.265   7.302  0.2599  0.0357  0.1577
  903loPI   C3A13433  15.901   4.211   7.696 -0.1693  0.0847 -0.1495
  903loPI   C4A13434  15.905   4.274   8.198  0.3677 -0.0346  0.3378
  903loPI   C5A13435  15.769   4.263   8.642  0.1072 -0.3192 -0.4238
  903loPI   C6A13436  15.656   4.166   9.091  0.1405 -0.2171  0.0592
  903loPI   C1B13437  16.274   3.969   6.798 -0.0610 -0.1056  0.2187
  903loPI   C2B13438  16.217   3.886   7.190  0.0636  0.1122 -0.2759
  903loPI   C3B13439  16.321   3.883   7.609  0.0145 -0.0633  0.2170
  903loPI   C4B13440  16.313   4.008   8.019  0.2700  0.0030  0.1831
  904loPI    C113441   3.421   9.944   5.901 -0.1465  0.2497 -0.1310
  904loPI    C213442   3.587  10.282   6.034  0.1438  0.0726 -0.0354
  904loPI    C313443   3.761  10.076   5.738  0.0545 -0.0760  0.0145
  904loPI   PO413444   3.189   9.924   5.917  0.1497 -0.1048 -0.4274
  904loPI   GL113445   3.067  10.122   6.187 -0.1982  0.1564  0.1564
  904loPI   GL213446   2.734  10.247   6.262  0.0305  0.0043  0.1278
  904loPI   C1A13447   3.237   9.983   6.599 -0.0966  0.1375  0.1381
  904loPI   C2A13448   3.192   9.955   6.989 -0.2056 -0.1075 -0.0744
  904loPI   C3A13449   2.971   9.955   7.415 -0.2376 -0.0387  0.1738
  904loPI   C4A13450   2.968   9.973   7.815 -0.1621  0.1960  0.1262
  904loPI   C5A13451   2.863   9.952   8.259  0.0918 -0.1310 -0.3247
  904loPI   C6A13452   2.623  10.182   8.587  0.4205 -0.1804 -0.3266
  904loPI   C1B13453   2.829  10.285   6.693  0.0935  0.1838 -0.2786
  904loPI   C2B13454   2.712  10.292   7.116  0.2777  0.0006  0.0112
  904loPI   C3B13455   2.655  10.264   7.606  0.0593  0.2066 -0.0429
  904loPI   C4B13456   2.599  10.421   8.017  0.0815 -0.0417 -0.0166
  905loPI    C113457  15.535   6.837   5.904 -0.0164 -0.2621  0.0201
  905loPI    C213458  15.683   6.921   5.541 -0.0582  0.1260  0.0887
  905loPI    C313459  15.288   6.886   5.594 -0.0568  0.1417  0.1100
  905loPI   PO413460  15.772   6.944   6.066  0.1663 -0.0002  0.0119
  905loPI   GL113461  15.995   7.146   6.462  0.0407 -0.1813 -0.0035
  905loPI   GL213462  16.087   6.727   6.337 -0.0463  0.0607 -0.0580
  905loPI   C1A13463  16.024   7.017   6.844  0.0925 -0.0296 -0.2802
  905loPI   C2A13464  16.005   7.100   7.295 -0.1729  0.4478 -0.1600
  905loPI   C3A13465  15.919   7.124   7.719 -0.4063  0.0982  0.0885
  905loPI   C4A13466  15.887   7.239   8.121 -0.1058 -0.1264 -0.2041
  905loPI   C5A13467  15.857   6.860   8.338  0.4392  0.2119 -0.0283
  905loPI   C6A13468  16.058   6.722   8.760 -0.0683 -0.1312 -0.3282
  905loPI   C1B13469  15.913   6.552   6.705 -0.0310 -0.0043 -0.1745
  905loPI   C2B13470  15.876   6.593   7.134  0.0414  0.2182 -0.1777
  905loPI   C3B13471  15.829   6.638   7.574 -0.1865 -0.0227  0.0202
  905loPI   C4B13472  15.787   6.632   7.903  0.0910 -0.1293 -0.2139
  906loPI    C113473   7.689  13.400   5.865  0.0579  0.0388 -0.0453
  906loPI    C213474   7.396  13.473   5.603  0.0325  0.0492 -0.0140
  906loPI    C313475   7.777  13.459   5.480  0.0096 -0.0668 -0.0728
  906loPI   PO413476   7.579  13.220   5.989  0.2881 -0.1601  0.0068
  906loPI   GL113477   7.424  13.271   6.338  0.1242 -0.2690 -0.1873
  906loPI   GL213478   7.180  13.052   6.314  0.3387  0.1326  0.3373
  906loPI   C1A13479   7.782  13.324   6.700  0.5773  0.1163  0.0810
  906loPI   C2A13480   7.740  13.325   7.051  0.1499 -0.0659 -0.0172
  906loPI   C3A13481   7.738  13.295   7.426 -0.0217 -0.1447 -0.1131
  906loPI   C4A13482   7.711  13.216   7.818  0.0068  0.0119  0.2148
  906loPI   C5A13483   7.575  13.330   8.207 -0.0242  0.1134  0.2321
  906loPI   C6A13484   7.247  13.579   8.368  0.3927 -0.0687 -0.0143
  906loPI   C1B13485   7.267  13.120   6.765 -0.0459 -0.0125 -0.0762
  906loPI   C2B13486   7.248  13.080   7.153 -0.0122  0.0232 -0.0344
  906loPI   C3B13487   7.198  13.148   7.702  0.1906 -0.1455 -0.1273
  906loPI   C4B13488   7.293  12.972   8.034  0.3606  0.0236 -0.0576
  907loPI    C113489   4.060   4.074   5.942 -0.2107 -0.0960 -0.1033
  907loPI    C213490   4.227   4.350   5.705 -0.0225 -0.0806  0.0441
  907loPI    C313491   3.849   4.234   5.643 -0.0830  0.1647 -0.0569
  907loPI   PO413492   4.042   4.050   6.227  0.1865  0.0459  0.1749
  907loPI   GL113493   4.134   4.165   6.648 -0.1050  0.0000 -0.0134
  907loPI   GL213494   3.916   4.377   6.540  0.1442  0.1255 -0.1767
  907loPI   C1A13495   4.415   4.200   7.027  0.1931  0.3665 -0.2675
  907loPI   C2A13496   4.395   4.276   7.566  0.0513  0.0133  0.0500
  907loPI   C3A13497   4.321   4.206   7.969  0.0423 -0.0641 -0.4077
  907loPI   C4A13498   4.385   4.177   8.382  0.1803  0.0738  0.3385
  907loPI   C5A13499   4.083   4.215   8.645  0.1048 -0.1059  0.0511
  907loPI   C6A13500   3.747   4.592   8.690 -0.0793  0.2644 -0.1420
  907loPI   C1B13501   3.926   4.461   6.941  0.0543 -0.2683  0.0402
  907loPI   C2B13502   3.864   4.480   7.361  0.1767  0.1474  0.2113
  907loPI   C3B13503   3.959   4.456   7.738 -0.1086 -0.0603  0.1622
  907loPI   C4B13504   3.922   4.433   8.144  0.0184 -0.1555 -0.1439
  908loPI    C113505   3.543  11.312   5.700  0.2917 -0.1352 -0.1682
  908loPI    C213506   3.263  11.479   5.469  0.1938  0.1512  0.1495
  908loPI    C313507   3.622  11.392   5.316  0.0419  0.0821 -0.1771
  908loPI   PO413508   3.497  11.461   5.977 -0.3924 -0.1341  0.2507
  908loPI   GL113509   3.666  11.376   6.301 -0.1156  0.0029 -0.3094
  908loPI   GL213510   3.797  11.048   6.172 -0.1360  0.0005  0.0575
  908loPI   C1A13511   3.830  11.259   6.729 -0.1169 -0.2192 -0.0837
  908loPI   C2A13512   3.712  11.140   7.043  0.0490 -0.0863  0.5680
  908loPI   C3A13513   3.647  11.151   7.480  0.0461  0.4930 -0.2669
  908loPI   C4A13514   3.613  11.087   7.918  0.1692 -0.2528 -0.0987
  908loPI   C5A13515   3.547  11.368   8.192 -0.1213 -0.2400 -0.0588
  908loPI   C6A13516   3.807  11.686   8.330  0.0574 -0.2496  0.1731
  908loPI   C1B13517   3.533  10.958   6.516  0.0648  0.0363 -0.1929
  908loPI   C2B13518   3.640  10.660   6.833 -0.1172 -0.1000  0.1914
  908loPI   C3B13519   3.563  10.554   7.260  0.0912 -0.0312 -0.2232
  908loPI   C4B13520   3.587  10.633   7.651  0.1367  0.1465 -0.1228
  909loPI    C113521  10.629   8.197   5.779  0.0112 -0.0460 -0.0516
  909loPI    C213522  10.792   8.251   5.418  0.0147  0.0414 -0.0371
  909loPI    C313523  10.463   8.454   5.521  0.0835  0.1077  0.0537
  909loPI   PO413524  10.889   8.214   5.942 -0.3218 -0.3855 -0.3338
  909loPI   GL113525  10.985   8.350   6.338  0.1475 -0.2090  0.1769
  909loPI   GL213526  10.768   8.590   6.455 -0.0093 -0.2184  0.0858
  909loPI   C1A13527  11.076   8.316   6.817 -0.3090 -0.5608  0.2861
  909loPI   C2A13528  11.035   8.298   7.170  0.1358  0.1542 -0.2851
  909loPI   C3A13529  11.064   8.327   7.624  0.0161 -0.0662 -0.2994
  909loPI   C4A13530  10.922   8.234   8.037 -0.0064  0.1300  0.1433
  909loPI   C5A13531  10.930   8.397   8.517 -0.0159  0.0407  0.3304
  909loPI   C6A13532  10.860   8.236   8.945 -0.3545 -0.1007  0.1288
  909loPI   C1B13533  10.676   8.706   6.939 -0.2944  0.1836  0.0723
  909loPI   C2B13534  10.560   8.588   7.325 -0.0656 -0.1186 -0.2947
  909loPI   C3B13535  10.593   8.512   7.729  0.2786 -0.0396 -0.0722
  909loPI   C4B13536  10.586   8.747   8.201 -0.2244 -0.1825  0.0425
  910loPI    C113537   5.044   4.616   5.791  0.0150  0.0749  0.0835
  910loPI    C213538   4.831   4.806   5.510  0.1033  0.0436 -0.0055
  910loPI    C313539   4.730   4.435   5.621 -0.1187  0.1707  0.2270
  910loPI   PO413540   5.109   4.744   5.913  0.0540 -0.0887  0.4774
  910loPI   GL113541   5.010   4.695   6.409 -0.3241 -0.1939  0.2616
  910loPI   GL213542   5.292   4.814   6.347 -0.1436  0.2924  0.3922
  910loPI   C1A13543   5.076   4.872   6.811 -0.2187  0.0173 -0.0841
  910loPI   C2A13544   5.113   4.929   7.215  0.0363  0.4020 -0.0832
  910loPI   C3A13545   4.926   4.927   7.706 -0.2774  0.4824 -0.2107
  910loPI   C4A13546   4.875   4.946   8.175  0.0257 -0.0083 -0.1782
  910loPI   C5A13547   4.878   4.723   8.496 -0.1619 -0.0465  0.1261
  910loPI   C6A13548   5.073   4.728   8.849 -0.1380  0.1120  0.2477
  910loPI   C1B13549   5.515   5.046   6.649  0.2310 -0.0140  0.1988
  910loPI   C2B13550   5.553   5.115   7.119 -0.0834  0.0888 -0.1561
  910loPI   C3B13551   5.418   5.141   7.560  0.1555  0.2406 -0.1504
  910loPI   C4B13552   5.402   5.163   8.025  0.2366 -0.0523  0.1362
  911loPI    C113553   9.347  15.457   5.859  0.0683 -0.0712 -0.0632
  911loPI    C213554   9.188  15.183   5.615 -0.1032 -0.0230 -0.0071
  911loPI    C313555   9.270  15.550   5.478 -0.0092 -0.0577 -0.0445
  911loPI   PO413556   9.193  15.442   6.118 -0.0737  0.1117 -0.3426
  911loPI   GL113557   9.218  15.174   6.457 -0.3363  0.2389  0.2737
  911loPI   GL213558   8.937  15.302   6.573 -0.3484 -0.1277 -0.1400
  911loPI   C1A13559   9.234  14.994   6.829 -0.1393  0.1515 -0.0704
  911loPI   C2A13560   9.267  14.907   7.366 -0.1157 -0.0526 -0.0670
  911loPI   C3A13561   9.128  14.885   7.834  0.0792 -0.1292  0.2779
  911loPI   C4A13562   9.054  14.981   8.240 -0.1765  0.2213 -0.1936
  911loPI   C5A13563   9.027  15.165   8.586  0.0269 -0.1321  0.1132
  911loPI   C6A13564   8.793  15.581   8.652 -0.0450 -0.4737  0.1622
  911loPI   C1B13565   8.807  15.304   7.008 -0.2789 -0.0229 -0.2463
  911loPI   C2B13566   8.904  15.247   7.426 -0.3121  0.1718  0.0266
  911loPI   C3B13567   8.782  15.306   7.817  0.1098  0.1966  0.0190
  911loPI   C4B13568   8.587  15.313   8.289 -0.1200 -0.0842  0.2343
  912loPI    C113569  14.431   9.800   6.004 -0.1081  0.2049  0.1697
  912loPI    C213570  14.160  10.035   5.825 -0.0336  0.1186 -0.0589
  912loPI    C313571  14.289   9.702   5.643 -0.0007 -0.0028  0.1825
  912loPI   PO413572  14.569   9.978   6.202 -0.2575 -0.0460 -0.1893
  912loPI   GL113573  14.780   9.988   6.627 -0.0345  0.0774 -0.2078
  912loPI   GL213574  14.608  10.128   6.784 -0.0940 -0.1785 -0.1971
  912loPI   C1A13575  15.033   9.717   6.986 -0.1388  0.3175  0.3486
  912loPI   C2A13576  14.984   9.706   7.419  0.0279 -0.3231  0.0267
  912loPI   C3A13577  14.968   9.724   7.867  0.0996 -0.1728 -0.1336
  912loPI   C4A13578  14.989   9.783   8.309 -0.0688  0.0959  0.2748
  912loPI   C5A13579  14.684   9.675   8.665 -0.1431 -0.0417  0.4136
  912loPI   C6A13580  14.535   9.928   8.997 -0.0120 -0.0519  0.1321
  912loPI   C1B13581  14.603  10.053   7.202  0.1257 -0.0293 -0.1532
  912loPI   C2B13582  14.537  10.059   7.681 -0.1049 -0.3909 -0.2463
  912loPI   C3B13583  14.621  10.028   8.112  0.2751  0.1097  0.1121
  912loPI   C4B13584  14.398  10.040   8.542  0.0616 -0.2309 -0.0985
  913loPI    C113585   9.299   0.312   5.846 -0.1702 -0.0818  0.1010
  913loPI    C213586   9.214   0.700   5.792 -0.0192 -0.0538  0.0580
  913loPI    C313587   9.304   0.469   5.478 -0.1925 -0.1447  0.0738
  913loPI   PO413588   9.454   0.186   6.023 -0.2786 -0.2396  0.0460
  913loPI   GL113589   9.593   0.278   6.362  0.0554  0.0467 -0.1429
  913loPI   GL213590   9.691   0.502   6.635  0.0969 -0.0491  0.0034
  913loPI   C1A13591   9.581  -0.008   6.755 -0.1335 -0.2264 -0.2940
  913loPI   C2A13592   9.545  -0.051   7.234  0.1708 -0.2093  0.0463
  913loPI   C3A13593   9.542  -0.019   7.660  0.1687 -0.2096  0.1255
  913loPI   C4A13594   9.649  -0.135   8.012 -0.0148 -0.0786  0.0909
  913loPI   C5A13595   9.858  -0.064   8.350  0.0636 -0.1816 -0.3178
  913loPI   C6A13596   9.984  -0.120   8.726  0.4895 -0.1010  0.1058
  913loPI   C1B13597   9.594   0.430   7.132 -0.0131  0.4179  0.6393
  913loPI   C2B13598   9.728   0.415   7.484  0.0224  0.0919 -0.0177
  913loPI   C3B13599   9.730   0.402   7.978  0.1382  0.2404  0.0738
  913loPI   C4B13600   9.888   0.495   8.394 -0.2809  0.4573  0.1875
  914loPI    C113601   1.667   2.298   5.683 -0.1907 -0.0254 -0.2063
  914loPI    C213602   1.919   2.487   5.437 -0.0564  0.0322 -0.0266
  914loPI    C313603   1.554   2.385   5.309 -0.0669  0.2546 -0.1809
  914loPI   PO413604   1.522   2.399   5.900 -0.0423  0.1630 -0.3711
  914loPI   GL113605   1.593   2.362   6.320  0.0477  0.4109 -0.0469
  914loPI   GL213606   1.278   2.502   6.455  0.0180  0.1674 -0.0854
  914loPI   C1A13607   1.637   2.121   6.665  0.0196  0.1570  0.0242
  914loPI   C2A13608   1.668   2.158   7.091  0.1808  0.1134 -0.1341
  914loPI   C3A13609   1.814   2.200   7.582  0.0940 -0.0484 -0.0992
  914loPI   C4A13610   1.866   2.236   8.011  0.1405 -0.1027 -0.1042
  914loPI   C5A13611   2.296   2.370   8.244 -0.0797  0.0711 -0.1426
  914loPI   C6A13612   2.524   2.263   8.571 -0.0008  0.0710  0.1802
  914loPI   C1B13613   1.267   2.405   6.846  0.0260  0.0871 -0.5415
  914loPI   C2B13614   1.357   2.495   7.315 -0.0635 -0.2014 -0.1158
  914loPI   C3B13615   1.321   2.463   7.764 -0.2176  0.2878  0.0045
  914loPI   C4B13616   1.406   2.348   8.266  0.0007  0.0014  0.0068
  915loPI    C113617  16.726   7.387   5.672 -0.0805  0.3666 -0.0228
  915loPI    C213618  16.738   7.169   5.337  0.0333  0.3544 -0.0111
  915loPI    C313619  16.435   7.423   5.399 -0.2393  0.0105  0.0947
  915loPI   PO413620  16.778   7.327   5.816 -0.3757 -0.3106 -0.0382
  915loPI   GL113621  16.746   7.541   6.256  0.2522  0.1048 -0.0249
  915loPI   GL213622  17.099   7.509   6.359 -0.0226  0.0112 -0.0462
  915loPI   C1A13623  16.707   7.841   6.562 -0.1485  0.2145  0.2666
  915loPI   C2A13624  16.583   7.902   6.915 -0.0672 -0.0010  0.0941
  915loPI   C3A13625  16.504   7.805   7.367 -0.0414 -0.2604 -0.0828
  915loPI   C4A13626  16.468   7.803   7.887 -0.2158  0.1677  0.0370
  915loPI   C5A13627  16.262   7.713   8.293  0.2658 -0.2713  0.0238
  915loPI   C6A13628  16.107   7.625   8.744  0.1728  0.0268  0.0583
  915loPI   C1B13629  17.046   7.551   6.855 -0.0554  0.0295  0.3982
  915loPI   C2B13630  16.912   7.585   7.211 -0.0638 -0.0246  0.0368
  915loPI   C3B13631  16.953   7.532   7.623  0.2201 -0.0005 -0.0719
  915loPI   C4B13632  16.866   7.532   8.046 -0.0549 -0.3217  0.2488
  916loPI    C113633  14.479   8.466   5.985 -0.0727 -0.1255  0.0174
  916loPI    C213634  14.694   8.343   5.670 -0.1082 -0.2158  0.0281
  916loPI    C313635  14.608   8.732   5.715 -0.0144 -0.1895 -0.0181
  916loPI   PO413636  14.568   8.367   6.149  0.3474 -0.0548  0.0854
  916loPI   GL113637  14.475   8.526   6.551  0.1745 -0.3007  0.3604
  916loPI   GL213638  14.272   8.133   6.720  0.0861  0.1748  0.3367
  916loPI   C1A13639  14.387   8.528   6.963 -0.0618  0.2681  0.1719
  916loPI   C2A13640  14.212   8.505   7.394 -0.2162  0.0305  0.1073
  916loPI   C3A13641  14.310   8.496   7.848  0.2402  0.1969  0.0627
  916loPI   C4A13642  14.148   8.423   8.206  0.1237 -0.0175  0.0882
  916loPI   C5A13643  14.169   8.476   8.605  0.2973 -0.3940 -0.0398
  916loPI   C6A13644  14.352   8.246   8.905  0.2368 -0.0037  0.1659
  916loPI   C1B13645  14.175   8.126   7.126  0.0476 -0.1095  0.1225
  916loPI   C2B13646  14.208   8.005   7.474  0.3697 -0.3049 -0.1188
  916loPI   C3B13647  14.128   7.975   7.942  0.1304 -0.0378  0.1774
  916loPI   C4B13648  14.096   7.859   8.325 -0.2965  0.1256 -0.0563
  917loPI    C113649   4.240   8.116   5.896 -0.0578 -0.2620  0.0993
  917loPI    C213650   4.029   8.077   5.559 -0.0696  0.0199  0.0718
  917loPI    C313651   4.427   8.115   5.543 -0.0664 -0.0047  0.0921
  917loPI   PO413652   3.954   8.065   6.077  0.0554 -0.0443 -0.0112
  917loPI   GL113653   3.654   8.379   6.252 -0.0169  0.2462 -0.1222
  917loPI   GL213654   3.392   8.623   6.289 -0.4442 -0.2355 -0.1750
  917loPI   C1A13655   3.784   8.180   6.673  0.1459 -0.1279  0.0122
  917loPI   C2A13656   3.760   8.257   7.039  0.1957 -0.1838  0.2179
  917loPI   C3A13657   3.588   8.291   7.448 -0.1859  0.1501 -0.0750
  917loPI   C4A13658   3.680   8.328   7.924 -0.0200  0.0041  0.1453
  917loPI   C5A13659   3.550   8.456   8.407  0.3465  0.0579  0.1778
  917loPI   C6A13660   3.662   8.577   8.849 -0.2344  0.3497 -0.1645
  917loPI   C1B13661   3.423   8.575   6.677 -0.0253 -0.1699 -0.2201
  917loPI   C2B13662   3.279   8.573   7.165 -0.0567 -0.1525 -0.0007
  917loPI   C3B13663   3.258   8.693   7.572  0.0142 -0.3004  0.1715
  917loPI   C4B13664   3.207   8.603   8.011  0.1351 -0.2886  0.0122
  918loPI    C113665  13.451  12.332   5.911 -0.0772  0.1217  0.0504
  918loPI    C213666  13.354  12.720   5.926 -0.0297  0.1343  0.0343
  918loPI    C313667  13.720  12.610   5.809 -0.0914  0.0778 -0.1079
  918loPI   PO413668  13.287  12.300   6.185  0.1318  0.1063 -0.1597
  918loPI   GL113669  13.315  12.029   6.490  0.0239  0.2433  0.2523
  918loPI   GL213670  13.076  11.850   6.328 -0.2606  0.0724  0.0410
  918loPI   C1A13671  13.371  12.115   6.950 -0.0394  0.3554  0.2419
  918loPI   C2A13672  13.496  12.101   7.354 -0.2422 -0.0463  0.0690
  918loPI   C3A13673  13.494  12.043   7.793  0.0202  0.0945 -0.1125
  918loPI   C4A13674  13.553  12.114   8.139 -0.0256  0.0963  0.0784
  918loPI   C5A13675  13.630  12.074   8.530 -0.0607  0.0189  0.1672
  918loPI   C6A13676  13.488  11.915   8.839 -0.1931 -0.1919 -0.2249
  918loPI   C1B13677  12.990  11.792   6.757  0.1902  0.0183 -0.4110
  918loPI   C2B13678  12.996  11.904   7.131  0.1462 -0.1278 -0.3102
  918loPI   C3B13679  12.929  11.948   7.572 -0.0421 -0.3646  0.2113
  918loPI   C4B13680  13.068  11.891   7.924 -0.0999  0.2597 -0.4121
  919loPI    C113681   8.576   2.636   5.561 -0.2496 -0.0889 -0.2048
  919loPI    C213682   8.962   2.714   5.487 -0.2663  0.1220 -0.0791
  919loPI    C313683   8.843   2.339   5.559 -0.0745  0.0645 -0.0585
  919loPI   PO413684   8.553   2.818   5.726 -0.1182  0.1139 -0.2131
  919loPI   GL113685   8.409   2.749   6.066  0.0849 -0.4022 -0.2610
  919loPI   GL213686   8.592   3.009   6.234  0.0606  0.1633  0.0251
  919loPI   C1A13687   8.191   2.867   6.493 -0.0087 -0.0495 -0.1087
  919loPI   C2A13688   8.277   2.833   6.981 -0.1904  0.0567  0.3558
  919loPI   C3A13689   8.246   2.729   7.316 -0.1469  0.1517  0.1811
  919loPI   C4A13690   8.238   2.837   7.758  0.3109  0.0981  0.1141
  919loPI   C5A13691   8.269   2.768   8.124  0.1113 -0.1481 -0.2110
  919loPI   C6A13692   8.134   2.913   8.477  0.1901  0.0535  0.1165
  919loPI   C1B13693   8.745   3.008   6.667 -0.1318  0.0043 -0.3032
  919loPI   C2B13694   8.749   2.993   7.084  0.1222  0.0784  0.0142
  919loPI   C3B13695   8.772   2.988   7.506  0.1807  0.1424  0.2043
  919loPI   C4B13696   8.783   3.069   8.000  0.5784  0.2394  0.0371
  920loPI    C113697  13.550   9.975   5.758  0.1853  0.3060  0.0311
  920loPI    C213698  13.836   9.938   5.481  0.2160  0.2255  0.0731
  920loPI    C313699  13.580   9.638   5.545  0.2839  0.1970  0.2147
  920loPI   PO413700  13.691   9.971   6.012 -0.0493  0.0879  0.1063
  920loPI   GL113701  13.731   9.857   6.456 -0.2747 -0.1812 -0.0777
  920loPI   GL213702  14.044   9.840   6.413 -0.1501 -0.3910  0.0395
  920loPI   C1A13703  13.602   9.707   6.801  0.0853  0.1985  0.0514
  920loPI   C2A13704  13.572   9.605   7.189  0.1213 -0.1363  0.3026
  920loPI   C3A13705  13.555   9.574   7.627 -0.1728 -0.1361 -0.0047
  920loPI   C4A13706  13.557   9.506   8.068  0.0048 -0.0885  0.0868
  920loPI   C5A13707  13.124   9.575   8.362 -0.4272 -0.1051 -0.0220
  920loPI   C6A13708  13.086   9.548   8.824  0.1186 -0.1969 -0.3687
  920loPI   C1B13709  14.098   9.832   6.808  0.0527 -0.2337  0.2704
  920loPI   C2B13710  14.100   9.768   7.308  0.1487 -0.0244 -0.2356
  920loPI   C3B13711  14.074   9.832   7.817 -0.0473 -0.1335  0.2379
  920loPI   C4B13712  13.959   9.751   8.299  0.3304 -0.2146 -0.2544
  921loPI    C113713  13.427   7.581   5.754 -0.0528  0.1167  0.0385
  921loPI    C213714  13.722   7.645   5.492 -0.1333  0.2626 -0.0178
  921loPI    C313715  13.423   7.395   5.400  0.0329  0.0216  0.0872
  921loPI   PO413716  13.503   7.653   5.978 -0.1539 -0.1696 -0.0813
  921loPI   GL113717  13.693   7.690   6.391 -0.2108 -0.1379 -0.0856
  921loPI   GL213718  13.620   7.989   6.474  0.1872 -0.0258  0.3851
  921loPI   C1A13719  13.344   7.647   6.727  0.0010  0.1853  0.2942
  921loPI   C2A13720  13.287   7.652   7.143  0.4476  0.1418 -0.0084
  921loPI   C3A13721  13.297   7.690   7.520  0.1600  0.2725 -0.4192
  921loPI   C4A13722  13.145   7.575   7.872  0.0643 -0.0757 -0.1025
  921loPI   C5A13723  13.014   7.473   8.293 -0.0905  0.2263  0.0188
  921loPI   C6A13724  12.756   7.468   8.626 -0.1247  0.0118  0.3800
  921loPI   C1B13725  13.773   7.818   6.888  0.2680 -0.0454 -0.2801
  921loPI   C2B13726  13.777   7.853   7.353  0.2639  0.1549  0.0865
  921loPI   C3B13727  13.700   7.811   7.814 -0.0619 -0.1251  0.0850
  921loPI   C4B13728  13.536   7.756   8.237 -0.2304 -0.0334  0.0459
  922loPI    C113729   6.404   7.505   5.551 -0.0940  0.0555  0.0077
  922loPI    C213730   6.650   7.195   5.499  0.2319  0.2826  0.1591
  922loPI    C313731   6.665   7.506   5.248 -0.1042  0.1749 -0.0011
  922loPI   PO413732   6.407   7.519   5.888  0.1070 -0.2021 -0.2424
  922loPI   GL113733   6.031   7.478   6.249 -0.0896  0.0204  0.3142
  922loPI   GL213734   6.303   7.344   6.328  0.1432  0.1055  0.1790
  922loPI   C1A13735   5.884   7.176   6.523 -0.0511 -0.0784  0.0698
  922loPI   C2A13736   5.866   7.128   6.895  0.0283 -0.1015 -0.0075
  922loPI   C3A13737   5.861   7.151   7.383 -0.1125 -0.4079 -0.1513
  922loPI   C4A13738   5.749   7.079   7.812  0.4668  0.2743  0.2140
  922loPI   C5A13739   5.692   7.088   8.224  0.4352  0.1062  0.2284
  922loPI   C6A13740   5.478   7.056   8.613 -0.2336  0.0689  0.1241
  922loPI   C1B13741   6.414   7.228   6.747 -0.2045  0.0260  0.0391
  922loPI   C2B13742   6.348   7.266   7.244 -0.1629 -0.2063 -0.1588
  922loPI   C3B13743   6.267   7.288   7.687 -0.2611 -0.2486 -0.1384
  922loPI   C4B13744   6.201   7.326   8.090 -0.0826  0.1422  0.2597
  923loPI    C113745  10.031  14.856   5.788 -0.2133  0.0710 -0.0840
  923loPI    C213746  10.244  14.517   5.779 -0.1572  0.0933  0.2729
  923loPI    C313747  10.366  14.835   5.570 -0.2199 -0.1083 -0.0785
  923loPI   PO413748   9.888  14.845   5.953  0.3689  0.0757 -0.1075
  923loPI   GL113749   9.763  14.904   6.344 -0.4318 -0.0655  0.0177
  923loPI   GL213750   9.522  14.671   6.386 -0.1887  0.2641 -0.4933
  923loPI   C1A13751   9.798  14.975   6.749  0.1190 -0.2796 -0.0719
  923loPI   C2A13752   9.750  15.058   7.171 -0.0338  0.0931  0.0375
  923loPI   C3A13753   9.694  15.113   7.609 -0.0063 -0.0269  0.2265
  923loPI   C4A13754   9.656  15.099   8.039  0.0088 -0.0997  0.0434
  923loPI   C5A13755   9.524  15.173   8.478  0.2594 -0.3275  0.3890
  923loPI   C6A13756   9.513  15.418   8.869  0.1643 -0.0534  0.0954
  923loPI   C1B13757   9.684  14.506   6.706  0.0613 -0.0983 -0.3040
  923loPI   C2B13758   9.682  14.537   7.170  0.2003 -0.2623  0.2333
  923loPI   C3B13759   9.677  14.556   7.573 -0.0695  0.1087 -0.0712
  923loPI   C4B13760   9.582  14.608   7.933 -0.2856 -0.0575  0.1459
  924loPI    C113761   7.952  16.613   5.767 -0.2432  0.0786  0.0742
  924loPI    C213762   8.222  16.808   5.544  0.1574 -0.1521  0.3452
  924loPI    C313763   7.967  16.552   5.372 -0.0960  0.2888  0.0453
  924loPI   PO413764   8.045  16.555   6.032  0.2459  0.1029  0.3427
  924loPI   GL113765   8.129  16.602   6.399  0.0568 -0.0619 -0.2037
  924loPI   GL213766   8.203  16.987   6.544  0.0724 -0.0061  0.1877
  924loPI   C1A13767   8.113  16.540   6.834  0.2066 -0.2925 -0.0324
  924loPI   C2A13768   8.111  16.377   7.323 -0.0754  0.0292  0.2137
  924loPI   C3A13769   8.041  16.355   7.788 -0.4178 -0.3088  0.0834
  924loPI   C4A13770   8.000  16.444   8.095  0.1764 -0.2669  0.0847
  924loPI   C5A13771   8.114  16.547   8.483 -0.0139  0.0483 -0.1729
  924loPI   C6A13772   8.224  16.732   8.828 -0.1308 -0.2684 -0.0892
  924loPI   C1B13773   8.213  17.015   7.018  0.0746  0.0534 -0.0292
  924loPI   C2B13774   8.175  16.944   7.509  0.2641 -0.0588 -0.3363
  924loPI   C3B13775   8.213  16.931   7.968 -0.0653  0.0453 -0.1047
  924loPI   C4B13776   8.111  17.012   8.286 -0.0140  0.0076 -0.2161
  925loPI    C113777  14.174  11.676   6.296 -0.0090  0.2167 -0.1925
  925loPI    C213778  14.286  11.978   6.058  0.2546  0.0901 -0.2335
  925loPI    C313779  14.520  11.866   6.362  0.0493  0.0730 -0.0789
  925loPI   PO413780  13.946  11.726   6.397  0.0309  0.0218 -0.0546
  925loPI   GL113781  13.830  11.868   6.814 -0.0224  0.4673  0.3061
  925loPI   GL213782  14.160  11.825   6.839 -0.2744 -0.2409 -0.0013
  925loPI   C1A13783  13.823  11.804   7.175  0.1147 -0.3062 -0.1188
  925loPI   C2A13784  13.881  11.766   7.584  0.0513 -0.0460  0.0461
  925loPI   C3A13785  13.873  11.771   8.058 -0.0208 -0.2363 -0.1838
  925loPI   C4A13786  13.983  11.544   8.417 -0.0545  0.0530 -0.4126
  925loPI   C5A13787  13.897  11.638   8.803 -0.3209 -0.3660  0.0759
  925loPI   C6A13788  13.859  11.781   9.176 -0.3219  0.2091 -0.0086
  925loPI   C1B13789  14.300  11.866   7.279  0.0595  0.1130 -0.0059
  925loPI   C2B13790  14.372  11.934   7.729 -0.4056 -0.1709 -0.0089
  925loPI   C3B13791  14.404  11.824   8.186 -0.2365 -0.1243 -0.2449
  925loPI   C4B13792  14.283  11.865   8.601 -0.1011  0.0732 -0.1269
  926loPI    C113793   5.917  16.809   5.804  0.0352  0.0865 -0.2106
  926loPI    C213794   5.550  16.743   5.658 -0.0567 -0.3826  0.2044
  926loPI    C313795   5.860  16.527   5.526  0.0425 -0.1151 -0.0107
  926loPI   PO413796   5.831  16.875   6.073 -0.0543  0.2655  0.1390
  926loPI   GL113797   5.627  16.673   6.424 -0.2576 -0.2179  0.1017
  926loPI   GL213798   6.005  16.915   6.541  0.2346  0.2785 -0.1589
  926loPI   C1A13799   5.347  16.810   6.754  0.3532  0.2177  0.0901
  926loPI   C2A13800   5.428  16.884   7.199 -0.2293 -0.0279  0.0433
  926loPI   C3A13801   5.448  16.820   7.655  0.3779  0.4243  0.0395
  926loPI   C4A13802   5.407  16.778   8.070 -0.2045  0.3493 -0.2054
  926loPI   C5A13803   5.424  16.946   8.557 -0.3329  0.1620 -0.1258
  926loPI   C6A13804   5.265  17.047   8.908 -0.0017  0.2061 -0.1903
  926loPI   C1B13805   5.919  17.076   6.913  0.2920  0.1759  0.0209
  926loPI   C2B13806   5.926  17.029   7.344  0.1849  0.0575  0.2611
  926loPI   C3B13807   5.934  17.018   7.762  0.1339  0.4109 -0.4222
  926loPI   C4B13808   5.840  16.989   8.212 -0.3673  0.3111 -0.0529
  927loPI    C113809   3.128  11.971   5.591  0.1221 -0.2720 -0.0318
  927loPI    C213810   3.414  11.925   5.315  0.2499  0.1493  0.0233
  927loPI    C313811   3.085  12.136   5.229  0.2853  0.2736  0.1867
  927loPI   PO413812   3.271  11.904   5.850  0.0504 -0.1759 -0.4421
  927loPI   GL113813   3.409  12.108   6.288 -0.1370 -0.0367  0.1870
  927loPI   GL213814   3.706  11.859   6.186  0.0180 -0.2146 -0.0831
  927loPI   C1A13815   3.278  12.013   6.762  0.1463 -0.2929  0.1735
  927loPI   C2A13816   3.304  12.008   7.200 -0.3019 -0.1453  0.2206
  927loPI   C3A13817   3.367  12.031   7.679  0.4167  0.1657  0.1783
  927loPI   C4A13818   3.342  11.949   8.119 -0.2126  0.0030  0.1363
  927loPI   C5A13819   3.299  11.695   8.538 -0.0439 -0.0990 -0.2787
  927loPI   C6A13820   2.983  11.615   8.873  0.1048  0.0540 -0.0922
  927loPI   C1B13821   3.716  11.872   6.613  0.2074  0.1869 -0.0296
  927loPI   C2B13822   3.776  11.833   7.044 -0.0437  0.2633 -0.1126
  927loPI   C3B13823   3.686  11.708   7.443  0.3618 -0.0469  0.1303
  927loPI   C4B13824   3.772  11.613   7.764  0.0475  0.1217  0.0149
  928loPI    C113825   1.322  12.664   6.042  0.0121 -0.0963  0.0714
  928loPI    C213826   1.332  12.568   5.654  0.0267 -0.3412  0.1310
  928loPI    C313827   1.055  12.823   5.790  0.0179 -0.2595 -0.0385
  928loPI   PO413828   1.393  12.433   6.134 -0.1474  0.0336 -0.2385
  928loPI   GL113829   1.753  12.251   6.338  0.0601 -0.4387  0.0242
  928loPI   GL213830   2.033  12.162   6.484  0.0655 -0.2032  0.0525
  928loPI   C1A13831   1.532  12.272   6.743 -0.1553  0.3100 -0.3639
  928loPI   C2A13832   1.637  12.338   7.204 -0.0164  0.0036  0.0604
  928loPI   C3A13833   1.492  12.526   7.565 -0.1188  0.0260  0.0755
  928loPI   C4A13834   1.143  12.640   7.891 -0.0773 -0.3840  0.0580
  928loPI   C5A13835   1.008  13.070   7.919 -0.2255  0.0599  0.1288
  928loPI   C6A13836   0.723  13.215   8.205 -0.0818  0.3749  0.0504
  928loPI   C1B13837   1.971  12.130   6.916  0.2144  0.1052 -0.1028
  928loPI   C2B13838   1.939  12.006   7.328 -0.1155 -0.2375 -0.0689
  928loPI   C3B13839   1.805  12.078   7.704 -0.0484 -0.1876 -0.0638
  928loPI   C4B13840   2.101  12.011   7.960  0.0842  0.1085 -0.2251
  929loPI    C113841   3.187   7.775   5.669 -0.1354  0.0029  0.0792
  929loPI    C213842   2.955   8.101   5.677 -0.2708 -0.0923  0.0684
  929loPI    C313843   3.132   7.989   5.336 -0.0568  0.0856  0.1191
  929loPI   PO413844   3.191   7.675   5.942  0.2301  0.0551  0.3393
  929loPI   GL113845   3.257   7.359   6.183  0.0163  0.1802  0.0277
  929loPI   GL213846   2.890   7.311   6.312  0.0849  0.3155  0.2139
  929loPI   C1A13847   3.212   7.542   6.622 -0.1143 -0.1169 -0.0161
  929loPI   C2A13848   3.155   7.536   7.051  0.0957  0.2373  0.1120
  929loPI   C3A13849   3.044   7.636   7.485  0.0602  0.1888  0.2286
  929loPI   C4A13850   2.998   7.615   7.945  0.1976 -0.2986  0.1816
  929loPI   C5A13851   2.844   7.599   8.366  0.0939 -0.2227 -0.0064
  929loPI   C6A13852   2.423   7.535   8.532  0.1857 -0.0248 -0.2213
  929loPI   C1B13853   2.705   7.345   6.668 -0.2856 -0.3105  0.1812
  929loPI   C2B13854   2.685   7.434   7.088  0.1247 -0.1051  0.1355
  929loPI   C3B13855   2.608   7.348   7.402 -0.0845 -0.1859 -0.2306
  929loPI   C4B13856   2.460   7.432   7.840  0.0757  0.0131  0.1177
  930loPI    C113857  10.847   9.386   5.536  0.1747  0.0948 -0.1473
  930loPI    C213858  10.452   9.403   5.472  0.1072  0.2454  0.2817
  930loPI    C313859  10.704   9.564   5.207 -0.0983 -0.1155 -0.1467
  930loPI   PO413860  10.847   9.263   5.717  0.1122  0.1819  0.1513
  930loPI   GL113861  10.913   9.130   6.185 -0.0053 -0.2051  0.4316
  930loPI   GL213862  10.694   9.053   6.329  0.1623  0.0198 -0.1845
  930loPI   C1A13863  11.191   8.867   6.480 -0.1699  0.1394 -0.1645
  930loPI   C2A13864  11.145   8.800   6.916 -0.1280 -0.2023  0.5538
  930loPI   C3A13865  11.093   8.776   7.356  0.0480 -0.0600 -0.0040
  930loPI   C4A13866  11.162   8.803   7.784  0.2820 -0.0342 -0.4849
  930loPI   C5A13867  11.135   8.763   8.328  0.0442 -0.1195  0.3692
  930loPI   C6A13868  10.902   9.045   8.623 -0.0931  0.0796  0.1513
  930loPI   C1B13869  10.706   9.151   6.678 -0.0020  0.0903 -0.2683
  930loPI   C2B13870  10.841   9.161   7.080  0.2008 -0.0636 -0.0091
  930loPI   C3B13871  10.656   9.103   7.475  0.1328  0.3528 -0.1747
  930loPI   C4B13872  10.703   9.093   7.857  0.0438  0.0446  0.0600
  931loPI    C113873   1.560  13.692   5.903  0.0493 -0.2068  0.0441
  931loPI    C213874   1.953  13.690   5.825  0.0977 -0.3309  0.2833
  931loPI    C313875   1.708  13.442   5.628  0.0824  0.0011 -0.1309
  931loPI   PO413876   1.464  13.667   6.155 -0.2272 -0.1280  0.0373
  931loPI   GL113877   1.488  13.621   6.575 -0.0644 -0.1268 -0.0239
  931loPI   GL213878   1.239  13.617   6.806  0.2621 -0.1362  0.1599
  931loPI   C1A13879   1.647  13.909   6.948 -0.0106 -0.1145 -0.2023
  931loPI   C2A13880   1.478  14.187   7.182  0.1353 -0.1988  0.3168
  931loPI   C3A13881   1.433  14.141   7.606  0.0297  0.0187 -0.0133
  931loPI   C4A13882   1.238  13.939   7.923 -0.1635 -0.0860 -0.3331
  931loPI   C5A13883   1.054  13.829   8.306  0.0347  0.5030 -0.1951
  931loPI   C6A13884   1.128  13.829   8.796  0.0507 -0.1032 -0.1707
  931loPI   C1B13885   1.363  13.663   7.279  0.1015 -0.3264 -0.1863
  931loPI   C2B13886   1.589  13.613   7.758 -0.0370 -0.0573 -0.0610
  931loPI   C3B13887   1.761  13.361   8.145  0.0590 -0.0207  0.1022
  931loPI   C4B13888   1.857  13.060   8.590 -0.0307 -0.1295 -0.3641
  932loPI    C113889   2.260   4.075   5.833  0.0103  0.1321 -0.2062
  932loPI    C213890   2.646   4.110   5.735  0.0766 -0.1153 -0.0432
  932loPI    C313891   2.369   4.072   5.448  0.1735  0.0457 -0.1600
  932loPI   PO413892   2.322   4.196   6.156  0.1363  0.0572 -0.1765
  932loPI   GL113893   2.317   4.272   6.594  0.1831 -0.1271 -0.1127
  932loPI   GL213894   2.073   4.258   6.680 -0.3003 -0.0837  0.1310
  932loPI   C1A13895   2.533   4.498   6.909  0.0356 -0.3899 -0.0882
  932loPI   C2A13896   2.609   4.506   7.342 -0.1543 -0.0504  0.0422
  932loPI   C3A13897   2.479   4.491   7.723  0.2402 -0.1661 -0.0420
  932loPI   C4A13898   2.504   4.446   8.081  0.1069  0.2099  0.2653
  932loPI   C5A13899   2.435   4.157   8.350  0.1237  0.0171 -0.1234
  932loPI   C6A13900   2.291   4.121   8.665 -0.1730 -0.1194 -0.0514
  932loPI   C1B13901   2.080   4.379   7.062  0.1749  0.0240 -0.0410
  932loPI   C2B13902   2.051   4.272   7.516 -0.1168  0.3824 -0.0991
  932loPI   C3B13903   2.040   4.254   8.005 -0.0810  0.1233  0.3836
  932loPI   C4B13904   1.776   4.203   8.412 -0.0480 -0.1669  0.0504
  933loPI    C113905  13.694   2.382   5.717  0.0897  0.1070 -0.3218
  933loPI    C213906  13.379   2.621   5.778 -0.1315 -0.2416 -0.0591
  933loPI    C313907  13.388   2.380   5.459 -0.0318 -0.0799 -0.1795
  933loPI   PO413908  13.751   2.219   6.028 -0.1572  0.2291 -0.2337
  933loPI   GL113909  13.829   2.327   6.460 -0.2306  0.1294 -0.0022
  933loPI   GL213910  13.897   2.077   6.606  0.1014 -0.0560 -0.2592
  933loPI   C1A13911  13.879   2.446   6.909  0.1876  0.1100 -0.2534
  933loPI   C2A13912  13.864   2.224   7.269  0.1666  0.1070  0.2797
  933loPI   C3A13913  13.707   2.376   7.650 -0.0373 -0.1647 -0.0221
  933loPI   C4A13914  13.680   2.401   8.128 -0.2481  0.0717  0.1521
  933loPI   C5A13915  13.645   2.335   8.628 -0.1563 -0.0525  0.1112
  933loPI   C6A13916  13.817   2.466   8.936  0.1930 -0.1877 -0.0935
  933loPI   C1B13917  14.210   2.075   6.912 -0.1012 -0.0675  0.2531
  933loPI   C2B13918  14.223   1.946   7.328 -0.0112  0.0203 -0.0442
  933loPI   C3B13919  14.113   2.038   7.640  0.2789  0.4551 -0.2848
  933loPI   C4B13920  14.084   2.202   7.922  0.2662  0.0385 -0.0291
  934loPI    C113921  14.445  15.490   6.553 -0.0863  0.1955 -0.0083
  934loPI    C213922  14.565  15.131   6.423 -0.0194  0.0959  0.3194
  934loPI    C313923  14.613  15.454   6.192  0.1084 -0.0734  0.1056
  934loPI   PO413924  14.443  15.444   6.883  0.1624 -0.4718 -0.1576
  934loPI   GL113925  14.402  15.468   7.312 -0.2955  0.1368 -0.1424
  934loPI   GL213926  14.793  15.411   7.269 -0.0255 -0.0237  0.0964
  934loPI   C1A13927  14.367  15.381   7.744 -0.2167  0.0625  0.2501
  934loPI   C2A13928  14.577  15.250   8.129  0.2879  0.1426 -0.1089
  934loPI   C3A13929  14.387  15.074   8.461  0.0045 -0.2642  0.1849
  934loPI   C4A13930  14.287  14.894   8.909  0.1550 -0.1188 -0.1017
  934loPI   C5A13931  14.415  14.595   9.236  0.3876 -0.1628 -0.2631
  934loPI   C6A13932  14.787  14.569   9.263 -0.4272 -0.3493  0.1303
  934loPI   C1B13933  14.872  15.363   7.630 -0.0112 -0.1892 -0.2772
  934loPI   C2B13934  14.851  15.633   8.067 -0.0763  0.0197 -0.1630
  934loPI   C3B13935  14.969  15.495   8.512 -0.0488 -0.2513  0.3066
  934loPI   C4B13936  15.352  15.548   8.647  0.3461 -0.0126 -0.1355
  935loPI    C113937   7.551   5.793   5.687  0.0729 -0.2006 -0.1390
  935loPI    C213938   7.316   6.007   5.444  0.0018 -0.0306  0.0763
  935loPI    C313939   7.268   5.611   5.471 -0.0458 -0.0390 -0.1214
  935loPI   PO413940   7.590   6.009   5.829  0.2048 -0.1806 -0.2211
  935loPI   GL113941   7.482   6.117   6.259  0.1187 -0.0266 -0.1361
  935loPI   GL213942   7.227   6.128   6.301 -0.0489  0.3085 -0.2519
  935loPI   C1A13943   7.576   6.282   6.723 -0.0072  0.1542  0.0995
  935loPI   C2A13944   7.429   6.293   7.168  0.1064 -0.1105 -0.0026
  935loPI   C3A13945   7.520   6.355   7.484 -0.2431  0.0347 -0.3486
  935loPI   C4A13946   7.425   6.279   7.843  0.1880 -0.2650 -0.2530
  935loPI   C5A13947   7.377   6.333   8.216 -0.1717 -0.0354 -0.1516
  935loPI   C6A13948   7.481   6.277   8.706 -0.0226  0.2046  0.2598
  935loPI   C1B13949   7.060   6.029   6.844  0.1250  0.2225  0.0057
  935loPI   C2B13950   6.986   6.138   7.222  0.2860  0.2353 -0.0775
  935loPI   C3B13951   6.964   6.089   7.634 -0.1028  0.0088 -0.2098
  935loPI   C4B13952   6.974   6.056   8.051  0.0756 -0.0666 -0.2546
  936loPI    C113953  12.047   1.252   5.881  0.3159  0.1296  0.0173
  936loPI    C213954  11.999   0.950   5.623  0.1051  0.1997 -0.0276
  936loPI    C313955  12.127   1.306   5.493 -0.0564  0.2517 -0.0472
  936loPI   PO413956  12.091   1.149   6.060  0.2787  0.1642  0.2155
  936loPI   GL113957  11.987   1.310   6.471 -0.0635 -0.4512  0.2778
  936loPI   GL213958  11.867   1.060   6.517  0.0028  0.2121 -0.3901
  936loPI   C1A13959  11.917   1.437   6.902 -0.2595  0.0682  0.2468
  936loPI   C2A13960  11.795   1.651   7.389  0.0505  0.0164  0.1743
  936loPI   C3A13961  11.799   1.696   7.832  0.0236  0.0816  0.1300
  936loPI   C4A13962  11.698   1.730   8.205  0.0400 -0.1148  0.0506
  936loPI   C5A13963  11.636   1.632   8.619 -0.1945 -0.3264 -0.1249
  936loPI   C6A13964  11.649   1.502   9.118 -0.0781 -0.2223 -0.2912
  936loPI   C1B13965  11.874   0.970   6.971 -0.0917 -0.1068  0.1631
  936loPI   C2B13966  11.705   1.089   7.397 -0.2252 -0.0069 -0.0069
  936loPI   C3B13967  11.732   1.213   7.869 -0.3079  0.0429  0.0284
  936loPI   C4B13968  11.586   1.216   8.287 -0.1518 -0.2086 -0.3700
  937loPI    C113969   2.146  12.539   6.064  0.0558 -0.1094 -0.0976
  937loPI    C213970   2.200  12.909   5.922  0.3518  0.0332  0.3649
  937loPI    C313971   1.859  12.713   5.846  0.3159  0.2760 -0.1412
  937loPI   PO413972   2.183  12.566   6.265 -0.0674  0.2406 -0.1768
  937loPI   GL113973   2.291  12.611   6.687  0.0922  0.1990 -0.1197
  937loPI   GL213974   1.930  12.605   6.805 -0.3437  0.2900  0.2103
  937loPI   C1A13975   2.484  12.620   6.993 -0.1261 -0.2832  0.0542
  937loPI   C2A13976   2.631  12.695   7.412 -0.2494 -0.0001  0.2074
  937loPI   C3A13977   2.520  12.645   7.823  0.4223  0.1078 -0.1540
  937loPI   C4A13978   2.535  12.673   8.220 -0.2096 -0.2025 -0.0568
  937loPI   C5A13979   2.809  12.410   8.587  0.0789 -0.2909 -0.1661
  937loPI   C6A13980   2.903  12.102   8.951 -0.2554  0.0262 -0.1833
  937loPI   C1B13981   2.080  12.499   7.255  0.0519  0.2853 -0.1611
  937loPI   C2B13982   2.045  12.596   7.739  0.0211 -0.1111  0.0180
  937loPI   C3B13983   2.093  12.470   8.216  0.0282  0.3944 -0.3812
  937loPI   C4B13984   2.216  12.129   8.484  0.2731 -0.2550  0.0025
  938loPI    C113985   3.583  14.737   5.758  0.1424 -0.2748  0.0341
  938loPI    C213986   3.495  14.983   5.456 -0.0720 -0.0237  0.2951
  938loPI    C313987   3.875  14.934   5.569 -0.0085  0.0263  0.1077
  938loPI   PO413988   3.464  14.895   6.046 -0.1588 -0.1504 -0.0216
  938loPI   GL113989   3.241  14.764   6.503 -0.0583 -0.3004 -0.0333
  938loPI   GL213990   3.243  15.072   6.713 -0.0169  0.1701  0.0945
  938loPI   C1A13991   3.333  14.627   6.909 -0.2450  0.1874  0.3326
  938loPI   C2A13992   3.280  14.488   7.363  0.1458  0.2821  0.3679
  938loPI   C3A13993   3.257  14.444   7.797 -0.2697 -0.3283  0.0374
  938loPI   C4A13994   3.194  14.462   8.185 -0.0744 -0.2329 -0.0250
  938loPI   C5A13995   3.157  14.467   8.612  0.1362  0.0618  0.1197
  938loPI   C6A13996   2.853  14.628   8.888 -0.1930  0.1951  0.2772
  938loPI   C1B13997   3.378  15.031   7.174  0.3174 -0.1561 -0.3349
  938loPI   C2B13998   3.396  14.918   7.610 -0.2092  0.1740  0.0357
  938loPI   C3B13999   3.349  14.932   7.985 -0.1689  0.0340 -0.0020
  938loPI   C4B14000   3.444  14.907   8.473  0.1146 -0.0073 -0.0877
  939loPI    C114001   3.664   4.438   6.015  0.1199  0.0281  0.0231
  939loPI    C214002   3.763   4.776   5.826  0.0624  0.0590  0.0481
  939loPI    C314003   4.010   4.620   6.100  0.0939  0.0748  0.0288
  939loPI   PO414004   3.363   4.573   6.184 -0.0005  0.2279  0.1422
  939loPI   GL114005   3.191   4.521   6.571 -0.0757 -0.0975  0.2616
  939loPI   GL214006   3.430   4.359   6.690 -0.0224 -0.0842 -0.0312
  939loPI   C1A14007   3.021   4.667   6.896  0.0460  0.0056  0.0007
  939loPI   C2A14008   3.080   4.639   7.342  0.0389  0.0668  0.0797
  939loPI   C3A14009   3.023   4.757   7.821 -0.1287 -0.2960  0.0472
  939loPI   C4A14010   2.931   4.678   8.161 -0.0786 -0.2917  0.0767
  939loPI   C5A14011   2.899   4.406   8.440 -0.1441  0.0183 -0.1161
  939loPI   C6A14012   2.888   4.008   8.740  0.3849  0.2177 -0.0350
  939loPI   C1B14013   3.433   4.316   7.111 -0.2428  0.0267  0.1755
  939loPI   C2B14014   3.465   4.263   7.610  0.1117 -0.0556  0.0654
  939loPI   C3B14015   3.333   4.254   8.075  0.2734 -0.2665 -0.1003
  939loPI   C4B14016   3.509   4.193   8.498 -0.0150 -0.1109 -0.2469
  940loPI    C114017  15.673  10.820   6.004 -0.2137 -0.1041  0.0004
  940loPI    C214018  15.370  10.972   5.793  0.0046  0.1728 -0.1205
  940loPI    C314019  15.742  10.985   5.646  0.1320  0.1948  0.1970
  940loPI   PO414020  15.605  10.927   6.275 -0.2810  0.1461  0.0373
  940loPI   GL114021  15.756  11.238   6.552  0.1213  0.0141  0.0283
  940loPI   GL214022  15.702  10.984   6.791 -0.3420 -0.1629 -0.0496
  940loPI   C1A14023  15.709  11.444   6.918 -0.1302  0.2408 -0.0816
  940loPI   C2A14024  15.696  11.497   7.405  0.1606 -0.3687  0.1872
  940loPI   C3A14025  15.806  11.338   7.852  0.5291 -0.0858  0.0300
  940loPI   C4A14026  15.857  11.413   8.238 -0.1488  0.0551 -0.1394
  940loPI   C5A14027  15.921  11.734   8.616 -0.0048  0.4091 -0.0449
  940loPI   C6A14028  15.721  12.023   8.790 -0.0613  0.0784  0.0574
  940loPI   C1B14029  15.552  11.056   7.140  0.1089  0.0399  0.1888
  940loPI   C2B14030  15.603  10.950   7.551 -0.2006 -0.3572 -0.1532
  940loPI   C3B14031  15.666  10.862   7.998 -0.0573 -0.0085 -0.1678
  940loPI   C4B14032  15.598  10.875   8.431 -0.0487  0.1503  0.0418
  941loPI    C114033   7.811  14.220   5.827  0.0176 -0.2221 -0.2740
  941loPI    C214034   7.879  13.956   5.534 -0.0299 -0.1467 -0.3536
  941loPI    C314035   7.911  14.348   5.462  0.1466 -0.1329 -0.2078
  941loPI   PO414036   7.921  14.046   6.029  0.0927 -0.0432 -0.0295
  941loPI   GL114037   7.828  13.884   6.439 -0.2402 -0.2832 -0.1137
  941loPI   GL214038   7.824  13.614   6.274 -0.1494  0.1209 -0.1563
  941loPI   C1A14039   7.784  13.829   6.904  0.2167  0.0261 -0.0860
  941loPI   C2A14040   7.824  13.777   7.291  0.3945  0.0079  0.2457
  941loPI   C3A14041   7.702  13.826   7.738 -0.1136 -0.0659  0.0511
  941loPI   C4A14042   7.754  13.830   8.135  0.0316 -0.3925  0.1367
  941loPI   C5A14043   7.982  14.117   8.475 -0.0216 -0.0330 -0.3149
  941loPI   C6A14044   7.944  14.174   8.837  0.0809 -0.1771 -0.1495
  941loPI   C1B14045   7.430  13.671   6.588 -0.1557  0.1483 -0.2262
  941loPI   C2B14046   7.334  13.580   6.904 -0.0279 -0.1096 -0.2213
  941loPI   C3B14047   7.353  13.589   7.321  0.0709 -0.0868 -0.0616
  941loPI   C4B14048   7.252  13.618   7.859  0.1844  0.1605  0.0358
  942loPI    C114049  11.040  16.825   5.885  0.0294 -0.0205  0.1646
  942loPI    C214050  11.290  16.997   5.624  0.1173 -0.1535  0.1604
  942loPI    C314051  10.897  17.065   5.599  0.1451 -0.0054  0.1191
  942loPI   PO414052  11.280  16.843   6.162  0.1478  0.2029  0.1203
  942loPI   GL114053  11.445  16.642   6.600 -0.0414  0.0145 -0.1805
  942loPI   GL214054  11.609  16.973   6.511 -0.1605  0.2912  0.1819
  942loPI   C1A14055  11.313  16.559   6.928  0.3201 -0.0232 -0.1011
  942loPI   C2A14056  11.310  16.644   7.305  0.4194 -0.1288  0.5029
  942loPI   C3A14057  11.333  16.643   7.714 -0.0935 -0.1971 -0.2225
  942loPI   C4A14058  11.381  16.533   8.187 -0.0154 -0.0049  0.1885
  942loPI   C5A14059  11.359  16.710   8.650 -0.0771  0.0522 -0.0038
  942loPI   C6A14060  11.479  16.608   9.022 -0.1424 -0.2238 -0.0449
  942loPI   C1B14061  11.384  17.128   6.994 -0.0085  0.1516  0.0296
  942loPI   C2B14062  11.404  17.089   7.510  0.1014 -0.1218 -0.2622
  942loPI   C3B14063  11.344  17.227   7.927 -0.0668 -0.5363 -0.0988
  942loPI   C4B14064  11.311  17.104   8.383  0.0758 -0.0868 -0.0931
  943loPI    C114065   4.921  14.464   5.787  0.0371 -0.1552  0.2189
  943loPI    C214066   4.534  14.560   5.756  0.1166  0.1654  0.1767
  943loPI    C314067   4.645  14.175   5.763 -0.1924  0.0711  0.0843
  943loPI   PO414068   5.027  14.563   6.010  0.2253 -0.0168 -0.1978
  943loPI   GL114069   5.066  14.630   6.467 -0.2768 -0.2152  0.0033
  943loPI   GL214070   4.944  14.361   6.562 -0.0090  0.1333 -0.1099
  943loPI   C1A14071   5.168  14.786   6.883 -0.0277  0.1774 -0.2497
  943loPI   C2A14072   5.175  14.635   7.288 -0.0812 -0.0918  0.0612
  943loPI   C3A14073   5.234  14.653   7.827  0.0684  0.2544 -0.0898
  943loPI   C4A14074   5.120  14.607   8.251 -0.0956  0.2646  0.2046
  943loPI   C5A14075   4.961  14.474   8.612  0.0286 -0.1209  0.3355
  943loPI   C6A14076   5.062  14.455   9.041  0.0784 -0.0162 -0.0332
  943loPI   C1B14077   5.147  14.236   6.933 -0.0973 -0.1030  0.2322
  943loPI   C2B14078   5.158  14.069   7.383 -0.1154 -0.2130 -0.1085
  943loPI   C3B14079   5.136  14.190   7.807 -0.1653  0.5476 -0.2544
  943loPI   C4B14080   5.037  14.098   8.209 -0.4682  0.0752 -0.2863
  944loPI    C114081  13.632   1.519   6.065  0.0126 -0.0693  0.1251
  944loPI    C214082  14.012   1.394   6.082 -0.0077 -0.1759 -0.1495
  944loPI    C314083  13.924   1.777   6.155  0.1659 -0.1275 -0.1887
  944loPI   PO414084  13.542   1.308   6.269 -0.4026 -0.4335  0.0057
  944loPI   GL114085  13.512   1.048   6.649 -0.1925 -0.1416 -0.3714
  944loPI   GL214086  13.648   1.228   6.768 -0.1575  0.0081 -0.0973
  944loPI   C1A14087  13.214   1.058   6.921 -0.0167  0.0531  0.1271
  944loPI   C2A14088  13.190   1.044   7.322  0.0824  0.1410 -0.1864
  944loPI   C3A14089  13.041   1.147   7.738 -0.0292 -0.2615 -0.1558
  944loPI   C4A14090  13.088   1.190   8.140  0.4087 -0.1680  0.0733
  944loPI   C5A14091  13.182   1.332   8.584  0.1943 -0.1250  0.1233
  944loPI   C6A14092  13.409   1.188   8.889 -0.4336 -0.0697  0.0132
  944loPI   C1B14093  13.645   1.198   7.224  0.0157 -0.0822  0.0477
  944loPI   C2B14094  13.577   1.253   7.603  0.0504  0.0027  0.1920
  944loPI   C3B14095  13.553   1.417   7.950 -0.2019 -0.1602  0.0082
  944loPI   C4B14096  13.473   1.593   8.264  0.0818 -0.2116 -0.1932
  945loPI    C114097   2.476   8.305   5.568  0.0068  0.0111  0.0367
  945loPI    C214098   2.253   8.358   5.240 -0.0051 -0.0339  0.0375
  945loPI    C314099   2.580   8.129   5.224  0.1073  0.1272  0.0072
  945loPI   PO414100   2.312   8.430   5.726  0.2270 -0.2379 -0.0157
  945loPI   GL114101   2.310   8.509   6.192 -0.0529  0.1303  0.1389
  945loPI   GL214102   2.419   8.232   6.211 -0.1412  0.2456 -0.0030
  945loPI   C1A14103   2.130   8.915   6.301 -0.2006 -0.0852  0.0176
  945loPI   C2A14104   2.052   9.083   6.650 -0.0488 -0.0977 -0.1300
  945loPI   C3A14105   2.072   9.124   7.019  0.2169 -0.0259 -0.1010
  945loPI   C4A14106   2.001   9.103   7.525 -0.0066  0.1471  0.0113
  945loPI   C5A14107   1.912   9.109   7.897 -0.1322 -0.0414  0.1822
  945loPI   C6A14108   1.908   9.065   8.374 -0.4734 -0.0201 -0.0829
  945loPI   C1B14109   2.399   8.182   6.657  0.0311 -0.1338  0.1348
  945loPI   C2B14110   2.278   8.189   7.054  0.0629  0.1295 -0.0429
  945loPI   C3B14111   2.203   8.277   7.515  0.0254  0.0935  0.0698
  945loPI   C4B14112   2.180   8.271   7.990  0.2841 -0.1671 -0.0352
  946loPI    C114113   6.237   9.348   5.737  0.0334 -0.0379  0.0397
  946loPI    C214114   6.349   9.445   5.365  0.0113 -0.2464 -0.0224
  946loPI    C314115   6.058   9.177   5.423 -0.0553 -0.1395  0.1449
  946loPI   PO414116   6.189   9.544   5.824  0.1772  0.0065 -0.1140
  946loPI   GL114117   6.348   9.716   6.109  0.0632 -0.1239  0.3434
  946loPI   GL214118   6.679   9.572   6.223 -0.0194  0.2080 -0.0466
  946loPI   C1A14119   6.239   9.755   6.510  0.0433 -0.1590 -0.1524
  946loPI   C2A14120   6.263   9.778   6.883 -0.0826 -0.2010 -0.3072
  946loPI   C3A14121   6.220   9.775   7.351 -0.1232 -0.3163  0.1949
  946loPI   C4A14122   6.192   9.684   7.826  0.1424 -0.0061  0.0797
  946loPI   C5A14123   6.075   9.642   8.256 -0.3789  0.3001  0.1437
  946loPI   C6A14124   6.012   9.680   8.655 -0.0563 -0.3865  0.2822
  946loPI   C1B14125   6.634   9.443   6.577 -0.0488 -0.0009 -0.1020
  946loPI   C2B14126   6.635   9.447   6.914  0.1611  0.0616 -0.0775
  946loPI   C3B14127   6.628   9.496   7.278  0.1574  0.1309  0.0775
  946loPI   C4B14128   6.586   9.360   7.703 -0.1700 -0.0614 -0.1897
  947loPI    C114129   4.191   2.930   5.757  0.1475 -0.0499 -0.3002
  947loPI    C214130   4.254   3.276   5.567 -0.1874  0.0061 -0.3140
  947loPI    C314131   3.901   3.205   5.742  0.0799 -0.0837  0.2066
  947loPI   PO414132   4.391   2.921   5.941 -0.0713  0.2109  0.3047
  947loPI   GL114133   4.490   3.062   6.297 -0.0145  0.2579  0.1162
  947loPI   GL214134   4.703   2.934   6.425  0.2403 -0.0997  0.1404
  947loPI   C1A14135   4.230   3.204   6.632  0.1501  0.4939 -0.0476
  947loPI   C2A14136   4.321   3.230   7.017  0.0493  0.2016  0.1394
  947loPI   C3A14137   4.250   3.129   7.415  0.3363  0.0072  0.1592
  947loPI   C4A14138   4.178   3.092   7.789  0.0238  0.2852 -0.1750
  947loPI   C5A14139   4.182   2.855   8.175  0.1998  0.0777  0.2155
  947loPI   C6A14140   4.417   2.543   8.256  0.1587 -0.0489  0.0932
  947loPI   C1B14141   4.629   2.852   6.835  0.2013 -0.1529 -0.0334
  947loPI   C2B14142   4.647   2.790   7.256  0.1069 -0.3616  0.2445
  947loPI   C3B14143   4.535   2.767   7.685 -0.3002 -0.1398  0.1967
  947loPI   C4B14144   4.747   2.800   8.011  0.0268 -0.2097  0.2097
  948loPI    C114145   2.799   2.759   5.565 -0.0968 -0.1079 -0.1753
  948loPI    C214146   3.050   2.738   5.255 -0.0841  0.1200 -0.1819
  948loPI    C314147   2.721   2.964   5.231 -0.0083  0.2538  0.0219
  948loPI   PO414148   2.922   2.835   5.834  0.2369 -0.2203  0.0227
  948loPI   GL114149   2.807   2.789   6.277 -0.3469  0.0233 -0.0102
  948loPI   GL214150   2.517   2.794   6.429  0.1380 -0.1317 -0.3453
  948loPI   C1A14151   2.996   2.673   6.712  0.2767 -0.0345  0.0270
  948loPI   C2A14152   3.133   2.591   7.179 -0.0173 -0.1673 -0.0448
  948loPI   C3A14153   3.229   2.694   7.593  0.2244  0.0200 -0.0541
  948loPI   C4A14154   3.300   2.594   8.030 -0.1028  0.0450  0.0644
  948loPI   C5A14155   3.464   2.568   8.437  0.1439  0.5388  0.1382
  948loPI   C6A14156   3.125   2.318   8.714  0.0249  0.1357  0.1019
  948loPI   C1B14157   2.299   2.822   6.726 -0.1189 -0.2535 -0.2732
  948loPI   C2B14158   2.254   2.898   7.185 -0.0805 -0.0206  0.1195
  948loPI   C3B14159   2.308   2.855   7.569 -0.2140 -0.1255  0.0166
  948loPI   C4B14160   2.218   2.819   7.954 -0.1406 -0.1471  0.1991
  949loPI    C114161  12.759  12.151   6.021  0.1871 -0.2932 -0.0157
  949loPI    C214162  12.662  12.125   5.634  0.0361 -0.1947  0.0146
  949loPI    C314163  12.925  12.400   5.756 -0.0600 -0.0989  0.0078
  949loPI   PO414164  12.517  12.071   6.192 -0.0725  0.0561 -0.0594
  949loPI   GL114165  12.144  12.051   6.559 -0.0671 -0.0702 -0.0774
  949loPI   GL214166  12.293  12.334   6.608  0.0718  0.2756  0.0162
  949loPI   C1A14167  12.122  12.011   7.016 -0.0639  0.0696 -0.1782
  949loPI   C2A14168  12.109  12.033   7.489  0.0223  0.1180  0.1947
  949loPI   C3A14169  12.105  11.964   7.892 -0.0533  0.0515  0.0977
  949loPI   C4A14170  12.135  12.005   8.292  0.0868  0.3173 -0.1013
  949loPI   C5A14171  12.156  12.329   8.616  0.1362  0.2798 -0.1388
  949loPI   C6A14172  12.418  12.694   8.563  0.0402 -0.0740  0.2156
  949loPI   C1B14173  12.226  12.563   7.099 -0.1575  0.0862  0.2936
  949loPI   C2B14174  12.227  12.565   7.474  0.3157 -0.0818  0.0891
  949loPI   C3B14175  12.108  12.462   7.961  0.2451 -0.1942 -0.1623
  949loPI   C4B14176  11.753  12.467   8.244  0.0985  0.0027 -0.2198
  950loPI    C114177   9.275   8.217   5.731 -0.0038  0.3300  0.1655
  950loPI    C214178   9.070   8.549   5.641 -0.1589  0.1313 -0.2351
  950loPI    C314179   9.117   8.261   5.366 -0.1122 -0.2254  0.1363
  950loPI   PO414180   9.547   8.266   5.808  0.1262 -0.3272  0.0274
  950loPI   GL114181   9.562   8.308   6.182  0.1451  0.1946 -0.0859
  950loPI   GL214182   9.714   8.577   6.341  0.0678  0.3208  0.2350
  950loPI   C1A14183   9.372   8.172   6.611 -0.0657  0.1274  0.1630
  950loPI   C2A14184   9.245   8.071   7.001 -0.1529  0.0286  0.0935
  950loPI   C3A14185   9.138   8.046   7.464  0.1334 -0.1646 -0.1336
  950loPI   C4A14186   9.013   7.910   7.932 -0.1240  0.2820 -0.2803
  950loPI   C5A14187   8.923   7.832   8.356  0.3127 -0.1209  0.0788
  950loPI   C6A14188   8.979   7.755   8.718 -0.1998 -0.0231  0.1118
  950loPI   C1B14189   9.700   8.636   6.658 -0.2898 -0.0923  0.1258
  950loPI   C2B14190   9.765   8.791   7.081 -0.0714 -0.1243 -0.5331
  950loPI   C3B14191   9.782   8.824   7.548  0.2243 -0.0018 -0.1485
  950loPI   C4B14192   9.640   8.557   7.900 -0.3007 -0.2240 -0.0160
  951loPI    C114193   8.700   8.789   5.995  0.0898  0.1878 -0.1435
  951loPI    C214194   9.047   8.975   5.922  0.1318  0.0988 -0.1729
  951loPI    C314195   8.764   8.959   5.639  0.0539  0.2783 -0.1070
  951loPI   PO414196   8.743   8.527   6.054  0.1374 -0.2674  0.0076
  951loPI   GL114197   8.856   8.411   6.449  0.3180 -0.1289  0.3891
  951loPI   GL214198   9.159   8.575   6.243  0.0398 -0.0640 -0.1448
  951loPI   C1A14199   8.749   8.399   6.822 -0.0606  0.1930  0.0925
  951loPI   C2A14200   8.811   8.392   7.285 -0.1180 -0.2353 -0.5784
  951loPI   C3A14201   8.791   8.334   7.723 -0.1809 -0.1478  0.1287
  951loPI   C4A14202   8.633   8.156   8.058  0.0112  0.1428 -0.1175
  951loPI   C5A14203   8.806   8.310   8.441  0.3368 -0.0659 -0.1283
  951loPI   C6A14204   9.164   8.305   8.634  0.2953 -0.1335  0.0174
  951loPI   C1B14205   9.249   8.620   6.695 -0.2152  0.4942 -0.3730
  951loPI   C2B14206   9.266   8.654   7.195 -0.1238  0.0859 -0.3092
  951loPI   C3B14207   9.231   8.512   7.586 -0.1841 -0.2395 -0.1424
  951loPI   C4B14208   9.172   8.519   8.038  0.2813 -0.1038 -0.0628
  952loPI    C114209   4.316   1.789   5.768 -0.1078 -0.1494 -0.0940
  952loPI    C214210   4.430   2.109   5.556 -0.0616 -0.0924  0.0157
  952loPI    C314211   4.660   1.974   5.853 -0.1011 -0.2033 -0.0034
  952loPI   PO414212   4.075   1.817   5.846 -0.1287 -0.3508 -0.1581
  952loPI   GL114213   3.966   1.846   6.243  0.0299  0.0916  0.1044
  952loPI   GL214214   4.330   1.724   6.306 -0.0410 -0.0306  0.0286
  952loPI   C1A14215   3.848   1.676   6.632  0.1605  0.0079 -0.0066
  952loPI   C2A14216   3.889   1.568   7.035 -0.3364  0.0830 -0.0740
  952loPI   C3A14217   3.898   1.479   7.425 -0.0864 -0.1245 -0.0704
  952loPI   C4A14218   4.061   1.513   7.806  0.2527  0.0198  0.0796
  952loPI   C5A14219   4.018   1.566   8.336  0.0373  0.0883 -0.1188
  952loPI   C6A14220   4.058   1.508   8.743  0.2741 -0.1590 -0.1143
  952loPI   C1B14221   4.301   1.789   6.757  0.1154  0.0821  0.0290
  952loPI   C2B14222   4.374   1.683   7.186 -0.0347 -0.0680 -0.0899
  952loPI   C3B14223   4.410   1.760   7.533  0.0941 -0.1060 -0.1144
  952loPI   C4B14224   4.423   1.831   7.966  0.0063 -0.3233 -0.2170
  953loPI    C114225   4.549   3.987   5.784  0.0936  0.0227  0.1326
  953loPI    C214226   4.241   3.805   5.605  0.0924  0.0805  0.0758
  953loPI    C314227   4.490   4.034   5.392  0.1512  0.0663  0.1292
  953loPI   PO414228   4.622   3.905   6.013 -0.2791 -0.0951 -0.0830
  953loPI   GL114229   4.786   3.835   6.337  0.1168  0.0847 -0.0163
  953loPI   GL214230   4.468   3.797   6.495  0.1732 -0.1133 -0.1501
  953loPI   C1A14231   4.782   3.773   6.884  0.2482 -0.0132 -0.1014
  953loPI   C2A14232   4.832   3.839   7.295  0.0493 -0.2496 -0.0599
  953loPI   C3A14233   4.763   3.958   7.694  0.0604 -0.0041  0.1202
  953loPI   C4A14234   4.781   3.920   8.094 -0.2596  0.1150  0.0513
  953loPI   C5A14235   4.716   3.739   8.427  0.2063  0.0030 -0.0288
  953loPI   C6A14236   4.659   3.499   8.804 -0.2323 -0.0844 -0.1464
  953loPI   C1B14237   4.213   3.667   6.826 -0.0163  0.1623  0.1379
  953loPI   C2B14238   4.292   3.622   7.275 -0.2012 -0.0999  0.0607
  953loPI   C3B14239   4.289   3.738   7.760 -0.0116  0.3436  0.0347
  953loPI   C4B14240   4.309   3.601   8.155 -0.1614  0.0489 -0.1939
  954loPI    C114241   5.806   6.634   5.668  0.0793 -0.0856  0.1186
  954loPI    C214242   5.979   6.490   5.338 -0.0094  0.1233 -0.0212
  954loPI    C314243   5.590   6.580   5.337  0.0243  0.2745  0.0920
  954loPI   PO414244   5.773   6.430   5.893  0.1978 -0.0667  0.0146
  954loPI   GL114245   5.773   6.560   6.326 -0.1755  0.0656  0.0096
  954loPI   GL214246   5.754   6.166   6.425  0.0243 -0.0239  0.1949
  954loPI   C1A14247   5.805   6.544   6.854 -0.0661 -0.0903  0.1448
  954loPI   C2A14248   5.769   6.572   7.295 -0.2016 -0.1314  0.1600
  954loPI   C3A14249   5.726   6.537   7.695  0.0791 -0.0322 -0.0511
  954loPI   C4A14250   5.588   6.552   8.065 -0.1376 -0.4042 -0.2387
  954loPI   C5A14251   5.428   6.603   8.404  0.2565  0.0310 -0.1724
  954loPI   C6A14252   5.055   6.611   8.505 -0.1789 -0.2177 -0.3395
  954loPI   C1B14253   5.780   6.076   6.885  0.0355  0.0499  0.2028
  954loPI   C2B14254   5.658   6.072   7.363 -0.3540  0.1011  0.1709
  954loPI   C3B14255   5.552   6.111   7.834  0.1063  0.3522  0.1724
  954loPI   C4B14256   5.524   6.095   8.260  0.0638 -0.0167  0.2329
  955loPI    C114257   7.664  10.269   5.595 -0.2336  0.0575 -0.1582
  955loPI    C214258   7.947   9.989   5.558 -0.2295  0.0168  0.1586
  955loPI    C314259   7.962  10.318   5.331 -0.1181 -0.1406 -0.0668
  955loPI   PO414260   7.543  10.383   5.747 -0.1749 -0.0588  0.0657
  955loPI   GL114261   7.242  10.648   6.053 -0.0797  0.0057  0.2208
  955loPI   GL214262   7.145  10.304   6.139 -0.2175 -0.1926 -0.3061
  955loPI   C1A14263   7.295  10.708   6.505  0.2344  0.1422  0.4606
  955loPI   C2A14264   7.203  10.763   6.897  0.0612  0.4716 -0.0428
  955loPI   C3A14265   7.196  10.669   7.323  0.1692  0.0672 -0.0332
  955loPI   C4A14266   7.337  10.575   7.743  0.1574  0.0527  0.3015
  955loPI   C5A14267   7.323  10.440   8.059  0.4084  0.3621 -0.2144
  955loPI   C6A14268   7.363  10.569   8.507 -0.5754  0.0196  0.0055
  955loPI   C1B14269   7.172  10.215   6.608  0.2370  0.4306  0.2328
  955loPI   C2B14270   7.188  10.152   7.101  0.2284 -0.0389 -0.0481
  955loPI   C3B14271   7.189  10.136   7.500  0.2436 -0.0816  0.3204
  955loPI   C4B14272   7.078   9.907   7.903 -0.3971  0.1038  0.2131
  956loPI    C114273   2.367  15.872   5.870  0.0490 -0.1881 -0.1655
  956loPI    C214274   2.553  16.188   5.710 -0.4261  0.0894 -0.1874
  956loPI    C314275   2.452  15.877   5.479  0.1287 -0.1310 -0.1476
  956loPI   PO414276   2.472  15.865   6.090  0.0447 -0.0121 -0.0967
  956loPI   GL114277   2.188  15.979   6.443 -0.1054  0.4176  0.1446
  956loPI   GL214278   2.486  16.168   6.565  0.2668 -0.1814 -0.1454
  956loPI   C1A14279   2.024  16.316   6.744 -0.0458  0.3140 -0.4014
  956loPI   C2A14280   2.247  16.571   7.129 -0.1820  0.3049  0.0592
  956loPI   C3A14281   2.152  16.625   7.508 -0.1005  0.1575  0.2522
  956loPI   C4A14282   2.031  16.646   7.892  0.2225 -0.1951 -0.1953
  956loPI   C5A14283   1.937  16.982   8.103 -0.0105 -0.2293  0.0796
  956loPI   C6A14284   1.760  17.290   8.252  0.0653 -0.2099 -0.0888
  956loPI   C1B14285   2.380  16.036   6.978 -0.0259 -0.2653 -0.0258
  956loPI   C2B14286   2.394  16.177   7.394  0.3027 -0.3517 -0.0752
  956loPI   C3B14287   2.301  16.220   7.813  0.0149 -0.0933  0.0003
  956loPI   C4B14288   2.171  16.106   8.230 -0.1364  0.2259 -0.0346
  957loPI    C114289   5.042  13.314   5.937  0.0251 -0.0766  0.1477
  957loPI    C214290   5.334  13.464   5.709 -0.1501  0.0205 -0.0155
  957loPI    C314291   5.006  13.309   5.539 -0.0274 -0.4418  0.1534
  957loPI   PO414292   5.094  13.548   6.193 -0.3144  0.0009  0.0777
  957loPI   GL114293   5.039  13.600   6.681  0.0470  0.0141  0.1521
  957loPI   GL214294   5.386  13.381   6.743 -0.4277  0.0627  0.3386
  957loPI   C1A14295   4.913  13.693   7.203 -0.1273  0.2349 -0.1474
  957loPI   C2A14296   5.007  13.647   7.614 -0.0430  0.1247  0.0721
  957loPI   C3A14297   4.953  13.578   8.005 -0.0631 -0.1132  0.5005
  957loPI   C4A14298   5.102  13.588   8.397 -0.0769  0.0739  0.0765
  957loPI   C5A14299   5.141  13.379   8.787  0.0273 -0.0477  0.1157
  957loPI   C6A14300   5.237  13.436   9.219 -0.2168  0.1992 -0.1746
  957loPI   C1B14301   5.481  13.376   7.090 -0.2173  0.3073  0.0282
  957loPI   C2B14302   5.372  13.338   7.517 -0.0527 -0.0702 -0.1252
  957loPI   C3B14303   5.412  13.345   8.010  0.2215 -0.0268  0.1340
  957loPI   C4B14304   5.532  13.276   8.441  0.4225  0.0276  0.0117
  958loPI    C114305   5.476  14.296   5.690  0.0937 -0.0517 -0.1907
  958loPI    C214306   5.581  13.933   5.560  0.0205 -0.1789  0.0977
  958loPI    C314307   5.445  14.206   5.302 -0.1074 -0.4195 -0.0940
  958loPI   PO414308   5.401  14.315   5.946 -0.0950 -0.2397  0.1544
  958loPI   GL114309   5.462  14.335   6.372 -0.0860 -0.1062 -0.1614
  958loPI   GL214310   5.380  14.021   6.523 -0.3679  0.1449  0.2365
  958loPI   C1A14311   5.584  14.382   6.869  0.1323 -0.0410  0.0592
  958loPI   C2A14312   5.576  14.276   7.290  0.2863 -0.1920 -0.0434
  958loPI   C3A14313   5.595  14.319   7.799  0.2074 -0.0570  0.0937
  958loPI   C4A14314   5.558  14.298   8.172 -0.2727  0.2661  0.1808
  958loPI   C5A14315   5.479  14.164   8.631 -0.1039  0.0489  0.2095
  958loPI   C6A14316   5.686  14.198   8.977 -0.1051  0.0374 -0.0533
  958loPI   C1B14317   5.464  13.851   7.015  0.6153  0.1633  0.0931
  958loPI   C2B14318   5.561  13.778   7.363  0.2818  0.1204 -0.3055
  958loPI   C3B14319   5.480  13.797   7.764  0.2245  0.1582 -0.0430
  958loPI   C4B14320   5.505  13.784   8.218 -0.1104 -0.0660 -0.0833
  959loPI    C114321   1.127   5.887   5.968 -0.2594 -0.1295 -0.0949
  959loPI    C214322   1.170   5.993   5.585  0.0878 -0.0357 -0.0338
  959loPI    C314323   1.359   5.670   5.725 -0.0366 -0.0686  0.0599
  959loPI   PO414324   0.938   5.950   6.014 -0.3526  0.2904 -0.3294
  959loPI   GL114325   0.788   5.957   6.433  0.0802  0.2488 -0.1215
  959loPI   GL214326   0.565   6.164   6.419  0.1132  0.4363  0.2947
  959loPI   C1A14327   1.001   5.774   6.745 -0.0016  0.0733  0.3258
  959loPI   C2A14328   0.983   5.829   7.098 -0.0230 -0.0528  0.2753
  959loPI   C3A14329   0.901   5.776   7.634  0.1931 -0.0508  0.0815
  959loPI   C4A14330   0.911   5.735   8.052  0.3555  0.0078 -0.2867
  959loPI   C5A14331   1.028   5.747   8.483  0.0724 -0.0567 -0.1320
  959loPI   C6A14332   1.229   5.495   8.805 -0.2769 -0.0534 -0.1948
  959loPI   C1B14333   0.684   6.632   6.737  0.1286 -0.2233  0.2375
  959loPI   C2B14334   0.754   6.649   7.147  0.0669 -0.0344 -0.0714
  959loPI   C3B14335   0.557   6.547   7.473 -0.3754 -0.0374 -0.0707
  959loPI   C4B14336   0.539   6.562   8.013 -0.1711  0.2279 -0.2089
  960loPI    C114337   6.431  15.676   5.692 -0.1786  0.1897 -0.1852
  960loPI    C214338   6.530  16.052   5.600  0.2654  0.0884 -0.1428
  960loPI    C314339   6.544  15.767   5.320  0.0498  0.0782 -0.1448
  960loPI   PO414340   6.511  15.672   5.935  0.1484 -0.2912 -0.0191
  960loPI   GL114341   6.444  15.378   6.381  0.0076  0.0389 -0.1876
  960loPI   GL214342   6.679  15.684   6.467 -0.0937  0.1341 -0.0155
  960loPI   C1A14343   6.590  15.252   6.731 -0.1373  0.2219 -0.3802
  960loPI   C2A14344   6.652  15.223   7.199 -0.0096 -0.1548  0.3550
  960loPI   C3A14345   6.555  15.206   7.569  0.0101  0.1370  0.1296
  960loPI   C4A14346   6.420  15.303   8.100  0.0742 -0.0412 -0.1639
  960loPI   C5A14347   6.044  15.486   8.398 -0.2699  0.3401 -0.0702
  960loPI   C6A14348   5.870  15.602   8.816 -0.1018  0.0994  0.4836
  960loPI   C1B14349   6.736  15.757   6.826  0.1134 -0.0891 -0.1119
  960loPI   C2B14350   6.770  15.730   7.231  0.2240  0.1073 -0.0043
  960loPI   C3B14351   6.596  15.824   7.634  0.0896  0.2185  0.1865
  960loPI   C4B14352   6.551  15.778   8.019  0.1603 -0.0286  0.2463
  961loPI    C114353  12.990  10.167   5.688 -0.0854  0.2385  0.0525
  961loPI    C214354  13.148   9.934   5.404  0.0426  0.2466  0.1159
  961loPI    C314355  12.906  10.237   5.304 -0.0110  0.1741  0.0242
  961loPI   PO414356  13.110  10.046   5.959  0.0831  0.3522 -0.2685
  961loPI   GL114357  12.984   9.959   6.365  0.2043  0.1067  0.1204
  961loPI   GL214358  12.645   9.896   6.379  0.0036  0.1717  0.0463
  961loPI   C1A14359  13.281  10.064   6.592 -0.0083 -0.1358  0.1609
  961loPI   C2A14360  13.198   9.945   6.964 -0.0008  0.1353  0.3285
  961loPI   C3A14361  13.233   9.941   7.457 -0.2874 -0.0614  0.0162
  961loPI   C4A14362  13.205   9.950   7.916 -0.1601 -0.0700 -0.1667
  961loPI   C5A14363  13.087  10.089   8.378  0.0753 -0.0509 -0.3363
  961loPI   C6A14364  13.107  10.156   8.762  0.2087  0.1969 -0.1789
  961loPI   C1B14365  12.670   9.881   6.814 -0.1729 -0.2201 -0.2105
  961loPI   C2B14366  12.780   9.854   7.265  0.0493  0.0766 -0.0128
  961loPI   C3B14367  12.695   9.755   7.688  0.1060  0.0126  0.0655
  961loPI   C4B14368  12.729   9.827   8.093  0.4672  0.0610  0.0690
  962loPI    C114369  13.716  12.554   6.298 -0.1492  0.1282 -0.1746
  962loPI    C214370  13.725  12.281   6.590 -0.0840  0.2875 -0.0257
  962loPI    C314371  13.807  12.174   6.213 -0.2391  0.0663  0.0013
  962loPI   PO414372  13.849  12.733   6.439 -0.1724  0.1348  0.1257
  962loPI   GL114373  13.991  12.774   6.855 -0.1152  0.2535 -0.1213
  962loPI   GL214374  14.144  12.516   6.850 -0.0039 -0.1132  0.0578
  962loPI   C1A14375  14.120  12.854   7.187  0.1436  0.0513 -0.0473
  962loPI   C2A14376  14.169  12.863   7.592 -0.0877  0.0929 -0.1746
  962loPI   C3A14377  14.064  12.743   8.009 -0.2612  0.0878  0.0298
  962loPI   C4A14378  14.257  12.596   8.495  0.2448  0.4359  0.2037
  962loPI   C5A14379  14.508  12.838   8.828  0.1342  0.0584 -0.1053
  962loPI   C6A14380  14.595  13.121   9.197  0.0142  0.0900 -0.0093
  962loPI   C1B14381  13.964  12.267   7.062 -0.4037  0.1869 -0.2134
  962loPI   C2B14382  14.061  12.279   7.498  0.5608  0.1034 -0.3817
  962loPI   C3B14383  13.994  12.199   7.886 -0.0840  0.0241  0.1519
  962loPI   C4B14384  14.103  12.191   8.284  0.0965 -0.0337 -0.0504
  963loPI    C114385   5.364  11.285   5.614 -0.0852  0.1651  0.1740
  963loPI    C214386   5.726  11.433   5.695  0.0314  0.0523 -0.1261
  963loPI    C314387   5.490  11.617   5.430  0.0861 -0.1673 -0.3303
  963loPI   PO414388   5.288  11.183   5.842 -0.1594 -0.0376  0.1331
  963loPI   GL114389   5.275  11.305   6.234 -0.0497 -0.3082  0.4926
  963loPI   GL214390   5.602  11.370   6.258  0.1544  0.1757  0.0486
  963loPI   C1A14391   5.067  11.292   6.614  0.0711 -0.0357 -0.1662
  963loPI   C2A14392   4.975  11.355   7.049  0.1979  0.1920 -0.1224
  963loPI   C3A14393   5.011  11.172   7.449 -0.0965  0.1021 -0.1440
  963loPI   C4A14394   5.001  11.093   7.923 -0.2153 -0.1422 -0.0207
  963loPI   C5A14395   4.934  11.245   8.370 -0.3015  0.4067  0.0419
  963loPI   C6A14396   5.089  11.325   8.772  0.3990 -0.0080  0.0798
  963loPI   C1B14397   5.584  11.558   6.663 -0.0251 -0.2797 -0.1836
  963loPI   C2B14398   5.461  11.475   7.042 -0.1570  0.2156  0.1802
  963loPI   C3B14399   5.471  11.341   7.457  0.1289 -0.2210 -0.0344
  963loPI   C4B14400   5.600  11.425   7.920 -0.0503 -0.1626 -0.0185
  964loPI    C114401   4.821  10.863   5.699  0.1271 -0.3089  0.0189
  964loPI    C214402   4.593  10.576   5.538 -0.1635  0.0125 -0.1563
  964loPI    C314403   4.719  10.882   5.313 -0.2918  0.2932  0.1438
  964loPI   PO414404   4.780  10.846   5.947 -0.0391  0.1542  0.0896
  964loPI   GL114405   4.712  10.796   6.332 -0.3013 -0.0157 -0.2491
  964loPI   GL214406   4.989  10.735   6.411  0.1970 -0.0021 -0.3426
  964loPI   C1A14407   4.527  10.641   6.684 -0.0818  0.1570 -0.1584
  964loPI   C2A14408   4.462  10.568   7.136 -0.1442  0.0305 -0.1153
  964loPI   C3A14409   4.451  10.387   7.555  0.1594  0.1525  0.0251
  964loPI   C4A14410   4.482  10.433   7.983  0.1898 -0.0212 -0.0032
  964loPI   C5A14411   4.554  10.400   8.420 -0.1249  0.1293  0.1552
  964loPI   C6A14412   4.488  10.028   8.815 -0.0654  0.2008  0.1458
  964loPI   C1B14413   4.949  10.882   6.845 -0.1748 -0.2075  0.1874
  964loPI   C2B14414   4.867  10.744   7.311  0.0442  0.0014  0.2936
  964loPI   C3B14415   5.005  10.608   7.830 -0.0375 -0.0935  0.2239
  964loPI   C4B14416   4.919  10.629   8.196 -0.3799  0.0213 -0.0689
  965loPI    C114417   1.098  10.197   5.619 -0.3033 -0.1138 -0.1387
  965loPI    C214418   1.327   9.872   5.575 -0.0455  0.0518 -0.0452
  965loPI    C314419   1.061   9.891   5.873  0.2249  0.0889  0.1968
  965loPI   PO414420   1.279  10.366   5.715  0.3684  0.0773  0.0796
  965loPI   GL114421   1.430  10.575   6.092  0.0673  0.3137 -0.1724
  965loPI   GL214422   1.342  10.794   6.322  0.4548 -0.0133  0.0271
  965loPI   C1A14423   1.388  10.321   6.513 -0.0194 -0.0776  0.0221
  965loPI   C2A14424   1.261  10.254   6.970 -0.1825 -0.1214 -0.0487
  965loPI   C3A14425   1.314  10.211   7.384  0.0759 -0.0522  0.0603
  965loPI   C4A14426   1.176  10.254   7.781  0.3449  0.2155 -0.0191
  965loPI   C5A14427   1.205  10.210   8.225  0.2944  0.1173  0.0757
  965loPI   C6A14428   1.406   9.854   8.382  0.0561  0.2731 -0.2120
  965loPI   C1B14429   1.259  10.744   6.732 -0.1112  0.0250 -0.4570
  965loPI   C2B14430   1.340  10.733   7.200  0.2345  0.1071 -0.0276
  965loPI   C3B14431   1.315  10.739   7.658  0.0360 -0.0025  0.2483
  965loPI   C4B14432   1.226  10.705   8.086  0.1920 -0.1396 -0.0395
  966loPI    C114433   1.269  13.222   5.936  0.1584 -0.1286 -0.0777
  966loPI    C214434   1.541  13.032   5.712  0.1676 -0.1691 -0.0324
  966loPI    C314435   1.240  13.229   5.537  0.2138 -0.1422 -0.0822
  966loPI   PO414436   1.382  13.145   6.240  0.0584 -0.2087 -0.2168
  966loPI   GL114437   1.104  13.096   6.668  0.1537  0.0910  0.1427
  966loPI   GL214438   1.257  12.765   6.596 -0.0408 -0.1462  0.0152
  966loPI   C1A14439   1.265  13.230   7.070 -0.1949  0.1625 -0.1870
  966loPI   C2A14440   1.322  13.157   7.478  0.0022  0.2365 -0.3278
  966loPI   C3A14441   1.665  13.069   7.737  0.4176  0.0491 -0.1057
  966loPI   C4A14442   1.664  12.678   8.049  0.0622 -0.1348  0.0374
  966loPI   C5A14443   1.592  12.194   8.115  0.0597 -0.2540  0.0254
  966loPI   C6A14444   1.494  11.971   8.500  0.1881 -0.2185  0.0358
  966loPI   C1B14445   1.377  12.745   7.062  0.1841 -0.1344 -0.1193
  966loPI   C2B14446   1.708  12.917   7.247  0.2424 -0.0678  0.2289
  966loPI   C3B14447   1.798  13.380   7.371 -0.0680 -0.0290 -0.0781
  966loPI   C4B14448   1.934  13.809   7.437 -0.1401 -0.1847  0.0138
  967loPI    C114449  11.558   3.494   6.234 -0.1811 -0.2274  0.0967
  967loPI    C214450  11.328   3.730   6.461 -0.1634 -0.2495  0.1377
  967loPI    C314451  11.261   3.705   6.067  0.1209  0.1775  0.0551
  967loPI   PO414452  11.731   3.408   6.318 -0.0730 -0.2896 -0.1007
  967loPI   GL114453  11.903   3.417   6.617  0.0105 -0.1197 -0.3604
  967loPI   GL214454  12.023   3.056   6.619 -0.2523 -0.1088 -0.0628
  967loPI   C1A14455  12.154   3.697   6.799 -0.1518  0.6022 -0.3693
  967loPI   C2A14456  12.132   3.623   7.169  0.0474  0.2768  0.5333
  967loPI   C3A14457  12.151   3.725   7.553  0.4153 -0.0874 -0.3938
  967loPI   C4A14458  12.249   3.789   8.013 -0.0970 -0.0700 -0.1137
  967loPI   C5A14459  12.111   3.787   8.426  0.2967  0.0272 -0.1355
  967loPI   C6A14460  11.966   3.649   8.819 -0.2993  0.0354 -0.0352
  967loPI   C1B14461  12.069   3.119   7.069 -0.0449  0.1463 -0.0452
  967loPI   C2B14462  11.954   3.189   7.427  0.1063 -0.0898  0.1198
  967loPI   C3B14463  12.080   3.227   7.884  0.0905  0.0495  0.3690
  967loPI   C4B14464  12.006   3.309   8.287  0.0940 -0.1537 -0.3344
  968loPI    C114465  13.268   3.113   5.960 -0.0886  0.1022  0.0972
  968loPI    C214466  13.619   3.187   5.782  0.0474  0.0627  0.3448
  968loPI    C314467  13.299   3.089   5.562  0.1755  0.1591  0.1127
  968loPI   PO414468  13.333   2.941   6.157  0.0328 -0.0163 -0.0315
  968loPI   GL114469  13.517   2.887   6.537 -0.1705 -0.2693  0.2422
  968loPI   GL214470  13.423   2.729   6.727  0.0481 -0.0636 -0.3364
  968loPI   C1A14471  13.418   3.177   6.939 -0.0051  0.2030  0.0817
  968loPI   C2A14472  13.548   3.174   7.318 -0.0830 -0.2964  0.0219
  968loPI   C3A14473  13.451   3.289   7.766 -0.0216 -0.0290  0.1463
  968loPI   C4A14474  13.439   3.265   8.185 -0.2212 -0.0212  0.1785
  968loPI   C5A14475  13.331   3.408   8.656  0.2436  0.1681  0.0783
  968loPI   C6A14476  13.155   3.739   8.858  0.2477  0.0111  0.1118
  968loPI   C1B14477  13.403   2.727   7.159  0.0340  0.1325 -0.1124
  968loPI   C2B14478  13.315   2.734   7.489  0.0084  0.1875  0.0185
  968loPI   C3B14479  13.354   2.856   7.907  0.0543 -0.0267  0.3296
  968loPI   C4B14480  13.260   2.754   8.307  0.0607  0.2459 -0.0775
  969loPI    C114481   5.900  13.598   5.822 -0.0085 -0.1088  0.0004
  969loPI    C214482   6.129  13.781   5.549  0.1914 -0.0774  0.1859
  969loPI    C314483   5.863  13.505   5.435  0.0465  0.1638 -0.0729
  969loPI   PO414484   6.006  13.593   5.990  0.0178 -0.2304 -0.0099
  969loPI   GL114485   5.973  13.322   6.353 -0.0072  0.3695 -0.0838
  969loPI   GL214486   5.761  13.583   6.508 -0.1011 -0.5458 -0.1059
  969loPI   C1A14487   5.905  13.099   6.717  0.2346  0.0141  0.1199
  969loPI   C2A14488   5.818  13.042   7.209 -0.1154  0.0068 -0.1562
  969loPI   C3A14489   5.912  12.960   7.731  0.1436 -0.0801 -0.2670
  969loPI   C4A14490   5.590  12.866   8.046  0.0509  0.1487  0.2399
  969loPI   C5A14491   5.400  12.720   8.330  0.3881 -0.0057 -0.1450
  969loPI   C6A14492   5.459  12.608   8.829  0.0305  0.0121  0.1136
  969loPI   C1B14493   5.937  13.564   6.935 -0.2221  0.2091  0.0771
  969loPI   C2B14494   6.011  13.547   7.357  0.1402  0.1959  0.1567
  969loPI   C3B14495   5.821  13.455   7.730  0.0909  0.1642  0.2262
  969loPI   C4B14496   5.900  13.521   8.156  0.0153  0.0816 -0.1753
  970loPI    C114497  14.991   4.605   6.261  0.0166  0.1323  0.0830
  970loPI    C214498  14.822   4.342   6.011  0.0737  0.1879 -0.0145
  970loPI    C314499  15.115   4.582   5.881  0.1108  0.2097  0.1087
  970loPI   PO414500  14.845   4.735   6.349 -0.0163  0.0951 -0.0442
  970loPI   GL114501  14.822   4.974   6.666  0.2423 -0.2259  0.1375
  970loPI   GL214502  15.130   5.042   6.623 -0.0905 -0.0310  0.1806
  970loPI   C1A14503  14.777   5.001   7.059 -0.0135  0.2974 -0.0721
  970loPI   C2A14504  14.992   4.957   7.419  0.2170  0.0192  0.3364
  970loPI   C3A14505  15.088   4.898   7.811  0.4140 -0.2389 -0.1192
  970loPI   C4A14506  15.030   4.909   8.209 -0.0678 -0.1288 -0.2055
  970loPI   C5A14507  14.940   4.876   8.626  0.0837  0.0622 -0.0943
  970loPI   C6A14508  14.655   4.507   8.750 -0.3592  0.0449  0.3376
  970loPI   C1B14509  15.370   5.111   7.011 -0.0465 -0.1238 -0.1699
  970loPI   C2B14510  15.531   5.032   7.498  0.0247 -0.0055 -0.2070
  970loPI   C3B14511  15.661   5.108   7.877 -0.1094 -0.0418  0.3029
  970loPI   C4B14512  15.580   5.155   8.337  0.1433 -0.4018  0.0619
  971loPI    C114513   2.393   1.549   5.953 -0.0847 -0.0255  0.1485
  971loPI    C214514   2.181   1.280   5.748 -0.1576  0.1775 -0.0468
  971loPI    C314515   2.393   1.557   5.553  0.0730  0.1427  0.1502
  971loPI   PO414516   2.258   1.635   6.181  0.2122  0.0062 -0.0744
  971loPI   GL114517   2.359   1.911   6.450 -0.2193  0.0243 -0.0394
  971loPI   GL214518   2.082   1.959   6.575 -0.1536 -0.1402 -0.1329
  971loPI   C1A14519   2.544   1.849   6.745 -0.2487  0.0973  0.1596
  971loPI   C2A14520   2.572   2.087   7.181  0.2812 -0.0129 -0.1070
  971loPI   C3A14521   2.675   2.017   7.566 -0.1566  0.1476 -0.2973
  971loPI   C4A14522   2.707   1.982   8.081 -0.2462  0.0447 -0.1752
  971loPI   C5A14523   2.641   1.623   8.358 -0.1207 -0.1467 -0.3123
  971loPI   C6A14524   2.751   1.266   8.576 -0.2332  0.0744 -0.0309
  971loPI   C1B14525   2.060   1.820   7.003  0.0855 -0.1793  0.4264
  971loPI   C2B14526   2.231   1.809   7.412 -0.2028 -0.3423 -0.0214
  971loPI   C3B14527   2.213   1.886   7.844 -0.1268 -0.1617 -0.2167
  971loPI   C4B14528   2.061   1.895   8.388 -0.1542 -0.0122  0.0153
  972loPI    C114529   9.461  14.509   5.922 -0.0655  0.1624  0.0607
  972loPI    C214530   9.521  14.727   5.592  0.0104  0.1298  0.0529
  972loPI    C314531   9.591  14.333   5.587 -0.2422  0.0835  0.0325
  972loPI   PO414532   9.149  14.584   6.013 -0.1666  0.5610 -0.0892
  972loPI   GL114533   9.016  14.633   6.400  0.1342  0.4860 -0.0654
  972loPI   GL214534   8.825  14.841   6.631  0.1850 -0.0285 -0.1460
  972loPI   C1A14535   9.174  14.449   6.841 -0.2605  0.1970  0.2903
  972loPI   C2A14536   9.205  14.352   7.206  0.0667 -0.1214  0.0016
  972loPI   C3A14537   9.225  14.432   7.526 -0.0617 -0.0571  0.0438
  972loPI   C4A14538   9.098  14.369   7.905  0.0835  0.3253  0.2902
  972loPI   C5A14539   9.051  14.520   8.252  0.0089 -0.3107 -0.0942
  972loPI   C6A14540   8.959  14.610   8.633 -0.0713 -0.0291 -0.1288
  972loPI   C1B14541   8.829  14.791   7.141 -0.0414  0.0085 -0.4110
  972loPI   C2B14542   8.805  14.639   7.577  0.1311 -0.1667 -0.0376
  972loPI   C3B14543   8.649  14.567   8.034  0.1475  0.0839 -0.0830
  972loPI   C4B14544   8.405  14.779   8.382  0.1851 -0.0764  0.2620
  973loPI    C114545  10.157   3.939   6.201 -0.2594 -0.2559  0.2530
  973loPI    C214546  10.291   3.695   5.914  0.0759  0.0677  0.1262
  973loPI    C314547  10.034   3.988   5.824 -0.1022 -0.0559  0.2258
  973loPI   PO414548  10.316   3.864   6.448 -0.4915 -0.1821 -0.2357
  973loPI   GL114549  10.375   3.593   6.753  0.0111 -0.1264 -0.1440
  973loPI   GL214550  10.114   3.461   6.754 -0.3490 -0.2565 -0.1304
  973loPI   C1A14551  10.299   3.886   7.171 -0.2883 -0.0792 -0.0282
  973loPI   C2A14552  10.301   4.074   7.564  0.2399 -0.0054  0.1820
  973loPI   C3A14553  10.399   4.002   7.995 -0.2175 -0.2716 -0.1802
  973loPI   C4A14554  10.490   4.142   8.420  0.0102 -0.2004  0.0330
  973loPI   C5A14555  10.600   4.480   8.572 -0.1683  0.2780 -0.1549
  973loPI   C6A14556  10.819   4.785   8.690 -0.1125  0.0610  0.1670
  973loPI   C1B14557  10.168   3.450   7.238 -0.0542  0.2117 -0.2232
  973loPI   C2B14558  10.214   3.475   7.715  0.2389 -0.2331  0.1205
  973loPI   C3B14559  10.239   3.544   8.124 -0.1089  0.0452 -0.2666
  973loPI   C4B14560  10.309   3.639   8.557 -0.2528 -0.0500 -0.1663
  974loPI    C114561   1.554  10.795   5.385 -0.0271 -0.0860  0.0246
  974loPI    C214562   1.320  11.065   5.206  0.0433  0.0112  0.0784
  974loPI    C314563   1.160  10.734   5.363 -0.0300 -0.0307 -0.0825
  974loPI   PO414564   1.691  11.009   5.573  0.0689 -0.1156 -0.0924
  974loPI   GL114565   1.795  10.944   6.012 -0.2405  0.0140 -0.0600
  974loPI   GL214566   1.761  11.165   6.178  0.1320 -0.4590 -0.0982
  974loPI   C1A14567   1.825  10.564   6.385  0.0331  0.0735  0.0461
  974loPI   C2A14568   1.704  10.516   6.862  0.3102 -0.0131  0.2378
  974loPI   C3A14569   1.769  10.399   7.310  0.0455 -0.1137 -0.0736
  974loPI   C4A14570   1.683  10.396   7.762 -0.0396  0.1290 -0.0472
  974loPI   C5A14571   1.743  10.633   8.144 -0.3745 -0.0283 -0.0645
  974loPI   C6A14572   1.817  10.775   8.636  0.0049  0.1589 -0.0506
  974loPI   C1B14573   1.780  11.027   6.627 -0.0628 -0.0311 -0.0667
  974loPI   C2B14574   1.706  10.984   7.036  0.0626 -0.3053  0.4666
  974loPI   C3B14575   1.830  10.980   7.452  0.1249 -0.0271 -0.0270
  974loPI   C4B14576   1.767  10.968   7.812 -0.1439 -0.0052  0.1845
  975loPI    C114577   1.062  17.385   5.792  0.0404  0.1694 -0.0216
  975loPI    C214578   0.814  17.248   5.510 -0.1921  0.1761  0.1767
  975loPI    C314579   1.147  17.045   5.599 -0.3895 -0.1151  0.2699
  975loPI   PO414580   0.913  17.382   6.116  0.3918  0.2542 -0.0257
  975loPI   GL114581   0.802  17.222   6.484  0.1158  0.1180 -0.0676
  975loPI   GL214582   1.052  17.019   6.562  0.0461 -0.3550 -0.0328
  975loPI   C1A14583   0.926  17.344   6.884 -0.4431  0.3157  0.0011
  975loPI   C2A14584   0.983  17.383   7.282 -0.0382 -0.1443 -0.1934
  975loPI   C3A14585   1.033  17.503   7.666  0.1457 -0.1633 -0.0337
  975loPI   C4A14586   1.046  17.621   8.162 -0.3523  0.0340 -0.3200
  975loPI   C5A14587   0.810  17.513   8.589 -0.1167  0.1480  0.3969
  975loPI   C6A14588   0.976  17.098   8.763 -0.1449  0.0188  0.0290
  975loPI   C1B14589   1.199  16.963   7.047  0.3117 -0.1689  0.1862
  975loPI   C2B14590   1.053  16.846   7.403 -0.1068 -0.1844  0.1645
  975loPI   C3B14591   1.077  16.895   7.914  0.0748  0.2781 -0.1832
  975loPI   C4B14592   0.975  17.113   8.252 -0.0077 -0.0657 -0.1409
  976loPI    C114593  17.124   6.656   5.844  0.0413  0.2065  0.1686
  976loPI    C214594  16.949   6.513   5.515  0.1417 -0.0505  0.2245
  976loPI    C314595  17.104   6.881   5.514  0.5020 -0.1949 -0.1481
  976loPI   PO414596  17.226   6.511   5.972 -0.1182  0.1933 -0.1462
  976loPI   GL114597  17.279   6.605   6.409  0.0985  0.1313  0.2149
  976loPI   GL214598  17.025   6.740   6.428  0.1479 -0.0127 -0.0404
  976loPI   C1A14599  17.447   6.683   6.822 -0.1338 -0.4734 -0.1129
  976loPI   C2A14600  17.343   6.752   7.288  0.0519 -0.3601 -0.1367
  976loPI   C3A14601  17.143   6.683   7.679  0.0915  0.1944 -0.1237
  976loPI   C4A14602  17.235   6.713   8.098 -0.4281  0.0439 -0.4062
  976loPI   C5A14603  17.132   6.424   8.479 -0.0330 -0.1549  0.0658
  976loPI   C6A14604  17.003   6.431   8.916  0.0606 -0.0492 -0.0512
  976loPI   C1B14605  17.216   7.077   6.631 -0.0281  0.0249  0.0659
  976loPI   C2B14606  17.433   7.171   6.964  0.1513  0.0097  0.0212
  976loPI   C3B14607  17.435   7.278   7.392  0.1537  0.0302  0.1947
  976loPI   C4B14608  17.269   7.177   7.803 -0.1575 -0.0507 -0.0165
  977loPI    C114609   9.341   9.369   5.613  0.1274 -0.0293  0.0494
  977loPI    C214610   9.119   9.509   5.915 -0.0252  0.1915 -0.1614
  977loPI    C314611   8.950   9.431   5.562  0.1552 -0.0495 -0.1973
  977loPI   PO414612   9.492   9.194   5.781  0.3277  0.0881  0.1201
  977loPI   GL114613   9.543   9.199   6.104  0.2354  0.3291  0.0824
  977loPI   GL214614   9.766   9.128   6.182 -0.0087  0.0559 -0.1613
  977loPI   C1A14615   9.337   9.107   6.477  0.0081  0.4375 -0.0408
  977loPI   C2A14616   9.371   9.100   6.930 -0.2123  0.1717 -0.0963
  977loPI   C3A14617   9.426   9.140   7.402 -0.2820 -0.3166 -0.0964
  977loPI   C4A14618   9.316   8.973   7.745 -0.1557 -0.1350 -0.0908
  977loPI   C5A14619   9.354   8.916   8.208 -0.0819  0.1120 -0.0820
  977loPI   C6A14620   9.000   8.830   8.503 -0.0061  0.2397 -0.1623
  977loPI   C1B14621   9.837   9.244   6.605 -0.1828  0.1792 -0.3270
  977loPI   C2B14622   9.973   9.302   7.040 -0.2087 -0.1940 -0.1798
  977loPI   C3B14623   9.927   9.310   7.471  0.1814 -0.1670 -0.1155
  977loPI   C4B14624   9.783   9.212   7.903  0.4369 -0.0306 -0.1454
  978loPI    C114625  11.806   4.431   5.935  0.1406 -0.1637 -0.0361
  978loPI    C214626  12.048   4.620   5.679  0.1623 -0.0701  0.0528
  978loPI    C314627  11.676   4.523   5.568  0.0854  0.1966  0.0693
  978loPI   PO414628  12.089   4.271   6.012 -0.1546 -0.2947  0.0752
  978loPI   GL114629  12.203   4.280   6.390 -0.2670 -0.1622  0.0141
  978loPI   GL214630  11.917   4.471   6.540  0.3251  0.1079  0.0364
  978loPI   C1A14631  12.272   4.166   6.789  0.1584 -0.1210 -0.2404
  978loPI   C2A14632  12.223   4.129   7.233  0.3426  0.1206 -0.1694
  978loPI   C3A14633  12.231   4.248   7.638  0.2413  0.1748  0.1017
  978loPI   C4A14634  12.305   4.320   8.078  0.1313 -0.0980  0.0811
  978loPI   C5A14635  12.348   4.215   8.486  0.0298  0.0796 -0.0193
  978loPI   C6A14636  12.179   4.203   8.960  0.0083  0.2523  0.1322
  978loPI   C1B14637  11.865   4.551   7.038 -0.2672  0.0057  0.3738
  978loPI   C2B14638  11.867   4.604   7.475 -0.2236 -0.0543 -0.3471
  978loPI   C3B14639  11.737   4.518   7.791  0.0185 -0.0750 -0.2953
  978loPI   C4B14640  11.794   4.469   8.324  0.0946  0.0445  0.1013
  979loPI    C114641   4.161  12.651   5.854 -0.2176 -0.1325  0.1363
  979loPI    C214642   4.203  12.725   5.463 -0.1608 -0.2411  0.1214
  979loPI    C314643   3.854  12.799   5.645 -0.1480 -0.0696  0.0779
  979loPI   PO414644   4.315  12.796   6.016  0.4446  0.0413 -0.3338
  979loPI   GL114645   4.375  12.904   6.459  0.1239  0.2187 -0.2056
  979loPI   GL214646   4.486  12.540   6.481  0.1028  0.3251 -0.0791
  979loPI   C1A14647   4.462  12.978   6.826  0.0568 -0.2881 -0.0772
  979loPI   C2A14648   4.470  12.961   7.272 -0.6011 -0.0003 -0.1429
  979loPI   C3A14649   4.458  12.878   7.610  0.2791  0.1628 -0.0034
  979loPI   C4A14650   4.545  13.049   8.058  0.0173  0.1775  0.3375
  979loPI   C5A14651   4.724  13.334   8.495  0.2149  0.0764 -0.2785
  979loPI   C6A14652   4.707  13.622   8.910  0.1141  0.1481  0.1902
  979loPI   C1B14653   4.395  12.476   6.893  0.0551 -0.0105  0.0401
  979loPI   C2B14654   4.424  12.468   7.334  0.1304  0.0446 -0.3186
  979loPI   C3B14655   4.322  12.297   7.729 -0.1881  0.0970  0.1425
  979loPI   C4B14656   4.427  12.363   8.183 -0.0744 -0.0314 -0.0518
  980loPI    C114657  15.847  11.856   5.525  0.2002 -0.1109 -0.1208
  980loPI    C214658  16.118  12.150   5.510  0.3211 -0.2201 -0.0995
  980loPI    C314659  15.856  12.104   5.211  0.2004  0.0039 -0.0309
  980loPI   PO414660  15.870  11.759   5.860  0.0439 -0.1640 -0.1276
  980loPI   GL114661  15.757  11.917   6.291  0.1425 -0.0567 -0.1871
  980loPI   GL214662  15.527  11.739   6.395 -0.1368 -0.0965 -0.1071
  980loPI   C1A14663  16.060  11.815   6.639  0.0449  0.0210  0.1554
  980loPI   C2A14664  16.159  11.851   7.057 -0.3142 -0.1294  0.0426
  980loPI   C3A14665  16.118  11.755   7.528  0.2737  0.1545 -0.2269
  980loPI   C4A14666  16.157  11.657   7.882 -0.1291 -0.2812  0.0441
  980loPI   C5A14667  16.371  11.569   8.314 -0.1149 -0.0522 -0.1574
  980loPI   C6A14668  16.585  11.291   8.561 -0.0601  0.2340  0.1169
  980loPI   C1B14669  15.610  11.980   6.837 -0.0272 -0.2423  0.0447
  980loPI   C2B14670  15.725  11.986   7.235 -0.0829 -0.2616  0.0375
  980loPI   C3B14671  15.743  11.978   7.706 -0.3784 -0.3689 -0.0390
  980loPI   C4B14672  15.677  11.889   8.205 -0.2167  0.0909 -0.2743
  981loPI    C114673  10.734   4.456   5.821 -0.2474  0.0894  0.0924
  981loPI    C214674  10.962   4.130   5.859 -0.3177  0.0393  0.0874
  981loPI    C314675  10.921   4.305   5.502 -0.2907  0.0457  0.0875
  981loPI   PO414676  10.769   4.615   6.065 -0.1311 -0.3593 -0.0504
  981loPI   GL114677  11.047   4.718   6.372  0.3509 -0.0869 -0.2032
  981loPI   GL214678  11.338   4.737   6.381  0.0275  0.1727  0.2839
  981loPI   C1A14679  10.976   4.712   6.903  0.0670 -0.1278  0.0737
  981loPI   C2A14680  10.864   4.690   7.348  0.2156 -0.1958 -0.0076
  981loPI   C3A14681  10.920   4.776   7.702 -0.0166  0.1586 -0.0730
  981loPI   C4A14682  11.040   4.762   8.125  0.0332  0.2469 -0.0200
  981loPI   C5A14683  11.268   4.968   8.506 -0.0016  0.3366 -0.0465
  981loPI   C6A14684  11.352   5.302   8.620 -0.3777  0.0241 -0.1110
  981loPI   C1B14685  11.413   4.960   6.833 -0.2573 -0.0052 -0.0376
  981loPI   C2B14686  11.315   4.911   7.355 -0.1332  0.0124 -0.3368
  981loPI   C3B14687  11.410   4.942   7.753 -0.0404 -0.0582  0.0008
  981loPI   C4B14688  11.538   4.847   8.120 -0.2995  0.0077 -0.4617
  982loPI    C114689   2.207  16.613   5.711 -0.1254 -0.0032 -0.1540
  982loPI    C214690   2.315  16.801   5.375 -0.4341  0.1187 -0.1886
  982loPI    C314691   2.263  16.405   5.374 -0.1023  0.0717 -0.1967
  982loPI   PO414692   2.398  16.689   5.970 -0.1143  0.0712  0.1090
  982loPI   GL114693   2.510  16.652   6.378  0.1385  0.0355  0.0012
  982loPI   GL214694   2.208  16.642   6.463 -0.0399 -0.1180 -0.2378
  982loPI   C1A14695   2.674  16.537   6.799 -0.1418  0.1884 -0.1609
  982loPI   C2A14696   2.746  16.482   7.332 -0.1319  0.0164 -0.0968
  982loPI   C3A14697   2.767  16.498   7.777 -0.1650 -0.0648  0.1057
  982loPI   C4A14698   2.642  16.390   8.181  0.0638  0.1084  0.0098
  982loPI   C5A14699   2.665  16.726   8.534  0.0974 -0.1363 -0.0846
  982loPI   C6A14700   2.756  16.870   8.931  0.0288  0.2628 -0.0696
  982loPI   C1B14701   2.150  16.919   6.789  0.1456  0.1617 -0.0990
  982loPI   C2B14702   2.079  17.021   7.234 -0.0040  0.0215 -0.3517
  982loPI   C3B14703   1.987  17.083   7.537 -0.1339 -0.0599  0.0209
  982loPI   C4B14704   1.822  17.347   7.697 -0.1150 -0.2425  0.4010
  983loPI    C114705   9.826  13.479   5.915 -0.0892 -0.1438  0.1334
  983loPI    C214706  10.206  13.585   5.854 -0.1921  0.1564 -0.0033
  983loPI    C314707   9.997  13.411   5.561 -0.1181 -0.1436  0.1193
  983loPI   PO414708   9.799  13.318   6.174 -0.2677 -0.0465  0.1487
  983loPI   GL114709   9.529  13.263   6.592 -0.1826  0.1954 -0.1975
  983loPI   GL214710   9.593  13.538   6.565  0.0087 -0.0918 -0.0556
  983loPI   C1A14711   9.129  13.337   6.789 -0.0884 -0.0862 -0.1399
  983loPI   C2A14712   9.053  13.341   7.227  0.0709 -0.0107  0.2071
  983loPI   C3A14713   9.037  13.370   7.713  0.0108 -0.0635 -0.2702
  983loPI   C4A14714   9.018  13.344   8.080 -0.0661 -0.0212  0.0346
  983loPI   C5A14715   9.207  13.290   8.414 -0.1181  0.2473  0.4053
  983loPI   C6A14716   9.173  12.962   8.680  0.2058 -0.1863 -0.0686
  983loPI   C1B14717   9.549  13.566   7.035 -0.0939  0.0282  0.1210
  983loPI   C2B14718   9.487  13.492   7.467  0.0569  0.2108 -0.0864
  983loPI   C3B14719   9.521  13.491   7.917 -0.0825  0.3629  0.0576
  983loPI   C4B14720   9.461  13.748   8.307  0.2689 -0.2633 -0.2554
  984loPI    C114721   8.688  15.989   5.883  0.0321 -0.1588  0.1681
  984loPI    C214722   9.013  15.955   5.652 -0.0915  0.0052 -0.0340
  984loPI    C314723   8.658  15.831   5.517 -0.1044 -0.2343  0.2114
  984loPI   PO414724   8.713  15.925   6.045 -0.1947 -0.1692  0.0080
  984loPI   GL114725   8.696  15.788   6.359  0.0648  0.0265  0.1624
  984loPI   GL214726   9.021  15.869   6.524  0.3681  0.4759 -0.1202
  984loPI   C1A14727   8.497  15.690   6.807  0.1668 -0.0112  0.0082
  984loPI   C2A14728   8.440  15.573   7.132 -0.0477 -0.0990  0.2416
  984loPI   C3A14729   8.510  15.512   7.513 -0.0456  0.1968  0.2470
  984loPI   C4A14730   8.269  15.578   7.960  0.1341  0.1040  0.3908
  984loPI   C5A14731   8.058  15.417   8.266  0.5035  0.0904 -0.0252
  984loPI   C6A14732   7.854  15.433   8.746  0.0317  0.1144  0.0153
  984loPI   C1B14733   8.945  15.834   6.893  0.3625  0.0082 -0.1855
  984loPI   C2B14734   8.940  15.730   7.306  0.1920  0.1414 -0.2566
  984loPI   C3B14735   8.924  15.792   7.830  0.1413 -0.0222 -0.1736
  984loPI   C4B14736   8.744  15.752   8.149  0.0719 -0.0568 -0.2043
  985loPI    C114737   0.189  14.666   6.058 -0.0819  0.1700 -0.0578
  985loPI    C214738  -0.047  14.542   5.760 -0.0357  0.2829 -0.1423
  985loPI    C314739   0.249  14.801   5.686 -0.0471  0.3398  0.0084
  985loPI   PO414740   0.084  14.794   6.289 -0.0318 -0.1104  0.0567
  985loPI   GL114741  -0.016  14.578   6.632  0.3512  0.2682 -0.0797
  985loPI   GL214742   0.198  14.381   6.536 -0.1674 -0.2325 -0.1880
  985loPI   C1A14743  -0.153  14.849   6.963  0.0170  0.2006 -0.0930
  985loPI   C2A14744  -0.346  14.703   7.304 -0.1932  0.3772 -0.0946
  985loPI   C3A14745  -0.683  14.844   7.527 -0.0936  0.1463  0.0797
  985loPI   C4A14746  -0.755  15.241   7.872 -0.1996 -0.1158  0.0788
  985loPI   C5A14747  -0.796  15.615   7.941 -0.1339 -0.0627  0.2653
  985loPI   C6A14748  -0.759  16.027   8.174 -0.2313  0.0521 -0.1937
  985loPI   C1B14749   0.294  14.282   6.876 -0.3474 -0.0088 -0.0620
  985loPI   C2B14750   0.340  14.121   7.220 -0.1501  0.0075  0.2600
  985loPI   C3B14751   0.458  13.751   7.402  0.3381  0.1362 -0.1597
  985loPI   C4B14752   0.642  13.556   7.869 -0.0124 -0.0160  0.1181
  986loPI    C114753  13.223   6.425   6.091 -0.0290 -0.1761 -0.1458
  986loPI    C214754  13.038   6.671   5.834  0.0532  0.2157  0.1601
  986loPI    C314755  13.400   6.524   5.746 -0.1635 -0.1212 -0.1996
  986loPI   PO414756  12.992   6.426   6.278 -0.5083  0.0437 -0.0336
  986loPI   GL114757  12.856   6.539   6.716  0.1805  0.0678 -0.1818
  986loPI   GL214758  12.561   6.414   6.846 -0.3184  0.3386  0.0457
  986loPI   C1A14759  13.015   6.540   7.095 -0.1681  0.0096  0.0332
  986loPI   C2A14760  12.981   6.490   7.467  0.0077  0.1871  0.1268
  986loPI   C3A14761  13.000   6.570   7.877 -0.0154 -0.0057 -0.0108
  986loPI   C4A14762  12.901   6.513   8.217 -0.0817  0.0267 -0.1137
  986loPI   C5A14763  13.025   6.526   8.606 -0.1217 -0.2062  0.0069
  986loPI   C6A14764  13.392   6.656   8.814 -0.1558  0.0162  0.1952
  986loPI   C1B14765  12.544   6.402   7.275  0.4124 -0.0119  0.0153
  986loPI   C2B14766  12.524   6.316   7.811  0.1707  0.2834  0.2918
  986loPI   C3B14767  12.397   6.404   8.255  0.4720 -0.1806  0.0076
  986loPI   C4B14768  12.533   6.428   8.604 -0.1624 -0.0011 -0.1926
  987loPI    C114769  10.614   5.704   5.936 -0.1238 -0.1147 -0.0567
  987loPI    C214770  10.527   6.056   6.103  0.0049 -0.1472  0.0812
  987loPI    C314771  10.324   5.932   5.782 -0.0912  0.0184  0.0765
  987loPI   PO414772  10.733   5.571   6.160  0.1887 -0.0391  0.3151
  987loPI   GL114773  10.543   5.369   6.556  0.0341 -0.1346 -0.2703
  987loPI   GL214774  10.582   5.025   6.627 -0.0860  0.2617  0.0620
  987loPI   C1A14775  10.583   5.537   6.915  0.0554 -0.1356  0.3091
  987loPI   C2A14776  10.574   5.570   7.385 -0.1040 -0.0722  0.1147
  987loPI   C3A14777  10.567   5.622   7.831  0.1520  0.1532 -0.2581
  987loPI   C4A14778  10.611   5.651   8.230 -0.1087 -0.2055  0.1172
  987loPI   C5A14779  10.777   5.882   8.519 -0.0676  0.1336  0.4028
  987loPI   C6A14780  10.974   6.097   8.774  0.2285 -0.1321  0.2400
  987loPI   C1B14781  10.579   4.975   7.071  0.2353 -0.2580 -0.3724
  987loPI   C2B14782  10.538   5.048   7.493  0.1878 -0.3216 -0.0033
  987loPI   C3B14783  10.579   5.168   7.985  0.0250  0.0306  0.0372
  987loPI   C4B14784  10.442   5.062   8.448  0.3617  0.0642  0.1290
  988loPI    C114785   2.929  12.881   5.844  0.2378 -0.2776 -0.1332
  988loPI    C214786   2.910  13.091   5.504 -0.1811  0.2341  0.1905
  988loPI    C314787   2.578  12.932   5.659  0.0010  0.0304  0.3799
  988loPI   PO414788   3.030  13.093   6.034 -0.1111 -0.2167  0.0282
  988loPI   GL114789   3.289  13.120   6.415  0.0389 -0.2081  0.0376
  988loPI   GL214790   3.563  13.123   6.414 -0.0582  0.0585 -0.4115
  988loPI   C1A14791   3.057  12.864   6.738  0.1637 -0.0331 -0.1513
  988loPI   C2A14792   3.127  12.905   7.109  0.0908  0.2406  0.1853
  988loPI   C3A14793   3.092  12.875   7.443  0.3485  0.1955 -0.0955
  988loPI   C4A14794   3.105  12.795   7.887 -0.0972 -0.1528  0.0413
  988loPI   C5A14795   3.102  12.758   8.342  0.3618 -0.1704  0.1821
  988loPI   C6A14796   3.449  12.608   8.442  0.1385  0.3126  0.0501
  988loPI   C1B14797   3.528  13.173   6.898 -0.0814  0.1453  0.1901
  988loPI   C2B14798   3.571  13.150   7.287  0.0807 -0.2251 -0.2141
  988loPI   C3B14799   3.539  12.997   7.659  0.0118  0.0250 -0.0875
  988loPI   C4B14800   3.625  12.937   8.069  0.0248  0.2129 -0.1233
  989loPI    C114801  10.976   2.446   5.903 -0.0916  0.1317 -0.1076
  989loPI    C214802  11.271   2.343   5.654  0.0403 -0.2580  0.1995
  989loPI    C314803  10.896   2.370   5.519  0.1951  0.1436 -0.1722
  989loPI   PO414804  11.094   2.611   6.077 -0.3727  0.2018 -0.2299
  989loPI   GL114805  11.263   2.581   6.494 -0.0494  0.1604  0.2205
  989loPI   GL214806  11.023   2.690   6.633  0.1042 -0.1099 -0.1455
  989loPI   C1A14807  11.463   2.514   6.972 -0.0480 -0.0502 -0.0168
  989loPI   C2A14808  11.445   2.407   7.479  0.0724 -0.1548 -0.2001
  989loPI   C3A14809  11.450   2.526   7.874  0.0892  0.1712  0.1783
  989loPI   C4A14810  11.466   2.466   8.255 -0.1407  0.0662  0.0522
  989loPI   C5A14811  11.561   2.163   8.658  0.1655  0.0376  0.0123
  989loPI   C6A14812  11.809   2.007   8.967 -0.0253  0.0587  0.2513
  989loPI   C1B14813  11.077   2.902   6.960 -0.2260  0.2387 -0.1596
  989loPI   C2B14814  11.123   3.286   7.210  0.0681  0.0344 -0.1481
  989loPI   C3B14815  11.215   3.334   7.656  0.1847  0.0131 -0.3058
  989loPI   C4B14816  11.145   3.356   8.072  0.0598 -0.5118 -0.0523
  990loPI    C114817   2.151  10.882   5.671 -0.2394  0.2034 -0.0721
  990loPI    C214818   2.024  10.796   5.301 -0.1734  0.2163 -0.0977
  990loPI    C314819   2.163  11.162   5.385 -0.0445  0.1682 -0.0994
  990loPI   PO414820   2.369  10.641   5.684  0.1896 -0.1356  0.0453
  990loPI   GL114821   2.255  10.431   6.033 -0.1441  0.2863  0.3884
  990loPI   GL214822   1.983  10.205   6.070 -0.1032  0.0309 -0.1333
  990loPI   C1A14823   2.305  10.459   6.458 -0.0892  0.3697  0.0690
  990loPI   C2A14824   2.262  10.448   6.904  0.0547  0.0577 -0.0163
  990loPI   C3A14825   2.209  10.603   7.388 -0.0337  0.0459  0.0450
  990loPI   C4A14826   2.198  10.681   7.856 -0.0737 -0.0053  0.0714
  990loPI   C5A14827   2.283  10.632   8.389 -0.0824 -0.0719  0.2415
  990loPI   C6A14828   2.491  10.869   8.654  0.0414 -0.1183 -0.1237
  990loPI   C1B14829   1.850   9.956   6.398 -0.0228  0.0668  0.0565
  990loPI   C2B14830   1.698   9.987   6.801  0.1543  0.0644  0.0919
  990loPI   C3B14831   1.727   9.915   7.266 -0.0520 -0.3308  0.2403
  990loPI   C4B14832   1.586   9.928   7.769  0.0480  0.2312 -0.0653
  991loPI    C114833  15.149   6.507   5.978 -0.3089  0.1559  0.2223
  991loPI    C214834  14.872   6.296   5.781 -0.0927  0.0221  0.0562
  991loPI    C314835  14.879   6.695   5.750 -0.2208  0.0208  0.0039
  991loPI   PO414836  15.172   6.311   6.226  0.0589 -0.0303  0.2328
  991loPI   GL114837  14.860   6.339   6.555  0.0698  0.1713 -0.0975
  991loPI   GL214838  14.877   5.939   6.686 -0.0323  0.0405 -0.0689
  991loPI   C1A14839  14.770   6.339   6.982  0.0486 -0.1172 -0.1869
  991loPI   C2A14840  14.848   6.387   7.366  0.0201 -0.0715  0.1571
  991loPI   C3A14841  14.904   6.237   7.851 -0.1783  0.0776  0.1927
  991loPI   C4A14842  14.783   6.191   8.274  0.1694  0.0419 -0.2808
  991loPI   C5A14843  14.654   6.316   8.627  0.0156 -0.0542 -0.3602
  991loPI   C6A14844  14.288   6.242   8.872 -0.1692 -0.1182 -0.1701
  991loPI   C1B14845  14.919   5.932   7.157 -0.0815  0.1336 -0.0932
  991loPI   C2B14846  14.719   5.842   7.628 -0.2642  0.2270  0.2855
  991loPI   C3B14847  14.831   5.711   8.075  0.4532 -0.0406 -0.1082
  991loPI   C4B14848  14.716   5.763   8.476  0.2556  0.0527 -0.0541
  992loPI    C114849   2.001  14.075   6.225  0.1475  0.1426  0.0727
  992loPI    C214850   1.664  14.163   6.028  0.1092 -0.1295  0.0116
  992loPI    C314851   2.019  14.265   5.873  0.0690 -0.1305 -0.0823
  992loPI   PO414852   1.923  13.804   6.328  0.2368  0.3686  0.1007
  992loPI   GL114853   2.070  13.443   6.584  0.0045  0.1327  0.0074
  992loPI   GL214854   2.211  13.065   6.500  0.2316  0.3803  0.0405
  992loPI   C1A14855   2.201  13.495   7.000  0.0815  0.4573 -0.1243
  992loPI   C2A14856   2.327  13.487   7.444  0.3489  0.0276 -0.2424
  992loPI   C3A14857   2.181  13.653   7.866  0.3084  0.1574  0.1884
  992loPI   C4A14858   2.168  13.590   8.230 -0.1772  0.0086 -0.2689
  992loPI   C5A14859   2.348  13.257   8.509 -0.1737  0.3561 -0.0476
  992loPI   C6A14860   2.224  13.156   8.942  0.0816  0.0475 -0.0644
  992loPI   C1B14861   2.235  13.029   6.970 -0.1622 -0.0873  0.4829
  992loPI   C2B14862   2.229  12.999   7.420 -0.0825  0.0235  0.3071
  992loPI   C3B14863   2.299  13.104   7.789 -0.0102 -0.2632 -0.2286
  992loPI   C4B14864   2.184  12.946   8.092  0.2471  0.2690 -0.2025
  993loPI    C114865   0.216   4.717   5.778 -0.2230  0.0642  0.0997
  993loPI    C214866   0.105   4.350   5.665  0.1814  0.0086 -0.1341
  993loPI    C314867   0.130   4.644   5.395  0.2165  0.1171 -0.0137
  993loPI   PO414868   0.091   4.842   6.052  0.0984  0.1220  0.0127
  993loPI   GL114869  -0.110   4.706   6.413  0.0532 -0.1602 -0.0574
  993loPI   GL214870   0.079   4.562   6.561  0.1059  0.1547 -0.1228
  993loPI   C1A14871  -0.136   4.844   6.887 -0.0510  0.0901  0.1268
  993loPI   C2A14872  -0.257   4.818   7.389 -0.0388 -0.1924  0.1179
  993loPI   C3A14873  -0.274   4.887   7.795 -0.1375 -0.1366  0.1593
  993loPI   C4A14874  -0.274   4.883   8.183  0.1433 -0.0650 -0.3723
  993loPI   C5A14875   0.014   4.964   8.424  0.2136 -0.3134 -0.1498
  993loPI   C6A14876  -0.265   5.085   8.702 -0.1004 -0.0159 -0.1016
  993loPI   C1B14877   0.284   4.512   6.922  0.1128 -0.2689  0.2520
  993loPI   C2B14878   0.236   4.566   7.355 -0.0948  0.1560 -0.0570
  993loPI   C3B14879   0.309   4.536   7.677  0.1229  0.0552  0.0006
  993loPI   C4B14880   0.196   4.653   8.063 -0.2583  0.0616  0.2327
  994loPI    C114881  14.507   2.102   5.752 -0.1352  0.2248 -0.2044
  994loPI    C214882  14.274   1.779   5.790  0.2168 -0.0334 -0.1905
  994loPI    C314883  14.110   2.135   5.710 -0.2195 -0.1269  0.2340
  994loPI   PO414884  14.630   2.130   5.904 -0.1408  0.0161 -0.0531
  994loPI   GL114885  14.827   1.967   6.223  0.2471 -0.1385  0.0037
  994loPI   GL214886  14.709   2.156   6.478  0.0976  0.0131 -0.0226
  994loPI   C1A14887  15.074   1.960   6.737 -0.0241  0.0752 -0.1586
  994loPI   C2A14888  15.121   1.944   7.236  0.1701  0.1944  0.5442
  994loPI   C3A14889  15.194   1.786   7.678 -0.0965  0.1538 -0.5272
  994loPI   C4A14890  15.340   1.765   8.026  0.1804 -0.0551  0.3177
  994loPI   C5A14891  15.693   1.559   8.246  0.2470 -0.0585 -0.1411
  994loPI   C6A14892  16.038   1.508   8.460 -0.0364  0.0568 -0.2913
  994loPI   C1B14893  14.718   2.194   7.009  0.3917  0.1384 -0.1282
  994loPI   C2B14894  14.628   2.237   7.407 -0.1200  0.2340  0.0886
  994loPI   C3B14895  14.611   2.306   7.853 -0.3375  0.0054  0.0018
  994loPI   C4B14896  14.627   2.478   8.358 -0.4801 -0.1802 -0.0310
  995loPI    C114897  15.083   2.277   5.623  0.1270 -0.3805  0.1577
  995loPI    C214898  14.961   1.904   5.543 -0.4772 -0.1781  0.0772
  995loPI    C314899  14.816   2.211   5.332  0.1960  0.0901 -0.0212
  995loPI   PO414900  15.090   2.291   5.906  0.4083  0.0828 -0.2830
  995loPI   GL114901  15.195   2.278   6.322  0.4112  0.0302  0.0603
  995loPI   GL214902  15.094   2.476   6.536 -0.0534  0.0780 -0.0525
  995loPI   C1A14903  15.531   2.176   6.668  0.0626  0.1370  0.0435
  995loPI   C2A14904  15.578   2.091   7.198 -0.0864 -0.2327  0.2249
  995loPI   C3A14905  15.618   2.203   7.623  0.0073  0.1670 -0.0388
  995loPI   C4A14906  15.698   2.139   8.103 -0.0401 -0.1950  0.2234
  995loPI   C5A14907  15.603   2.236   8.545 -0.0916  0.0365  0.0993
  995loPI   C6A14908  15.533   2.021   8.915  0.1750 -0.0003  0.0757
  995loPI   C1B14909  15.193   2.449   7.014  0.0804 -0.2407  0.1983
  995loPI   C2B14910  15.293   2.493   7.406  0.0840  0.1050 -0.0943
  995loPI   C3B14911  15.132   2.301   7.822  0.0692  0.0342  0.1437
  995loPI   C4B14912  15.317   2.471   8.175  0.0742 -0.1358 -0.0312
  996loPI    C114913   3.739   0.804   5.539  0.2070  0.1030 -0.0791
  996loPI    C214914   3.740   0.417   5.638  0.0949  0.1223 -0.0015
  996loPI    C314915   3.726   0.524   5.253  0.0135  0.0492 -0.0193
  996loPI   PO414916   3.857   0.892   5.660  0.1294 -0.3634  0.3171
  996loPI   GL114917   3.906   0.802   6.139 -0.1185  0.0311 -0.0218
  996loPI   GL214918   3.637   0.922   6.283 -0.0172  0.4343 -0.2897
  996loPI   C1A14919   4.124   0.728   6.500  0.0304  0.0766  0.1798
  996loPI   C2A14920   4.280   0.587   6.880 -0.1092  0.1823  0.0696
  996loPI   C3A14921   4.241   0.677   7.371 -0.0519 -0.0672  0.0857
  996loPI   C4A14922   4.248   0.671   7.756  0.5008  0.0391  0.0337
  996loPI   C5A14923   4.264   0.846   8.134  0.5530 -0.0331  0.0559
  996loPI   C6A14924   4.030   1.003   8.423  0.0146 -0.2254 -0.0106
  996loPI   C1B14925   3.668   0.944   6.676  0.1502  0.0003 -0.0751
  996loPI   C2B14926   3.777   1.027   7.084  0.1016  0.2052  0.0742
  996loPI   C3B14927   3.791   0.930   7.538  0.1410  0.0732  0.0612
  996loPI   C4B14928   3.904   1.062   7.874 -0.1251 -0.0208 -0.2526
  997loPI    C114929   1.445   1.790   5.625 -0.0440  0.2181  0.0210
  997loPI    C214930   1.140   1.806   5.366  0.0235  0.1023 -0.0665
  997loPI    C314931   1.489   1.645   5.255 -0.0461 -0.2420  0.1951
  997loPI   PO414932   1.393   1.706   5.807 -0.0260 -0.1271 -0.1432
  997loPI   GL114933   1.465   1.765   6.267 -0.0414 -0.2380 -0.2512
  997loPI   GL214934   1.151   1.984   6.247  0.0682  0.1296  0.1498
  997loPI   C1A14935   1.696   1.636   6.634 -0.1576  0.3743  0.0831
  997loPI   C2A14936   1.619   1.623   7.133 -0.0517  0.1963 -0.1699
  997loPI   C3A14937   1.654   1.713   7.464 -0.1758 -0.0056 -0.3061
  997loPI   C4A14938   1.741   1.697   7.941 -0.2567 -0.0422  0.2835
  997loPI   C5A14939   1.744   1.348   8.330  0.0544  0.5110  0.1308
  997loPI   C6A14940   1.900   1.001   8.418 -0.1244  0.0870  0.0586
  997loPI   C1B14941   1.216   1.852   6.718 -0.3727  0.0389  0.0119
  997loPI   C2B14942   1.244   1.918   7.101 -0.0306  0.2112 -0.3535
  997loPI   C3B14943   1.246   1.974   7.514  0.0106 -0.0528 -0.1591
  997loPI   C4B14944   1.336   1.974   7.963 -0.1056 -0.1233  0.1341
  998loPI    C114945   5.806  11.968   5.551  0.0116 -0.0056 -0.0519
  998loPI    C214946   6.087  12.252   5.525  0.0821 -0.0772 -0.0768
  998loPI    C314947   5.987  12.039   5.201 -0.0091 -0.0446 -0.0705
  998loPI   PO414948   5.896  11.886   5.822 -0.1246  0.0158 -0.1664
  998loPI   GL114949   6.117  12.186   6.068 -0.1205  0.1019  0.0200
  998loPI   GL214950   6.199  12.469   6.057 -0.0350  0.0209  0.0584
  998loPI   C1A14951   6.238  11.898   6.357  0.1144  0.1165 -0.0763
  998loPI   C2A14952   6.177  11.767   6.681  0.0357 -0.2663  0.0094
  998loPI   C3A14953   6.180  11.717   7.087 -0.2543  0.3520 -0.1058
  998loPI   C4A14954   6.067  11.653   7.509 -0.2498  0.3358 -0.1876
  998loPI   C5A14955   5.993  11.683   8.028  0.0274 -0.3318 -0.0693
  998loPI   C6A14956   5.645  11.888   8.230 -0.3816  0.0351  0.0020
  998loPI   C1B14957   6.145  12.396   6.541  0.1139 -0.4558 -0.2245
  998loPI   C2B14958   6.218  12.239   6.959 -0.0106 -0.3744  0.1205
  998loPI   C3B14959   6.120  12.132   7.380 -0.4288 -0.3124  0.2311
  998loPI   C4B14960   6.138  12.129   7.853 -0.0000 -0.1077 -0.0099
  999loPI    C114961  11.564   8.025   5.515 -0.0226 -0.2008  0.0195
  999loPI    C214962  11.284   8.300   5.591  0.1229 -0.0626  0.0607
  999loPI    C314963  11.505   8.326   5.259  0.0719 -0.1849  0.0163
  999loPI   PO414964  11.727   8.013   5.741  0.0069  0.0403  0.0212
  999loPI   GL114965  11.864   8.024   6.127 -0.0467  0.0913  0.0184
  999loPI   GL214966  12.064   8.186   6.380  0.0586 -0.1720  0.0137
  999loPI   C1A14967  11.544   7.968   6.474  0.0474  0.0445 -0.0320
  999loPI   C2A14968  11.495   8.023   6.899  0.1877  0.0609  0.1042
  999loPI   C3A14969  11.477   8.011   7.333 -0.0506 -0.0500 -0.0136
  999loPI   C4A14970  11.333   7.799   7.856  0.0462 -0.1491 -0.0482
  999loPI   C5A14971  11.247   7.911   8.244 -0.0723 -0.0581 -0.1187
  999loPI   C6A14972  11.097   7.948   8.627  0.0112 -0.0391 -0.3678
  999loPI   C1B14973  11.978   8.150   6.822  0.2473 -0.1450  0.2898
  999loPI   C2B14974  11.925   8.186   7.230 -0.1516 -0.1147  0.1237
  999loPI   C3B14975  11.910   8.085   7.629  0.0437  0.1615  0.1588
  999loPI   C4B14976  11.759   7.938   8.072  0.4293 -0.1661 -0.0591
 1000loPI    C114977   3.254  17.533   5.791 -0.0587 -0.0806 -0.0533
 1000loPI    C214978   3.347  17.753   5.470  0.0258  0.0869  0.0847
 1000loPI    C314979   3.504  17.388   5.514  0.0700  0.0920 -0.0292
 1000loPI   PO414980   3.282  17.727   5.999 -0.2065 -0.5400 -0.0630
 1000loPI   GL114981   3.553  17.704   6.406  0.1601 -0.2148  0.2157
 1000loPI   GL214982   3.665  18.009   6.383  0.4267 -0.0042  0.1596
 1000loPI   C1A14983   3.697  17.515   6.682  0.1637  0.1763 -0.4791
 1000loPI   C2A14984   3.586  17.543   7.075  0.0767 -0.1833  0.0851
 1000loPI   C3A14985   3.717  17.532   7.466  0.3960 -0.1599 -0.0764
 1000loPI   C4A14986   3.722  17.518   7.891  0.0340 -0.1347 -0.0612
 1000loPI   C5A14987   4.045  17.353   8.263  0.4137  0.1730  0.0801
 1000loPI   C6A14988   4.401  17.283   8.543  0.0387 -0.0610 -0.2126
 1000loPI   C1B14989   3.790  18.034   6.752 -0.0838  0.1174  0.3250
 1000loPI   C2B14990   3.718  18.081   7.172  0.1940  0.3060 -0.1743
 1000loPI   C3B14991   3.733  18.025   7.640 -0.0928 -0.2268 -0.2971
 1000loPI   C4B14992   3.866  18.108   8.028  0.0001  0.0295  0.1472
 1001loPI    C114993   2.670  12.267   5.775 -0.0613 -0.1506 -0.1781
 1001loPI    C214994   2.834  12.529   5.522  0.1919 -0.0142  0.1202
 1001loPI    C314995   2.610  12.229   5.381 -0.0603  0.3275 -0.2308
 1001loPI   PO414996   2.615  12.448   5.947  0.1318 -0.1962 -0.5899
 1001loPI   GL114997   2.629  12.306   6.403 -0.2599 -0.0740 -0.1088
 1001loPI   GL214998   2.925  12.423   6.416 -0.0606  0.0993  0.1192
 1001loPI   C1A14999   2.467  12.139   6.765 -0.0278  0.0619 -0.1865
 1001loPI   C2A15000   2.377  12.167   7.176 -0.3769 -0.0717  0.0447
 1001loPI   C3A15001   2.406  12.238   7.591 -0.2374  0.2804  0.2092
 1001loPI   C4A15002   2.601  12.126   7.979  0.3357 -0.0269 -0.1987
 1001loPI   C5A15003   2.798  11.945   8.378 -0.2974  0.1366 -0.4582
 1001loPI   C6A15004   2.563  11.517   8.510 -0.0197 -0.0464  0.0047
 1001loPI   C1B15005   2.917  12.367   6.820 -0.2141 -0.0055 -0.1197
 1001loPI   C2B15006   2.961  12.363   7.219  0.0818  0.1748 -0.2087
 1001loPI   C3B15007   2.963  12.340   7.694 -0.3989 -0.2344  0.1026
 1001loPI   C4B15008   3.057  12.337   8.153  0.1483  0.0057  0.3353
 1002loPI    C115009  13.444   9.168   5.731  0.0078 -0.2510  0.1513
 1002loPI    C215010  13.197   9.262   5.430  0.1673  0.1160  0.1291
 1002loPI    C315011  13.554   9.098   5.353  0.0739 -0.0964  0.1410
 1002loPI   PO415012  13.431   9.282   5.851  0.3522  0.0462 -0.1502
 1002loPI   GL115013  13.380   9.352   6.208 -0.2068 -0.0091  0.2977
 1002loPI   GL215014  13.366   9.661   6.201  0.0154  0.2710  0.0900
 1002loPI   C1A15015  13.481   9.278   6.567  0.1011  0.0176 -0.0109
 1002loPI   C2A15016  13.538   9.115   6.959  0.0639 -0.1008  0.0634
 1002loPI   C3A15017  13.457   9.110   7.312  0.1951 -0.0956 -0.1812
 1002loPI   C4A15018  13.432   9.082   7.775 -0.0255 -0.1716  0.1710
 1002loPI   C5A15019  13.374   9.071   8.184  0.0165  0.0458  0.0694
 1002loPI   C6A15020  13.476   8.826   8.627  0.1822  0.1716 -0.2520
 1002loPI   C1B15021  13.126   9.610   6.640 -0.1005 -0.0269 -0.0238
 1002loPI   C2B15022  13.092   9.449   7.010 -0.2005  0.1972 -0.0990
 1002loPI   C3B15023  13.098   9.447   7.476 -0.1810 -0.1471 -0.2918
 1002loPI   C4B15024  13.079   9.381   7.906  0.0028 -0.0454  0.0083
 1003loPI    C115025  11.323  10.316   5.556  0.2681  0.0741 -0.0169
 1003loPI    C215026  11.528  10.113   5.280  0.1168  0.1281 -0.1709
 1003loPI    C315027  11.329  10.444   5.177 -0.1451  0.0111 -0.0497
 1003loPI   PO415028  11.261  10.201   5.728 -0.2580 -0.0153 -0.0325
 1003loPI   GL115029  11.095  10.296   6.192  0.0582 -0.0713  0.0121
 1003loPI   GL215030  10.921  10.141   6.412  0.0308  0.2449  0.3255
 1003loPI   C1A15031  11.362  10.417   6.590 -0.1198  0.1245  0.0213
 1003loPI   C2A15032  11.359  10.412   7.057 -0.0715 -0.1071  0.1598
 1003loPI   C3A15033  11.353  10.381   7.481  0.0724  0.0194  0.2491
 1003loPI   C4A15034  11.457  10.310   7.904  0.1460  0.0537  0.0878
 1003loPI   C5A15035  11.297  10.186   8.354 -0.0136  0.2770 -0.3203
 1003loPI   C6A15036  11.051   9.861   8.391  0.0391 -0.1019 -0.2002
 1003loPI   C1B15037  10.913  10.243   6.813 -0.1899 -0.2245  0.1698
 1003loPI   C2B15038  10.958  10.121   7.184  0.2123  0.0669 -0.1039
 1003loPI   C3B15039  10.898  10.213   7.602 -0.0581  0.3082 -0.3178
 1003loPI   C4B15040  10.920  10.053   7.944 -0.0479  0.1034 -0.0005
 1004loPI    C115041   8.039   5.699   5.806  0.2135 -0.0740 -0.1649
 1004loPI    C215042   7.954   5.934   5.494 -0.1259 -0.0541 -0.0616
 1004loPI    C315043   8.030   5.546   5.436 -0.2657 -0.0672 -0.1626
 1004loPI   PO415044   8.217   5.807   5.950 -0.0417 -0.1741 -0.4256
 1004loPI   GL115045   8.274   6.007   6.240 -0.6238 -0.1245  0.1612
 1004loPI   GL215046   7.994   6.138   6.219 -0.2420  0.0508 -0.4813
 1004loPI   C1A15047   8.381   5.792   6.589 -0.0369 -0.1622  0.2199
 1004loPI   C2A15048   8.276   5.823   7.077 -0.0033 -0.2229  0.1512
 1004loPI   C3A15049   8.305   5.746   7.534  0.1159  0.0960  0.0923
 1004loPI   C4A15050   8.194   5.747   7.921  0.2521 -0.2033  0.1317
 1004loPI   C5A15051   8.186   5.698   8.377 -0.0871  0.1030  0.4012
 1004loPI   C6A15052   8.410   5.910   8.722 -0.0563 -0.0159 -0.0730
 1004loPI   C1B15053   7.952   5.961   6.732  0.0526 -0.2603  0.1834
 1004loPI   C2B15054   7.906   6.145   7.253 -0.2029  0.4723  0.1615
 1004loPI   C3B15055   7.830   5.969   7.688 -0.0067 -0.1139  0.1210
 1004loPI   C4B15056   7.864   6.096   8.043 -0.0307 -0.1688 -0.1288
 1005loPI    C115057   0.261  11.489   5.647 -0.2335 -0.0552  0.3188
 1005loPI    C215058  -0.000  11.362   5.373  0.0756  0.0337 -0.0246
 1005loPI    C315059   0.095  11.750   5.394  0.4091 -0.0402 -0.1111
 1005loPI   PO415060   0.374  11.267   5.721  0.1495 -0.1418  0.1490
 1005loPI   GL115061   0.423  11.079   6.132 -0.0706  0.2074 -0.2221
 1005loPI   GL215062   0.163  11.236   6.278 -0.3108 -0.1107 -0.2457
 1005loPI   C1A15063   0.407  10.874   6.480 -0.2567  0.3269  0.0375
 1005loPI   C2A15064   0.403  10.828   6.931 -0.2660  0.0081  0.2102
 1005loPI   C3A15065   0.499  10.851   7.309  0.1587  0.0927  0.0536
 1005loPI   C4A15066   0.286  10.911   7.716  0.0723 -0.0414 -0.1822
 1005loPI   C5A15067   0.450  10.888   8.127  0.3405 -0.0393 -0.1881
 1005loPI   C6A15068   0.666  11.145   8.396 -0.0832 -0.0190 -0.0531
 1005loPI   C1B15069   0.255  11.263   6.694  0.1739  0.0154 -0.1220
 1005loPI   C2B15070   0.317  11.316   7.128 -0.1728 -0.0793  0.0022
 1005loPI   C3B15071   0.544  11.403   7.514 -0.0239  0.1711 -0.1982
 1005loPI   C4B15072   0.399  11.349   7.960 -0.4116 -0.1765  0.1437
 1006loPI    C115073  11.544   6.669   5.704  0.1479 -0.3044 -0.1656
 1006loPI    C215074  11.749   6.932   5.482  0.0432 -0.0343  0.0518
 1006loPI    C315075  11.702   6.556   5.354  0.0548  0.0939 -0.3427
 1006loPI   PO415076  11.630   6.674   5.941 -0.0749  0.1284  0.0891
 1006loPI   GL115077  11.606   6.854   6.426  0.1669  0.0087 -0.0048
 1006loPI   GL215078  11.783   6.519   6.425 -0.0026  0.0363 -0.0562
 1006loPI   C1A15079  11.760   7.114   6.748  0.1046  0.0540  0.0803
 1006loPI   C2A15080  11.793   7.182   7.165  0.5117 -0.0948  0.0090
 1006loPI   C3A15081  11.812   7.082   7.545 -0.3443 -0.3242  0.1313
 1006loPI   C4A15082  11.679   6.962   7.923 -0.1357 -0.3256  0.3546
 1006loPI   C5A15083  11.637   7.091   8.364  0.1359  0.0216 -0.4588
 1006loPI   C6A15084  11.603   6.953   8.771 -0.3060  0.0250 -0.0072
 1006loPI   C1B15085  11.673   6.598   6.880  0.0106 -0.0753  0.0069
 1006loPI   C2B15086  11.799   6.559   7.272 -0.1080 -0.1244 -0.1547
 1006loPI   C3B15087  11.553   6.490   7.683  0.0133 -0.0922 -0.1804
 1006loPI   C4B15088  11.524   6.485   8.155 -0.2292  0.0068  0.0517
 1007loPI    C115089   1.272  16.563   6.259  0.2816  0.1332 -0.2167
 1007loPI    C215090   0.994  16.819   6.128  0.1352  0.0921  0.0061
 1007loPI    C315091   1.067  16.482   5.925 -0.0455  0.0579 -0.0034
 1007loPI   PO415092   1.241  16.545   6.554  0.0066 -0.2104  0.1764
 1007loPI   GL115093   1.030  16.502   6.858  0.2225  0.2065 -0.0758
 1007loPI   GL215094   0.823  16.660   6.809  0.0275  0.1406  0.1723
 1007loPI   C1A15095   1.153  16.425   7.174 -0.1075 -0.1027  0.0732
 1007loPI   C2A15096   1.162  16.439   7.624 -0.0452 -0.1322  0.0190
 1007loPI   C3A15097   1.192  16.362   8.054 -0.4074  0.0882 -0.1461
 1007loPI   C4A15098   1.138  16.126   8.536 -0.0204  0.2748  0.0251
 1007loPI   C5A15099   0.764  16.081   8.778  0.4106 -0.0198 -0.1963
 1007loPI   C6A15100   0.473  16.164   9.094 -0.0004 -0.0476  0.0787
 1007loPI   C1B15101   0.598  16.559   7.151 -0.1381 -0.0431 -0.2648
 1007loPI   C2B15102   0.315  16.623   7.538  0.1315 -0.2840 -0.0297
 1007loPI   C3B15103   0.113  16.555   7.963 -0.0444  0.1073  0.0443
 1007loPI   C4B15104   0.182  16.734   8.362  0.1947  0.0993 -0.0875
 1008loPI    C115105   9.503   6.023   5.646 -0.0541  0.0031 -0.0199
 1008loPI    C215106   9.619   6.301   5.383  0.0540 -0.0369 -0.0149
 1008loPI    C315107   9.289   6.086   5.314  0.0550 -0.0134 -0.0940
 1008loPI   PO415108   9.556   6.124   5.936  0.0992 -0.3260  0.2701
 1008loPI   GL115109   9.620   6.133   6.299 -0.0104 -0.1391 -0.1539
 1008loPI   GL215110   9.318   5.979   6.497 -0.3029 -0.0381  0.2653
 1008loPI   C1A15111   9.812   6.135   6.731 -0.4106  0.0661  0.3207
 1008loPI   C2A15112   9.895   6.209   7.107 -0.2654  0.0195  0.0563
 1008loPI   C3A15113   9.798   6.273   7.560 -0.1846  0.0700 -0.1202
 1008loPI   C4A15114   9.696   6.172   8.016  0.1403  0.2897  0.2329
 1008loPI   C5A15115   9.535   6.404   8.409 -0.3817  0.3168  0.1871
 1008loPI   C6A15116   9.373   6.315   8.802  0.3678  0.3524 -0.0629
 1008loPI   C1B15117   9.330   6.037   6.891 -0.0884 -0.1699  0.1121
 1008loPI   C2B15118   9.331   6.138   7.410 -0.2478  0.0082  0.0263
 1008loPI   C3B15119   9.215   6.020   7.820 -0.1058 -0.0297 -0.0839
 1008loPI   C4B15120   9.136   5.996   8.217  0.0620 -0.2316 -0.0977
 1009loPI    C115121   3.298  10.196   5.495  0.0124  0.0126  0.1697
 1009loPI    C215122   2.970  10.227   5.268  0.0502  0.1567  0.1335
 1009loPI    C315123   3.092   9.868   5.396 -0.0238  0.0843  0.0033
 1009loPI   PO415124   3.235  10.415   5.676  0.0219  0.0802 -0.2067
 1009loPI   GL115125   3.106  10.590   6.071  0.1889 -0.0707 -0.2741
 1009loPI   GL215126   2.794  10.660   5.962 -0.2258  0.1247  0.2223
 1009loPI   C1A15127   3.228  10.500   6.536  0.1251  0.2171  0.1264
 1009loPI   C2A15128   3.146  10.462   6.986 -0.1520  0.1566  0.2316
 1009loPI   C3A15129   3.119  10.474   7.446  0.0826  0.0574  0.2413
 1009loPI   C4A15130   3.083  10.488   7.803 -0.2444 -0.0186  0.0034
 1009loPI   C5A15131   3.413  10.567   8.157 -0.0683 -0.0460  0.1819
 1009loPI   C6A15132   3.373  10.561   8.537 -0.2201  0.0317 -0.0784
 1009loPI   C1B15133   2.715  10.712   6.519  0.1686  0.1289  0.0207
 1009loPI   C2B15134   2.734  10.828   7.016 -0.1913 -0.1350 -0.0213
 1009loPI   C3B15135   2.685  10.737   7.332  0.1728 -0.0714  0.3221
 1009loPI   C4B15136   2.628  10.820   7.736 -0.0132 -0.0719 -0.1922
 1010loPI    C115137  13.008   0.791   6.062  0.1174  0.0101 -0.0088
 1010loPI    C215138  13.371   0.853   6.218  0.1699  0.2004 -0.2024
 1010loPI    C315139  13.334   0.693   5.853  0.0547  0.0423 -0.1228
 1010loPI   PO415140  12.853   0.718   6.296  0.1165  0.2161  0.0186
 1010loPI   GL115141  12.679   0.728   6.734  0.0746 -0.0565 -0.2440
 1010loPI   GL215142  12.334   0.698   6.839 -0.0435  0.1169 -0.2189
 1010loPI   C1A15143  12.681   0.919   7.180 -0.2531  0.4205  0.0138
 1010loPI   C2A15144  12.566   0.982   7.579 -0.0197 -0.0792 -0.1538
 1010loPI   C3A15145  12.635   1.032   7.999  0.0470 -0.0801 -0.2051
 1010loPI   C4A15146  12.856   0.932   8.474 -0.0274 -0.1034 -0.0291
 1010loPI   C5A15147  13.175   0.787   8.650 -0.0463 -0.2208  0.2468
 1010loPI   C6A15148  13.619   0.664   8.743 -0.0055  0.0258 -0.0931
 1010loPI   C1B15149  12.172   0.639   7.248 -0.0636 -0.1018  0.1506
 1010loPI   C2B15150  12.102   0.876   7.701  0.1130  0.0940 -0.0523
 1010loPI   C3B15151  12.062   0.837   8.092 -0.2255  0.1774  0.1990
 1010loPI   C4B15152  12.297   1.054   8.510  0.2396  0.2361 -0.1291
 1011loPI    C115153  12.571   9.510   5.811  0.0628 -0.0764 -0.0277
 1011loPI    C215154  12.700   9.747   5.516  0.0908  0.1585  0.1700
 1011loPI    C315155  12.704   9.350   5.470 -0.0743  0.1971 -0.2131
 1011loPI   PO415156  12.537   9.669   5.988 -0.3811  0.1523 -0.3692
 1011loPI   GL115157  12.257   9.647   6.284 -0.2098  0.0362  0.2213
 1011loPI   GL215158  12.032   9.347   6.248  0.2766  0.0821 -0.2231
 1011loPI   C1A15159  12.208   9.649   6.717 -0.1826 -0.3688 -0.1013
 1011loPI   C2A15160  12.234   9.662   7.138  0.1950  0.2130  0.0111
 1011loPI   C3A15161  12.233   9.648   7.589  0.0203  0.0458 -0.3939
 1011loPI   C4A15162  12.273   9.555   8.045  0.0263 -0.0762 -0.0636
 1011loPI   C5A15163  12.298   9.686   8.372  0.1660 -0.1740  0.2864
 1011loPI   C6A15164  12.020   9.638   8.676  0.3665  0.0424 -0.1646
 1011loPI   C1B15165  12.156   9.194   6.647  0.0693  0.1126 -0.4752
 1011loPI   C2B15166  12.114   9.187   7.164  0.1094 -0.0139  0.1447
 1011loPI   C3B15167  12.135   9.147   7.565  0.2066  0.1526  0.3456
 1011loPI   C4B15168  12.106   9.018   8.064 -0.0118  0.2162  0.2314
 1012loPI    C115169  16.604  16.923   6.244  0.1287  0.1007  0.0584
 1012loPI    C215170  16.791  16.873   5.894  0.0064 -0.1077  0.0208
 1012loPI    C315171  16.848  16.610   6.191 -0.1586 -0.1250  0.0380
 1012loPI   PO415172  16.611  17.089   6.418 -0.2473  0.0182  0.2249
 1012loPI   GL115173  16.672  17.023   6.801 -0.3572  0.2377  0.1236
 1012loPI   GL215174  16.953  16.789   6.695 -0.0370 -0.1052  0.0573
 1012loPI   C1A15175  16.722  16.862   7.191 -0.0069 -0.2265  0.0745
 1012loPI   C2A15176  16.833  16.910   7.599 -0.1995  0.0920 -0.1576
 1012loPI   C3A15177  16.653  17.079   7.923 -0.0604 -0.0945 -0.0244
 1012loPI   C4A15178  16.662  16.974   8.430 -0.0052  0.3936 -0.0585
 1012loPI   C5A15179  17.001  17.173   8.778  0.2191 -0.0726  0.1207
 1012loPI   C6A15180  16.969  17.466   9.097  0.1324  0.0054  0.1275
 1012loPI   C1B15181  17.210  16.752   7.106  0.2434 -0.2434 -0.3561
 1012loPI   C2B15182  17.332  16.669   7.530  0.1702 -0.0470 -0.0682
 1012loPI   C3B15183  17.168  16.695   7.901  0.0204  0.2487  0.0348
 1012loPI   C4B15184  17.215  16.913   8.356 -0.1738 -0.1282  0.1858
 1013loPI    C115185   5.969   1.292   5.792  0.1208 -0.0403  0.2100
 1013loPI    C215186   6.332   1.219   5.945  0.0830 -0.4304  0.1212
 1013loPI    C315187   6.289   1.283   5.552  0.0977 -0.0435  0.1793
 1013loPI   PO415188   5.857   1.100   5.999  0.1564 -0.3819  0.0155
 1013loPI   GL115189   6.051   1.047   6.351 -0.1045  0.2913  0.1467
 1013loPI   GL215190   5.883   1.308   6.484 -0.2410 -0.3254 -0.0412
 1013loPI   C1A15191   6.195   0.958   6.638 -0.2696  0.1385 -0.1531
 1013loPI   C2A15192   6.240   1.029   7.174  0.3574 -0.0064  0.1023
 1013loPI   C3A15193   6.061   0.973   7.510  0.0650 -0.1749 -0.0918
 1013loPI   C4A15194   6.075   1.046   7.836  0.0814  0.1316 -0.1565
 1013loPI   C5A15195   6.120   1.035   8.296  0.4278 -0.2505  0.2877
 1013loPI   C6A15196   6.075   1.036   8.764  0.0914 -0.2106  0.3795
 1013loPI   C1B15197   5.917   1.355   6.908  0.1452  0.3381 -0.3229
 1013loPI   C2B15198   5.843   1.395   7.359 -0.1682 -0.2632 -0.0897
 1013loPI   C3B15199   5.707   1.404   7.749 -0.1690  0.2054  0.1207
 1013loPI   C4B15200   5.659   1.158   8.113 -0.0190  0.2065 -0.1203
 1014loPI    C115201  13.907   6.831   5.934  0.4854  0.0621 -0.0780
 1014loPI    C215202  13.909   6.441   5.843  0.1365  0.0525 -0.0562
 1014loPI    C315203  13.863   6.714   5.554 -0.0033  0.0609 -0.0269
 1014loPI   PO415204  14.116   6.784   6.155  0.1865  0.3932 -0.0590
 1014loPI   GL115205  14.220   6.564   6.585  0.0600  0.0920 -0.2975
 1014loPI   GL215206  14.553   6.766   6.674 -0.0683 -0.1998 -0.0234
 1014loPI   C1A15207  14.040   6.602   6.971 -0.1438 -0.0891  0.0574
 1014loPI   C2A15208  14.034   6.518   7.356 -0.0782 -0.0511 -0.0705
 1014loPI   C3A15209  13.886   6.432   7.788  0.1913  0.0098  0.1263
 1014loPI   C4A15210  13.779   6.327   8.195 -0.0436  0.0522  0.1685
 1014loPI   C5A15211  13.833   6.453   8.695  0.1128 -0.1180  0.2193
 1014loPI   C6A15212  13.835   6.222   9.129 -0.1595 -0.0401  0.0588
 1014loPI   C1B15213  14.508   6.730   7.095  0.1406 -0.1735 -0.2481
 1014loPI   C2B15214  14.491   6.634   7.518  0.2048  0.2150 -0.1701
 1014loPI   C3B15215  14.510   6.478   7.933 -0.0893 -0.4927  0.1319
 1014loPI   C4B15216  14.350   6.537   8.284  0.1265  0.0486 -0.1151
 1015loPI    C115217   2.254   6.257   5.634  0.1707  0.0050  0.2328
 1015loPI    C215218   1.955   6.330   5.890 -0.0097 -0.2502  0.0994
 1015loPI    C315219   2.026   6.582   5.588 -0.1045 -0.1994  0.1192
 1015loPI   PO415220   2.470   6.236   5.791  0.1938  0.0713  0.1055
 1015loPI   GL115221   2.573   6.182   6.212 -0.0577  0.1672 -0.2307
 1015loPI   GL215222   2.274   6.394   6.280  0.1016 -0.1136 -0.0097
 1015loPI   C1A15223   2.529   6.252   6.749 -0.0561 -0.4624 -0.2102
 1015loPI   C2A15224   2.381   6.313   7.153 -0.1414 -0.1700 -0.1650
 1015loPI   C3A15225   2.308   6.255   7.618 -0.0852 -0.1265  0.2030
 1015loPI   C4A15226   2.470   6.363   7.937  0.0076 -0.2333  0.3071
 1015loPI   C5A15227   2.463   6.309   8.406  0.0859 -0.2202 -0.1573
 1015loPI   C6A15228   2.240   6.339   8.724  0.0129 -0.0461  0.0865
 1015loPI   C1B15229   2.148   6.594   6.684 -0.2844 -0.2167  0.1696
 1015loPI   C2B15230   2.039   6.738   7.077 -0.1000  0.3423  0.0179
 1015loPI   C3B15231   1.994   6.651   7.428 -0.0682 -0.1145  0.0634
 1015loPI   C4B15232   2.074   6.678   7.867  0.1182  0.3601  0.2618
 1016loPI    C115233   1.827  10.068   5.571  0.1755  0.1009  0.0981
 1016loPI    C215234   2.212  10.174   5.598  0.2297 -0.0483 -0.0694
 1016loPI    C315235   1.983  10.323   5.305  0.2317 -0.1705 -0.1336
 1016loPI   PO415236   1.895   9.770   5.775 -0.2102 -0.2210  0.1308
 1016loPI   GL115237   2.119   9.574   6.075  0.0033  0.0725 -0.3038
 1016loPI   GL215238   2.366   9.305   6.152  0.0993 -0.0750  0.0294
 1016loPI   C1A15239   2.175   9.552   6.571  0.0827 -0.2925 -0.1967
 1016loPI   C2A15240   2.186   9.611   7.074 -0.1894 -0.1863 -0.3453
 1016loPI   C3A15241   2.086   9.555   7.536  0.1348  0.2963 -0.2675
 1016loPI   C4A15242   1.988   9.663   7.922 -0.1517 -0.2290 -0.0529
 1016loPI   C5A15243   1.879   9.750   8.334  0.0309  0.2282 -0.2580
 1016loPI   C6A15244   1.628   9.634   8.745 -0.3566 -0.2009  0.0568
 1016loPI   C1B15245   2.601   9.266   6.514 -0.1189  0.0738  0.0597
 1016loPI   C2B15246   2.572   9.254   6.938 -0.1449 -0.0643  0.5403
 1016loPI   C3B15247   2.509   9.235   7.298  0.1494  0.2021 -0.2264
 1016loPI   C4B15248   2.414   9.253   7.760 -0.0831  0.0065 -0.0763
 1017loPI    C115249   8.428  10.320   5.554  0.0747  0.2707  0.0046
 1017loPI    C215250   8.812  10.317   5.664  0.0739  0.0290  0.0062
 1017loPI    C315251   8.677  10.599   5.414  0.2093  0.2261  0.1526
 1017loPI   PO415252   8.388  10.216   5.842  0.3365  0.2254  0.0532
 1017loPI   GL115253   8.302  10.249   6.283  0.0378  0.1491 -0.3016
 1017loPI   GL215254   8.106  10.130   6.461 -0.1562  0.0115 -0.0126
 1017loPI   C1A15255   8.530  10.336   6.645  0.0860  0.0564  0.0104
 1017loPI   C2A15256   8.659  10.243   7.044 -0.0108  0.0055 -0.0133
 1017loPI   C3A15257   8.762  10.192   7.475  0.0905 -0.2209 -0.0982
 1017loPI   C4A15258   8.617  10.079   7.943 -0.0983 -0.1206 -0.1676
 1017loPI   C5A15259   8.614  10.154   8.438 -0.0894  0.4932  0.0673
 1017loPI   C6A15260   8.224  10.274   8.455 -0.0274 -0.3732  0.0337
 1017loPI   C1B15261   8.212  10.026   6.866 -0.3340 -0.0377 -0.1941
 1017loPI   C2B15262   8.177  10.079   7.243 -0.1652  0.4058  0.2093
 1017loPI   C3B15263   8.279  10.063   7.589 -0.0142 -0.0105  0.0678
 1017loPI   C4B15264   8.123   9.909   8.020 -0.1046 -0.0166  0.3110
 1018loPI    C115265  11.395  13.228   6.268 -0.0396 -0.1130 -0.0875
 1018loPI    C215266  11.098  13.355   6.032  0.0589 -0.0320 -0.1694
 1018loPI    C315267  11.129  12.967   6.124 -0.1272 -0.0272 -0.0819
 1018loPI   PO415268  11.534  13.419   6.458 -0.1311  0.1632 -0.1412
 1018loPI   GL115269  11.342  13.542   6.908  0.0581 -0.1819  0.0192
 1018loPI   GL215270  11.394  13.199   6.872 -0.2497  0.1323  0.1966
 1018loPI   C1A15271  10.951  13.492   7.209  0.3192  0.1052  0.0578
 1018loPI   C2A15272  10.804  13.121   7.337  0.1607 -0.1380 -0.2408
 1018loPI   C3A15273  10.680  13.074   7.810  0.3693  0.2759 -0.1049
 1018loPI   C4A15274  10.969  12.939   8.213  0.2419  0.1594  0.2137
 1018loPI   C5A15275  10.914  12.533   8.453  0.3264 -0.1040  0.3331
 1018loPI   C6A15276  10.846  12.114   8.532 -0.1275  0.1028  0.0288
 1018loPI   C1B15277  11.407  13.266   7.257 -0.3302  0.0215  0.1131
 1018loPI   C2B15278  11.459  13.659   7.433  0.0641 -0.2193  0.2295
 1018loPI   C3B15279  11.270  13.744   7.773 -0.0676 -0.1533 -0.1681
 1018loPI   C4B15280  10.807  13.564   7.680  0.0611 -0.3695 -0.1289
 1019loPI    C115281   2.917   7.268   5.659  0.3170 -0.1120 -0.2379
 1019loPI    C215282   2.561   7.310   5.482  0.2690 -0.2558 -0.1772
 1019loPI    C315283   2.885   7.486   5.325  0.1557 -0.0468 -0.1805
 1019loPI   PO415284   2.977   7.064   5.832  0.0827  0.0137  0.2436
 1019loPI   GL115285   3.092   6.790   6.062  0.0444 -0.1091  0.2080
 1019loPI   GL215286   2.997   6.474   6.246 -0.2795  0.0059 -0.0066
 1019loPI   C1A15287   3.271   6.925   6.434  0.3690  0.0422 -0.0722
 1019loPI   C2A15288   3.060   7.050   6.887  0.1419 -0.1878  0.0032
 1019loPI   C3A15289   3.013   7.059   7.352  0.1159 -0.3357 -0.2312
 1019loPI   C4A15290   2.950   7.052   7.793  0.3853  0.1561 -0.0469
 1019loPI   C5A15291   2.936   7.084   8.215 -0.0275 -0.1580  0.1728
 1019loPI   C6A15292   3.247   7.098   8.520 -0.3678 -0.3081  0.1228
 1019loPI   C1B15293   3.082   6.482   6.630  0.1787  0.2247 -0.1567
 1019loPI   C2B15294   2.956   6.491   7.116  0.3863 -0.2424  0.2332
 1019loPI   C3B15295   2.901   6.479   7.595  0.0597 -0.1412 -0.1268
 1019loPI   C4B15296   2.910   6.612   8.066 -0.1909 -0.1226 -0.2029
 1020loPI    C115297  13.310  16.195   5.975 -0.0092  0.2488 -0.0708
 1020loPI    C215298  13.020  16.114   5.711  0.0878 -0.1577 -0.0604
 1020loPI    C315299  13.333  16.337   5.602 -0.1350  0.1299 -0.1251
 1020loPI   PO415300  13.240  16.402   6.264 -0.0002 -0.1600  0.0098
 1020loPI   GL115301  13.158  16.655   6.695 -0.2181 -0.2356  0.1739
 1020loPI   GL215302  13.291  16.925   6.897  0.1328 -0.2350 -0.0513
 1020loPI   C1A15303  12.887  16.740   7.142 -0.1402 -0.2551 -0.0609
 1020loPI   C2A15304  12.852  16.974   7.463  0.2414 -0.1992 -0.1494
 1020loPI   C3A15305  12.765  17.123   7.824 -0.1975  0.0286  0.2017
 1020loPI   C4A15306  12.717  17.246   8.275  0.4627  0.0761  0.0928
 1020loPI   C5A15307  12.717  17.521   8.697 -0.0313  0.0833  0.0014
 1020loPI   C6A15308  12.896  17.808   8.913 -0.2118  0.1496  0.3087
 1020loPI   C1B15309  13.312  16.983   7.266 -0.1650 -0.2387 -0.0055
 1020loPI   C2B15310  13.342  17.102   7.677 -0.1947 -0.0875 -0.2045
 1020loPI   C3B15311  13.205  17.281   8.043  0.1799 -0.0448  0.1551
 1020loPI   C4B15312  13.137  17.103   8.480 -0.3334 -0.0257 -0.2348
 1021loPI    C115313   0.176   5.353   5.840 -0.0588 -0.1221  0.1161
 1021loPI    C215314   0.497   5.200   5.657 -0.0596 -0.2232  0.1988
 1021loPI    C315315   0.133   5.142   5.503 -0.0254  0.0195  0.0223
 1021loPI   PO415316   0.222   5.298   6.146 -0.1533 -0.0997 -0.1997
 1021loPI   GL115317   0.263   5.061   6.535  0.1336  0.0888 -0.0439
 1021loPI   GL215318  -0.047   5.288   6.572  0.0614  0.1428  0.0830
 1021loPI   C1A15319   0.421   5.022   6.905 -0.1178  0.0922  0.0499
 1021loPI   C2A15320   0.340   5.074   7.299 -0.2042  0.0332  0.0776
 1021loPI   C3A15321   0.344   5.046   7.748  0.0988  0.0690  0.3583
 1021loPI   C4A15322   0.396   5.116   8.110  0.0613  0.2528  0.0204
 1021loPI   C5A15323   0.531   4.860   8.466  0.0228 -0.0647 -0.0707
 1021loPI   C6A15324   0.623   4.770   8.939 -0.1248 -0.1417  0.0265
 1021loPI   C1B15325  -0.037   5.338   7.001 -0.0392 -0.1945  0.0401
 1021loPI   C2B15326  -0.147   5.340   7.440 -0.0595 -0.2380  0.0766
 1021loPI   C3B15327  -0.015   5.340   7.885  0.1028 -0.1170 -0.3416
 1021loPI   C4B15328  -0.087   5.460   8.336 -0.0250 -0.1304  0.3864
 1022loPI    C115329  15.360   0.462   6.016 -0.2980 -0.2131  0.3961
 1022loPI    C215330  15.121   0.195   5.838  0.2346 -0.2574 -0.2979
 1022loPI    C315331  15.505   0.106   5.905  0.2160  0.0312  0.2511
 1022loPI   PO415332  15.223   0.502   6.244 -0.0503 -0.0426 -0.1923
 1022loPI   GL115333  15.136   0.891   6.508  0.0636 -0.0672  0.1661
 1022loPI   GL215334  15.480   1.091   6.450  0.0011  0.1509 -0.0794
 1022loPI   C1A15335  14.955   0.811   6.972 -0.2463 -0.3145 -0.0748
 1022loPI   C2A15336  14.898   0.757   7.395 -0.0840  0.1325 -0.0515
 1022loPI   C3A15337  14.693   0.846   7.768 -0.4240 -0.0272  0.1513
 1022loPI   C4A15338  14.795   0.947   8.119  0.3764  0.1840  0.1238
 1022loPI   C5A15339  14.724   1.030   8.573 -0.0701 -0.1685  0.2070
 1022loPI   C6A15340  14.744   0.991   9.014 -0.1561 -0.1432 -0.0475
 1022loPI   C1B15341  15.473   1.000   6.854  0.0598 -0.2665  0.1552
 1022loPI   C2B15342  15.386   1.039   7.385 -0.0746  0.0730  0.1318
 1022loPI   C3B15343  15.212   0.826   7.812 -0.1038  0.3396  0.2989
 1022loPI   C4B15344  15.253   0.753   8.265 -0.0226  0.0159  0.0350
 1023loPI    C115345   8.721   4.841   5.769 -0.0197 -0.2270  0.0230
 1023loPI    C215346   8.827   5.156   5.546 -0.2349 -0.2871 -0.1687
 1023loPI    C315347   8.473   4.980   5.488 -0.2640 -0.3496  0.1749
 1023loPI   PO415348   8.698   4.889   6.032  0.0928 -0.2239  0.2992
 1023loPI   GL115349   8.917   4.693   6.384 -0.2192 -0.0830  0.1327
 1023loPI   GL215350   8.924   5.102   6.406  0.1030  0.4772 -0.2459
 1023loPI   C1A15351   8.705   4.798   6.815  0.1086 -0.0298 -0.0119
 1023loPI   C2A15352   8.647   4.859   7.276 -0.1700 -0.0898  0.0572
 1023loPI   C3A15353   8.608   4.877   7.707  0.0362  0.2242 -0.0607
 1023loPI   C4A15354   8.691   4.837   8.138 -0.1331 -0.0041 -0.1421
 1023loPI   C5A15355   8.910   4.806   8.483 -0.1028  0.0998 -0.2795
 1023loPI   C6A15356   9.089   4.759   8.920 -0.3531  0.0510  0.3956
 1023loPI   C1B15357   8.726   5.316   6.636 -0.0545 -0.3099 -0.0350
 1023loPI   C2B15358   8.680   5.382   7.062 -0.2297  0.0989 -0.2079
 1023loPI   C3B15359   8.708   5.421   7.450 -0.1136  0.3141  0.0323
 1023loPI   C4B15360   8.778   5.307   7.942  0.1287 -0.0327 -0.2419
 1024loPI    C115361   5.654  10.433   5.822 -0.1408 -0.0671  0.1124
 1024loPI    C215362   5.669  10.144   5.546  0.2923  0.1807 -0.1345
 1024loPI    C315363   5.449  10.471   5.481  0.2081  0.1348 -0.0811
 1024loPI   PO415364   5.596  10.345   6.038  0.3277 -0.0124 -0.3646
 1024loPI   GL115365   5.242  10.227   6.234  0.1466  0.1131  0.0391
 1024loPI   GL215366   5.346  10.006   6.432  0.0067  0.0177 -0.3219
 1024loPI   C1A15367   4.963  10.241   6.618  0.0184 -0.1371  0.1069
 1024loPI   C2A15368   4.812  10.163   7.029 -0.0423 -0.1863 -0.2838
 1024loPI   C3A15369   4.877  10.195   7.492  0.0003 -0.0715  0.0483
 1024loPI   C4A15370   4.941  10.071   7.936  0.0766  0.0945 -0.0999
 1024loPI   C5A15371   4.921  10.085   8.383  0.2514  0.0538 -0.0476
 1024loPI   C6A15372   5.073  10.364   8.726 -0.1173 -0.0727 -0.0906
 1024loPI   C1B15373   5.331   9.926   6.907  0.0769  0.1062 -0.0587
 1024loPI   C2B15374   5.331   9.926   7.372  0.1288  0.3272  0.2553
 1024loPI   C3B15375   5.366   9.853   7.762 -0.1061 -0.0019 -0.3007
 1024loPI   C4B15376   5.410   9.845   8.146 -0.1391  0.0047  0.0830
 1025loPI    C115377  13.206   8.469   5.820  0.2406  0.0403  0.0194
 1025loPI    C215378  12.934   8.475   5.526  0.0960  0.0477  0.1517
 1025loPI    C315379  13.262   8.703   5.500 -0.0332  0.2301  0.1069
 1025loPI   PO415380  13.144   8.481   6.045  0.1137 -0.0329  0.0196
 1025loPI   GL115381  13.052   8.814   6.320  0.2190 -0.0473 -0.1565
 1025loPI   GL215382  12.892   8.514   6.464  0.1535  0.0022  0.3873
 1025loPI   C1A15383  13.053   9.058   6.680 -0.2863  0.2402 -0.2081
 1025loPI   C2A15384  13.047   8.984   7.123  0.2354 -0.0082 -0.1539
 1025loPI   C3A15385  12.974   8.915   7.574  0.0635 -0.0328  0.2336
 1025loPI   C4A15386  12.869   8.871   8.024  0.0019  0.1469 -0.1731
 1025loPI   C5A15387  13.029   9.066   8.501 -0.1654 -0.1564  0.2888
 1025loPI   C6A15388  13.031   9.084   8.929 -0.0965 -0.2632  0.0632
 1025loPI   C1B15389  12.893   8.541   6.933  0.2195 -0.3415  0.0439
 1025loPI   C2B15390  12.931   8.442   7.276 -0.0115  0.0174 -0.0488
 1025loPI   C3B15391  12.877   8.455   7.736 -0.4035  0.1669 -0.0576
 1025loPI   C4B15392  12.794   8.407   8.135  0.1668 -0.0239  0.0363
 1026loPI    C115393  10.609  13.286   6.086  0.0537 -0.2593  0.1047
 1026loPI    C215394  10.680  13.653   6.228 -0.3586 -0.1586  0.0611
 1026loPI    C315395  10.723  13.578   5.837 -0.0636 -0.2151  0.1023
 1026loPI   PO415396  10.719  13.156   6.338 -0.1216 -0.0376  0.0456
 1026loPI   GL115397  10.564  13.233   6.638 -0.2919  0.0218 -0.0304
 1026loPI   GL215398  10.525  13.505   6.746  0.0037  0.0676 -0.0035
 1026loPI   C1A15399  10.381  12.942   6.999 -0.2887 -0.3486  0.0635
 1026loPI   C2A15400  10.302  12.919   7.380  0.0544 -0.0915  0.2770
 1026loPI   C3A15401  10.229  12.851   7.779  0.2028  0.0237 -0.1528
 1026loPI   C4A15402  10.221  12.994   8.109 -0.1718  0.1424  0.0911
 1026loPI   C5A15403  10.576  13.100   8.431  0.0573 -0.0792  0.0851
 1026loPI   C6A15404  10.469  12.842   8.807 -0.1456 -0.1536 -0.0322
 1026loPI   C1B15405  10.439  13.430   7.245 -0.4380 -0.1353  0.0491
 1026loPI   C2B15406  10.316  13.356   7.655  0.1431  0.5577  0.2304
 1026loPI   C3B15407  10.353  13.482   8.042 -0.0657 -0.1675  0.0419
 1026loPI   C4B15408  10.758  13.545   8.196 -0.0250  0.1482  0.2413
 1027loPI    C115409   0.573  11.903   5.639  0.1760 -0.1232  0.0006
 1027loPI    C215410   0.875  12.120   5.492  0.0769 -0.0149 -0.0444
 1027loPI    C315411   0.919  11.726   5.544  0.1244 -0.0496 -0.3341
 1027loPI   PO415412   0.410  11.917   5.925 -0.0362 -0.0517  0.2757
 1027loPI   GL115413   0.095  11.954   6.207 -0.1620  0.1067  0.0092
 1027loPI   GL215414  -0.002  11.703   6.318 -0.0199 -0.1607  0.0537
 1027loPI   C1A15415  -0.164  12.163   6.526 -0.1485  0.1449  0.0031
 1027loPI   C2A15416  -0.512  12.117   6.895  0.1331  0.2155 -0.1346
 1027loPI   C3A15417  -0.555  12.184   7.353  0.0109  0.1423  0.3816
 1027loPI   C4A15418  -0.562  12.365   7.744 -0.0021  0.0465  0.3501
 1027loPI   C5A15419  -0.601  12.544   8.081  0.2460  0.0695  0.2034
 1027loPI   C6A15420  -0.809  12.366   8.457  0.2162  0.2593 -0.0002
 1027loPI   C1B15421   0.053  11.725   6.688  0.2050  0.1302  0.1101
 1027loPI   C2B15422  -0.004  11.871   7.164  0.0669  0.0032 -0.0169
 1027loPI   C3B15423   0.095  11.649   7.553  0.0012  0.1022  0.0074
 1027loPI   C4B15424   0.068  11.755   7.950 -0.1131 -0.0882  0.3232
 1028loPI    C115425   4.552   2.625   5.496  0.4228 -0.0401 -0.0009
 1028loPI    C215426   4.705   2.994   5.478  0.0528  0.1135 -0.0912
 1028loPI    C315427   4.532   2.834   5.156 -0.2203  0.0532  0.0821
 1028loPI   PO415428   4.709   2.497   5.834 -0.2642  0.0278 -0.0132
 1028loPI   GL115429   4.501   2.517   6.207  0.4965  0.2158 -0.2775
 1028loPI   GL215430   4.318   2.194   6.138 -0.0093 -0.2412 -0.2519
 1028loPI   C1A15431   4.480   2.442   6.669 -0.0661  0.2061  0.2830
 1028loPI   C2A15432   4.395   2.290   7.002 -0.1517  0.0662 -0.4804
 1028loPI   C3A15433   4.441   2.225   7.434 -0.0692  0.1087 -0.1698
 1028loPI   C4A15434   4.621   2.285   7.821 -0.0633 -0.2843 -0.0317
 1028loPI   C5A15435   4.927   2.337   8.257  0.1839  0.2791 -0.2342
 1028loPI   C6A15436   4.800   2.712   8.516 -0.4000 -0.1258 -0.4003
 1028loPI   C1B15437   4.084   2.187   6.564 -0.0864 -0.3638 -0.2087
 1028loPI   C2B15438   3.953   2.149   6.949 -0.0190  0.0399  0.0216
 1028loPI   C3B15439   4.020   2.052   7.289  0.0090  0.2172 -0.2155
 1028loPI   C4B15440   4.037   2.084   7.720  0.1010  0.4460 -0.0989
 1029loPI    C115441   4.236  16.847   5.613  0.2248 -0.0158  0.1532
 1029loPI    C215442   4.431  17.082   5.356  0.0519  0.0507  0.0809
 1029loPI    C315443   4.204  16.783   5.220  0.1088 -0.0314  0.1648
 1029loPI   PO415444   4.291  16.749   5.822 -0.2435 -0.3347  0.0964
 1029loPI   GL115445   4.281  16.767   6.286  0.0909 -0.1913 -0.2598
 1029loPI   GL215446   4.536  16.892   6.217 -0.0101  0.1266 -0.1582
 1029loPI   C1A15447   4.025  16.754   6.631 -0.1945 -0.0549  0.2407
 1029loPI   C2A15448   4.048  16.679   7.009 -0.1251 -0.0920 -0.3256
 1029loPI   C3A15449   4.010  16.784   7.439  0.1042 -0.3833  0.2402
 1029loPI   C4A15450   4.009  16.702   7.878 -0.0451 -0.0716  0.2306
 1029loPI   C5A15451   3.958  16.747   8.339  0.0887  0.2315  0.0383
 1029loPI   C6A15452   3.915  16.545   8.751  0.0614  0.0381  0.3598
 1029loPI   C1B15453   4.570  16.929   6.734  0.2422  0.1783  0.1017
 1029loPI   C2B15454   4.538  16.921   7.175  0.1910  0.1936  0.0285
 1029loPI   C3B15455   4.506  16.919   7.644  0.0986  0.0185 -0.1165
 1029loPI   C4B15456   4.474  16.888   8.047 -0.2180 -0.0292 -0.1915
 1030loPI    C115457   7.702  12.420   5.945 -0.1079  0.1327 -0.1582
 1030loPI    C215458   7.497  12.727   6.098  0.0982  0.1757  0.0388
 1030loPI    C315459   7.729  12.781   5.777  0.0726  0.2072  0.0257
 1030loPI   PO415460   7.823  12.374   6.090  0.3032  0.1684  0.2585
 1030loPI   GL115461   7.870  12.345   6.430 -0.1496 -0.2798 -0.0785
 1030loPI   GL215462   7.587  12.262   6.527 -0.2571  0.1119 -0.0400
 1030loPI   C1A15463   8.078  12.496   6.771  0.4625  0.0505  0.0317
 1030loPI   C2A15464   8.039  12.421   7.194  0.2253  0.0103  0.3058
 1030loPI   C3A15465   8.059  12.367   7.571 -0.0445  0.0629  0.0452
 1030loPI   C4A15466   8.056  12.311   7.965 -0.3496  0.0585  0.0717
 1030loPI   C5A15467   7.982  12.197   8.401 -0.0436  0.1012  0.3312
 1030loPI   C6A15468   8.009  11.879   8.605  0.1743 -0.0108  0.1451
 1030loPI   C1B15469   7.618  12.327   6.978  0.1473  0.0008 -0.3347
 1030loPI   C2B15470   7.598  12.228   7.433  0.0232  0.3773  0.1052
 1030loPI   C3B15471   7.484  12.198   7.806 -0.1130 -0.1099  0.3796
 1030loPI   C4B15472   7.578  11.982   8.235  0.2081 -0.1604 -0.3227
 1031loPI    C115473  11.469   4.215   6.212  0.0419  0.1832 -0.2470
 1031loPI    C215474  11.476   4.081   5.835  0.0242 -0.1253 -0.1400
 1031loPI    C315475  11.729   3.930   6.106  0.1280  0.1895 -0.0572
 1031loPI   PO415476  11.201   4.223   6.293 -0.2537  0.0432 -0.2838
 1031loPI   GL115477  11.102   4.193   6.692 -0.1772 -0.2611  0.1446
 1031loPI   GL215478  11.390   4.437   6.766 -0.0537 -0.1924 -0.0216
 1031loPI   C1A15479  11.167   3.740   6.898 -0.0503  0.3470 -0.1777
 1031loPI   C2A15480  11.168   3.769   7.344 -0.0192  0.0073  0.1947
 1031loPI   C3A15481  11.286   3.918   7.789 -0.0414  0.0134  0.0794
 1031loPI   C4A15482  11.244   3.871   8.249 -0.0976  0.0913 -0.1672
 1031loPI   C5A15483  11.242   3.776   8.715  0.1680 -0.0601  0.0564
 1031loPI   C6A15484  11.129   3.447   9.072 -0.1662 -0.0760 -0.3512
 1031loPI   C1B15485  11.379   4.478   7.164 -0.2954  0.0013  0.1974
 1031loPI   C2B15486  11.311   4.446   7.629  0.2185 -0.1013  0.0027
 1031loPI   C3B15487  11.377   4.367   8.109  0.0791 -0.0840  0.2648
 1031loPI   C4B15488  11.135   4.462   8.539  0.0988  0.0203  0.2090
 1032loPI    C115489   9.494  11.665   5.507 -0.0429  0.0724 -0.0613
 1032loPI    C215490   9.300  11.316   5.520  0.1361 -0.0240  0.0650
 1032loPI    C315491   9.398  11.477   5.167 -0.3896  0.1504 -0.0096
 1032loPI   PO415492   9.350  11.745   5.714 -0.0773  0.0083  0.1352
 1032loPI   GL115493   9.529  11.726   6.110  0.0782  0.0168  0.3634
 1032loPI   GL215494   9.211  11.777   6.209  0.2933  0.1727 -0.4340
 1032loPI   C1A15495   9.470  11.965   6.518 -0.2075  0.0352 -0.1330
 1032loPI   C2A15496   9.420  11.941   6.996 -0.0316 -0.0320 -0.0313
 1032loPI   C3A15497   9.308  11.942   7.389 -0.1721  0.0523  0.1109
 1032loPI   C4A15498   9.298  11.909   7.800 -0.3142  0.0148 -0.0197
 1032loPI   C5A15499   9.418  11.752   8.265 -0.0686  0.0149  0.2415
 1032loPI   C6A15500   9.442  11.588   8.684  0.0080 -0.0901  0.0199
 1032loPI   C1B15501   9.182  11.566   6.574  0.0831  0.3283 -0.2020
 1032loPI   C2B15502   9.161  11.456   6.953  0.0824  0.1129 -0.0006
 1032loPI   C3B15503   9.301  11.427   7.329 -0.3275  0.2783 -0.2608
 1032loPI   C4B15504   9.389  11.346   7.800 -0.0940 -0.0201 -0.1432
 1033loPI    C115505   9.268   6.735   5.962  0.0079  0.1083 -0.0758
 1033loPI    C215506   9.021   6.805   5.656  0.1367  0.0243 -0.2001
 1033loPI    C315507   9.204   6.451   5.689  0.0409 -0.0054  0.0338
 1033loPI   PO415508   9.310   6.933   6.175  0.1469  0.0424  0.1838
 1033loPI   GL115509   9.087   7.237   6.453 -0.1585 -0.1632 -0.1278
 1033loPI   GL215510   9.148   7.051   6.707 -0.0298 -0.1541  0.2991
 1033loPI   C1A15511   9.155   7.554   6.766 -0.0061  0.0224 -0.2145
 1033loPI   C2A15512   9.119   7.622   7.166 -0.1566 -0.1852  0.0555
 1033loPI   C3A15513   9.058   7.509   7.575 -0.1156  0.1407 -0.1975
 1033loPI   C4A15514   8.959   7.331   7.984 -0.1192 -0.0080  0.0593
 1033loPI   C5A15515   8.918   7.346   8.396  0.3619 -0.3384 -0.1603
 1033loPI   C6A15516   8.628   7.319   8.719 -0.0851  0.1042 -0.2059
 1033loPI   C1B15517   9.026   7.040   7.147  0.2116 -0.1339 -0.2204
 1033loPI   C2B15518   9.018   6.943   7.486 -0.0033 -0.3424 -0.4356
 1033loPI   C3B15519   8.892   6.811   7.872 -0.0185  0.1957  0.1196
 1033loPI   C4B15520   8.833   6.836   8.235  0.0283 -0.0247  0.1035
 1034loPI    C115521   4.691   3.530   5.654 -0.0475  0.0240  0.0715
 1034loPI    C215522   5.020   3.442   5.444  0.0328  0.1504  0.1430
 1034loPI    C315523   4.675   3.517   5.255  0.0694  0.1176  0.0631
 1034loPI   PO415524   4.657   3.305   5.840  0.1704  0.0862 -0.2612
 1034loPI   GL115525   4.893   3.386   6.188 -0.2188  0.0973  0.0455
 1034loPI   GL215526   5.189   3.500   6.405 -0.0597  0.1764  0.1140
 1034loPI   C1A15527   4.712   3.347   6.667  0.1617 -0.0422  0.1400
 1034loPI   C2A15528   4.771   3.365   7.115 -0.0104 -0.0064 -0.1612
 1034loPI   C3A15529   4.683   3.386   7.482  0.0534  0.0330  0.0227
 1034loPI   C4A15530   4.729   3.402   8.024  0.2148 -0.0192 -0.2315
 1034loPI   C5A15531   4.575   3.161   8.427  0.0628  0.1206 -0.1197
 1034loPI   C6A15532   4.622   2.997   8.904  0.0485 -0.1493  0.0546
 1034loPI   C1B15533   5.197   3.447   6.816 -0.0437  0.0902  0.0695
 1034loPI   C2B15534   5.219   3.522   7.285  0.2645 -0.0666 -0.2183
 1034loPI   C3B15535   5.127   3.640   7.729 -0.0393  0.1147 -0.1221
 1034loPI   C4B15536   5.197   3.702   8.204  0.0999 -0.0662  0.1571
 1035loPI    C115537   6.844   4.153   5.656 -0.1497 -0.1341 -0.0258
 1035loPI    C215538   6.862   4.114   5.259  0.0441  0.0194 -0.0340
 1035loPI    C315539   6.641   4.406   5.422  0.0159 -0.0038 -0.0306
 1035loPI   PO415540   7.020   4.162   5.914  0.0572 -0.2683  0.0854
 1035loPI   GL115541   6.993   4.367   6.342 -0.1496 -0.1864 -0.1332
 1035loPI   GL215542   6.884   4.649   6.440 -0.1517 -0.1285  0.1992
 1035loPI   C1A15543   7.106   4.297   6.750  0.0254 -0.1604 -0.2146
 1035loPI   C2A15544   7.167   4.236   7.245  0.0101 -0.3212  0.0073
 1035loPI   C3A15545   7.233   4.382   7.675  0.0294 -0.3025  0.0076
 1035loPI   C4A15546   7.250   4.316   8.121 -0.0790  0.1515  0.0331
 1035loPI   C5A15547   7.163   4.300   8.538 -0.1520  0.1772 -0.0730
 1035loPI   C6A15548   7.100   4.001   8.739 -0.2454  0.1453  0.0703
 1035loPI   C1B15549   6.696   4.558   6.742 -0.4807 -0.1792 -0.3456
 1035loPI   C2B15550   6.684   4.545   7.190 -0.0211 -0.1154 -0.0354
 1035loPI   C3B15551   6.759   4.640   7.560  0.0276 -0.0321 -0.2908
 1035loPI   C4B15552   6.850   4.525   7.921  0.0734  0.2993 -0.0177
 1036loPI    C115553  14.778  12.492   5.894 -0.0865 -0.1719 -0.0565
 1036loPI    C215554  14.505  12.776   5.827  0.1813  0.0892 -0.0605
 1036loPI    C315555  14.749  12.659   5.532 -0.0249 -0.2552 -0.1005
 1036loPI   PO415556  14.650  12.365   6.127  0.2914  0.0838 -0.0141
 1036loPI   GL115557  14.685  12.327   6.513  0.0685 -0.0223  0.1415
 1036loPI   GL215558  14.926  12.475   6.684 -0.1637  0.0167 -0.1484
 1036loPI   C1A15559  14.564  12.176   6.936  0.0879 -0.2010 -0.1167
 1036loPI   C2A15560  14.738  12.100   7.437  0.1643 -0.0809 -0.0395
 1036loPI   C3A15561  14.824  12.070   7.923 -0.0917  0.1373  0.0406
 1036loPI   C4A15562  15.093  12.002   8.306 -0.0603  0.0354 -0.2106
 1036loPI   C5A15563  15.347  11.698   8.515  0.1784 -0.0516  0.3340
 1036loPI   C6A15564  15.297  11.296   8.717  0.0333 -0.2108  0.0611
 1036loPI   C1B15565  14.932  12.524   7.105 -0.0965 -0.1182 -0.1141
 1036loPI   C2B15566  15.070  12.484   7.532 -0.0847 -0.1714  0.1902
 1036loPI   C3B15567  15.181  12.426   7.974  0.3254  0.0859  0.1351
 1036loPI   C4B15568  15.187  12.713   8.155 -0.1270  0.0478  0.2283
 1037loPI    C115569   3.303  16.094   6.106 -0.2460 -0.0155 -0.1413
 1037loPI    C215570   3.497  16.188   5.768  0.0073 -0.1751 -0.0429
 1037loPI    C315571   3.107  16.097   5.757 -0.0137 -0.0630 -0.2741
 1037loPI   PO415572   3.426  15.998   6.268 -0.2809 -0.0785 -0.1776
 1037loPI   GL115573   3.503  15.830   6.571 -0.0662  0.0551 -0.1418
 1037loPI   GL215574   3.266  15.589   6.614  0.3546  0.0020 -0.1092
 1037loPI   C1A15575   3.446  15.989   6.921 -0.0998  0.0533 -0.5229
 1037loPI   C2A15576   3.410  15.939   7.348 -0.4724  0.0128 -0.4439
 1037loPI   C3A15577   3.520  15.953   7.691 -0.0087 -0.2411  0.4587
 1037loPI   C4A15578   3.530  15.897   8.137 -0.0770 -0.1770 -0.0301
 1037loPI   C5A15579   3.118  15.786   8.375  0.0642  0.1167  0.1833
 1037loPI   C6A15580   2.743  15.971   8.475  0.0577  0.3071 -0.2242
 1037loPI   C1B15581   3.339  15.524   7.064 -0.2641 -0.0983 -0.1138
 1037loPI   C2B15582   3.374  15.497   7.445 -0.1730  0.2595 -0.2979
 1037loPI   C3B15583   3.412  15.382   7.834 -0.1209  0.0895 -0.1850
 1037loPI   C4B15584   3.369  15.373   8.261  0.1383 -0.0392 -0.1557
 1038loPI    C115585  14.254   3.315   6.195  0.1482 -0.0498 -0.1612
 1038loPI    C215586  14.492   2.994   6.197  0.0358 -0.1357  0.1645
 1038loPI    C315587  14.577   3.305   5.960  0.2803 -0.3044  0.0264
 1038loPI   PO415588  13.961   3.206   6.221  0.0173  0.1765 -0.2726
 1038loPI   GL115589  13.748   3.333   6.599  0.2256  0.1155  0.0675
 1038loPI   GL215590  14.062   3.409   6.721 -0.2913 -0.0010  0.1603
 1038loPI   C1A15591  13.844   2.939   6.931  0.1363  0.3285 -0.2553
 1038loPI   C2A15592  13.892   2.832   7.325  0.2645 -0.2420  0.1868
 1038loPI   C3A15593  13.787   2.849   7.758 -0.0399  0.3463  0.1925
 1038loPI   C4A15594  13.843   2.914   8.160  0.1815 -0.2415  0.2507
 1038loPI   C5A15595  13.595   2.978   8.574  0.1622 -0.0602 -0.0465
 1038loPI   C6A15596  13.857   3.019   8.978  0.1996 -0.0770  0.2605
 1038loPI   C1B15597  13.954   3.367   7.128  0.1913 -0.3043 -0.0868
 1038loPI   C2B15598  13.886   3.383   7.591  0.0598 -0.2111  0.0542
 1038loPI   C3B15599  13.927   3.458   8.056  0.0889  0.2546  0.1300
 1038loPI   C4B15600  13.865   3.427   8.597 -0.3249 -0.0936  0.1406
 1039loPI    C115601  13.965   3.768   6.152  0.1586  0.1284  0.2383
 1039loPI    C215602  14.294   3.752   5.925  0.2556 -0.0890  0.3909
 1039loPI    C315603  13.977   3.524   5.836  0.1454  0.1176  0.2461
 1039loPI   PO415604  13.977   3.748   6.339  0.0291 -0.7000 -0.0333
 1039loPI   GL115605  13.973   3.933   6.734  0.1077 -0.1173 -0.1260
 1039loPI   GL215606  14.136   4.229   6.647  0.2173 -0.2277  0.2339
 1039loPI   C1A15607  14.023   3.977   7.121 -0.0637 -0.1698 -0.1453
 1039loPI   C2A15608  14.060   3.868   7.541  0.0098 -0.0933  0.0783
 1039loPI   C3A15609  14.058   3.907   7.883 -0.1251 -0.1489  0.2465
 1039loPI   C4A15610  14.034   3.878   8.315 -0.3345 -0.2921 -0.1373
 1039loPI   C5A15611  13.972   4.178   8.736 -0.2004  0.0751 -0.2542
 1039loPI   C6A15612  13.762   4.426   9.091 -0.0756 -0.0470 -0.1546
 1039loPI   C1B15613  14.423   4.168   6.931 -0.2455  0.1490  0.0656
 1039loPI   C2B15614  14.488   4.150   7.328 -0.0606 -0.0739 -0.1766
 1039loPI   C3B15615  14.485   4.024   7.701 -0.5137  0.0228  0.1446
 1039loPI   C4B15616  14.557   4.143   8.049 -0.0302  0.1972  0.3285
 1040loPI    C115617   9.820  11.256   5.505 -0.3674 -0.1728 -0.0321
 1040loPI    C215618  10.025  10.946   5.653 -0.0310  0.1274  0.1451
 1040loPI    C315619   9.825  10.907   5.309  0.2486 -0.2010  0.0140
 1040loPI   PO415620   9.746  11.374   5.784  0.3330  0.5049 -0.0410
 1040loPI   GL115621   9.845  11.173   6.190 -0.0494 -0.3234 -0.1863
 1040loPI   GL215622  10.212  11.199   6.461 -0.0138  0.0950  0.1068
 1040loPI   C1A15623   9.776  11.506   6.470 -0.3210 -0.1051 -0.1528
 1040loPI   C2A15624   9.669  11.610   6.757  0.2161  0.2003  0.0815
 1040loPI   C3A15625   9.726  11.602   7.134 -0.0489 -0.0410  0.0098
 1040loPI   C4A15626   9.714  11.629   7.573 -0.3488 -0.2529  0.0535
 1040loPI   C5A15627   9.873  11.654   7.947 -0.0103 -0.4986  0.0885
 1040loPI   C6A15628   9.904  11.690   8.333  0.0762 -0.1965 -0.2117
 1040loPI   C1B15629  10.096  11.347   6.840 -0.0088  0.2044 -0.0592
 1040loPI   C2B15630  10.138  11.333   7.299  0.0613  0.0820 -0.1394
 1040loPI   C3B15631  10.254  11.354   7.739  0.1088 -0.0035  0.0769
 1040loPI   C4B15632  10.198  11.286   8.118  0.0175  0.0061 -0.1485
 1041loPI    C115633  15.937   1.674   5.728  0.1134  0.0243  0.0434
 1041loPI    C215634  16.305   1.783   5.614  0.0793 -0.1255 -0.2177
 1041loPI    C315635  16.013   1.748   5.342 -0.0869 -0.1722 -0.0358
 1041loPI   PO415636  15.928   1.801   5.935 -0.0416 -0.0318 -0.0560
 1041loPI   GL115637  15.993   1.539   6.316 -0.2659 -0.2834  0.0693
 1041loPI   GL215638  16.282   1.452   6.437 -0.2492  0.1812  0.0644
 1041loPI   C1A15639  16.004   1.849   6.609 -0.1688  0.0788 -0.1450
 1041loPI   C2A15640  15.992   1.832   7.078 -0.0101 -0.3513  0.1980
 1041loPI   C3A15641  16.005   1.839   7.499  0.1472 -0.1071  0.1600
 1041loPI   C4A15642  16.036   1.812   7.920  0.0410  0.2366  0.1292
 1041loPI   C5A15643  16.146   2.013   8.349  0.4076 -0.1267 -0.0362
 1041loPI   C6A15644  16.477   1.995   8.661  0.3193  0.2982 -0.1029
 1041loPI   C1B15645  16.399   1.584   6.830 -0.2730  0.0809 -0.1313
 1041loPI   C2B15646  16.470   1.649   7.259 -0.3722 -0.2261  0.1009
 1041loPI   C3B15647  16.466   1.629   7.725 -0.0780  0.0451 -0.1741
 1041loPI   C4B15648  16.441   1.688   8.176 -0.4378  0.1325  0.0553
 1042loPI    C115649  11.469   5.154   5.522  0.0637  0.0391  0.0025
 1042loPI    C215650  11.248   5.448   5.366 -0.0757  0.0094  0.1420
 1042loPI    C315651  11.371   5.146   5.134 -0.1541  0.0426  0.0565
 1042loPI   PO415652  11.507   5.299   5.771 -0.0117  0.0159 -0.0901
 1042loPI   GL115653  11.768   5.310   6.136  0.1178  0.2247 -0.3431
 1042loPI   GL215654  11.520   5.251   6.345  0.0682 -0.1535 -0.4265
 1042loPI   C1A15655  11.983   5.423   6.519  0.0354 -0.0513  0.1090
 1042loPI   C2A15656  11.989   5.630   6.985  0.0473  0.4095  0.0981
 1042loPI   C3A15657  11.973   5.591   7.465 -0.0142  0.0070  0.3779
 1042loPI   C4A15658  11.946   5.707   7.846  0.2032  0.0271 -0.0018
 1042loPI   C5A15659  11.920   5.722   8.290  0.0903  0.2345  0.0117
 1042loPI   C6A15660  11.705   5.588   8.760 -0.0727  0.0375  0.0288
 1042loPI   C1B15661  11.594   5.395   6.792  0.3358 -0.2117 -0.1795
 1042loPI   C2B15662  11.483   5.354   7.213  0.0085 -0.0037 -0.3156
 1042loPI   C3B15663  11.489   5.397   7.654  0.0656 -0.0391 -0.0140
 1042loPI   C4B15664  11.528   5.457   8.065  0.2552 -0.0425  0.0617
 1043loPI    C115665   7.059   6.792   5.484  0.1817  0.0605 -0.3494
 1043loPI    C215666   6.966   6.432   5.339 -0.0664  0.0021 -0.0565
 1043loPI    C315667   6.789   6.758   5.191 -0.2213 -0.0448  0.0235
 1043loPI   PO415668   7.091   6.749   5.817  0.1474 -0.5248  0.2349
 1043loPI   GL115669   7.072   6.643   6.226  0.2065  0.0837  0.0309
 1043loPI   GL215670   6.717   6.539   6.198 -0.1066  0.2256  0.0736
 1043loPI   C1A15671   7.176   6.523   6.605  0.0061 -0.1208  0.1091
 1043loPI   C2A15672   7.087   6.637   7.077 -0.1618  0.0651  0.1950
 1043loPI   C3A15673   7.081   6.570   7.511  0.1081  0.1543 -0.2214
 1043loPI   C4A15674   6.994   6.554   7.894  0.2605  0.1301 -0.1866
 1043loPI   C5A15675   6.937   6.559   8.376 -0.0905 -0.2411 -0.0836
 1043loPI   C6A15676   6.992   6.402   8.731 -0.0324  0.1771 -0.1703
 1043loPI   C1B15677   6.778   6.895   6.586 -0.2452  0.0414  0.0603
 1043loPI   C2B15678   6.729   7.004   7.033 -0.0191 -0.3289 -0.0210
 1043loPI   C3B15679   6.679   6.996   7.493  0.0407  0.0202  0.0253
 1043loPI   C4B15680   6.656   6.992   7.921  0.2184  0.1540  0.0982
 1044loPI    C115681   7.977   1.139   5.545 -0.1166  0.0047 -0.1242
 1044loPI    C215682   7.630   1.322   5.468 -0.2329 -0.1372  0.0529
 1044loPI    C315683   7.974   1.524   5.440 -0.3263 -0.0042 -0.1545
 1044loPI   PO415684   7.992   1.054   5.806  0.0588 -0.1522 -0.2617
 1044loPI   GL115685   8.045   0.798   6.218  0.0884  0.0551  0.4523
 1044loPI   GL215686   7.900   1.131   6.253 -0.1613 -0.3182  0.0512
 1044loPI   C1A15687   8.003   0.686   6.611  0.5862  0.1373 -0.1992
 1044loPI   C2A15688   7.987   0.716   7.114 -0.0172 -0.1836 -0.0782
 1044loPI   C3A15689   7.863   0.786   7.490  0.3455  0.2804 -0.1522
 1044loPI   C4A15690   7.897   0.794   7.969  0.1295 -0.0673  0.1416
 1044loPI   C5A15691   7.653   0.702   8.352  0.1605 -0.4365 -0.0452
 1044loPI   C6A15692   7.534   0.661   8.738  0.0246  0.1216  0.0433
 1044loPI   C1B15693   8.046   1.189   6.656 -0.1423 -0.0451 -0.0540
 1044loPI   C2B15694   7.930   1.252   7.032  0.0344  0.1555  0.1332
 1044loPI   C3B15695   7.943   1.269   7.542  0.0337  0.1862 -0.0847
 1044loPI   C4B15696   7.994   1.342   7.954 -0.1731 -0.1977 -0.1505
 1045loPI    C115697   5.634   9.418   5.646 -0.2065 -0.0897 -0.3332
 1045loPI    C215698   5.473   9.682   5.393  0.3559  0.3083 -0.2941
 1045loPI    C315699   5.867   9.686   5.461  0.2716 -0.0622  0.2776
 1045loPI   PO415700   5.536   9.421   5.841 -0.1504  0.0311  0.0251
 1045loPI   GL115701   5.626   9.597   6.277  0.1800 -0.0243 -0.4341
 1045loPI   GL215702   5.880   9.427   6.236 -0.1536  0.0533  0.0577
 1045loPI   C1A15703   5.745   9.664   6.713 -0.0540  0.1092  0.1357
 1045loPI   C2A15704   5.714   9.604   7.171 -0.2279  0.0521 -0.0558
 1045loPI   C3A15705   5.720   9.566   7.635 -0.1201  0.0507 -0.0595
 1045loPI   C4A15706   5.693   9.421   7.973 -0.1574  0.0178  0.1151
 1045loPI   C5A15707   5.635   9.438   8.404  0.0376 -0.0120 -0.2142
 1045loPI   C6A15708   5.431   9.353   8.783  0.0059  0.0073 -0.3849
 1045loPI   C1B15709   6.171   9.260   6.640 -0.1476 -0.2072  0.2064
 1045loPI   C2B15710   6.167   9.275   7.000 -0.2836 -0.1189 -0.3629
 1045loPI   C3B15711   6.163   9.302   7.471 -0.2217  0.0989 -0.1987
 1045loPI   C4B15712   6.138   9.197   7.838 -0.5385  0.0359  0.0759
 1046loPI    C115713   2.851  17.293   6.090  0.2901 -0.0111 -0.1372
 1046loPI    C215714   2.869  16.894   6.082  0.0257 -0.0279 -0.0104
 1046loPI    C315715   2.665  17.091   5.800  0.0438  0.0099  0.0028
 1046loPI   PO415716   3.054  17.359   6.268  0.0625  0.0527 -0.2432
 1046loPI   GL115717   2.927  17.574   6.557  0.2370 -0.0074 -0.2460
 1046loPI   GL215718   3.244  17.386   6.751 -0.1166 -0.1260  0.1611
 1046loPI   C1A15719   2.764  17.689   6.986  0.2732  0.2867  0.0129
 1046loPI   C2A15720   2.858  17.607   7.400 -0.1968  0.0792  0.0830
 1046loPI   C3A15721   2.748  17.549   7.813 -0.0906  0.4133  0.1598
 1046loPI   C4A15722   2.695  17.371   8.195 -0.0015  0.1161  0.2127
 1046loPI   C5A15723   2.603  17.281   8.593  0.3140  0.0209 -0.2333
 1046loPI   C6A15724   2.237  17.437   8.793  0.0210 -0.1398  0.0699
 1046loPI   C1B15725   3.179  17.318   7.203 -0.2037 -0.1022  0.1761
 1046loPI   C2B15726   3.132  17.259   7.617 -0.1788 -0.0901  0.0936
 1046loPI   C3B15727   3.213  17.320   8.074 -0.2234  0.1943  0.1502
 1046loPI   C4B15728   3.149  17.476   8.404  0.0439  0.0156 -0.2420
 1047loPI    C115729  16.590  17.333   5.894  0.1577 -0.0266 -0.0232
 1047loPI    C215730  16.696  17.571   5.591  0.0216  0.0547 -0.0077
 1047loPI    C315731  16.312  17.549   5.703  0.0594 -0.0376  0.1055
 1047loPI   PO415732  16.724  17.450   6.110 -0.1844 -0.0967 -0.2737
 1047loPI   GL115733  17.051  17.545   6.537 -0.0503 -0.2787 -0.0698
 1047loPI   GL215734  16.763  17.562   6.598 -0.0552  0.1546 -0.1919
 1047loPI   C1A15735  17.027  17.376   6.948 -0.2240 -0.2026 -0.3469
 1047loPI   C2A15736  17.123  17.239   7.358  0.1737  0.0246  0.0841
 1047loPI   C3A15737  17.137  17.245   7.824 -0.1397  0.1484  0.2019
 1047loPI   C4A15738  17.034  17.345   8.227  0.0933  0.0538  0.0205
 1047loPI   C5A15739  16.907  17.612   8.496 -0.0878  0.0874  0.1472
 1047loPI   C6A15740  16.514  17.664   8.774  0.1307 -0.1819  0.0114
 1047loPI   C1B15741  16.710  17.756   7.094  0.1658 -0.1202  0.1557
 1047loPI   C2B15742  16.716  18.122   7.226 -0.2036  0.0568 -0.1580
 1047loPI   C3B15743  16.865  18.217   7.575 -0.1642  0.0636 -0.0632
 1047loPI   C4B15744  16.742  18.375   8.032  0.0209  0.1542 -0.4202
 1048loPI    C115745  14.065  16.915   6.192 -0.1258 -0.1230  0.0396
 1048loPI    C215746  14.360  16.699   6.353 -0.0150 -0.0017  0.0009
 1048loPI    C315747  14.403  16.854   5.987 -0.1070  0.0584  0.0153
 1048loPI   PO415748  14.010  17.077   6.364  0.1035 -0.1631 -0.2478
 1048loPI   GL115749  14.175  17.308   6.683 -0.0223  0.1408 -0.1059
 1048loPI   GL215750  14.175  17.496   6.997 -0.0326 -0.3076  0.3685
 1048loPI   C1A15751  13.716  17.275   6.961 -0.0368 -0.1024  0.1277
 1048loPI   C2A15752  13.668  17.356   7.376  0.1271  0.0947  0.3445
 1048loPI   C3A15753  13.788  17.342   7.775  0.1635 -0.2657 -0.2552
 1048loPI   C4A15754  13.712  17.480   8.232 -0.1495  0.0545  0.0149
 1048loPI   C5A15755  13.702  17.246   8.573 -0.1745  0.0324  0.2215
 1048loPI   C6A15756  13.464  16.891   8.774  0.0444  0.0583 -0.0062
 1048loPI   C1B15757  14.122  17.446   7.412 -0.0805 -0.1915 -0.1129
 1048loPI   C2B15758  14.219  17.619   7.830 -0.2533  0.0944 -0.3534
 1048loPI   C3B15759  14.108  17.773   8.233 -0.2325 -0.0154 -0.2276
 1048loPI   C4B15760  13.843  17.722   8.670  0.1310  0.0064 -0.3039
 1049loPI    C115761  15.408  11.952   5.712 -0.4392 -0.2201 -0.1052
 1049loPI    C215762  15.205  12.292   5.651  0.0057  0.0740  0.0038
 1049loPI    C315763  15.382  12.107   5.344  0.0478  0.1257 -0.0030
 1049loPI   PO415764  15.371  11.933   5.938 -0.1051 -0.0026 -0.1023
 1049loPI   GL115765  15.438  12.275   6.318  0.0927 -0.1443  0.1119
 1049loPI   GL215766  15.103  12.209   6.216  0.0164  0.0005  0.1831
 1049loPI   C1A15767  15.434  12.413   6.603  0.0982  0.3093 -0.0169
 1049loPI   C2A15768  15.511  12.406   7.018 -0.2453  0.2504  0.1732
 1049loPI   C3A15769  15.609  12.421   7.503 -0.2788  0.0700  0.2936
 1049loPI   C4A15770  15.676  12.441   8.013 -0.1512 -0.1028  0.3688
 1049loPI   C5A15771  15.475  12.320   8.436  0.2370  0.1057  0.1318
 1049loPI   C6A15772  15.122  12.273   8.687 -0.0464 -0.1563  0.0698
 1049loPI   C1B15773  15.108  12.025   6.658 -0.2063 -0.2897  0.0185
 1049loPI   C2B15774  15.193  12.049   7.141  0.0434  0.1661 -0.1591
 1049loPI   C3B15775  15.286  11.859   7.581 -0.2770 -0.1869 -0.1767
 1049loPI   C4B15776  15.305  11.708   7.967  0.3026  0.1573 -0.0736
 1050loPI    C115777   1.634   7.745   5.549  0.0696 -0.0020  0.0243
 1050loPI    C215778   1.309   7.951   5.658  0.1596  0.0624  0.1741
 1050loPI    C315779   1.282   7.669   5.376  0.0141  0.2047  0.0442
 1050loPI   PO415780   1.684   7.667   5.802  0.0318  0.1209 -0.0487
 1050loPI   GL115781   1.820   7.972   6.148  0.0420  0.0324 -0.1163
 1050loPI   GL215782   1.516   8.082   6.105  0.0021 -0.0821 -0.0032
 1050loPI   C1A15783   2.002   7.910   6.448  0.1804  0.0505 -0.1204
 1050loPI   C2A15784   1.874   8.036   6.815  0.2762  0.1321  0.0407
 1050loPI   C3A15785   1.832   8.087   7.179 -0.2757 -0.1374  0.1671
 1050loPI   C4A15786   1.734   8.014   7.635 -0.0585 -0.2481 -0.1069
 1050loPI   C5A15787   1.689   8.007   8.098 -0.3162 -0.1454  0.0516
 1050loPI   C6A15788   1.840   8.351   8.459  0.1841  0.0672  0.0763
 1050loPI   C1B15789   1.446   8.280   6.445 -0.0394  0.0006  0.2106
 1050loPI   C2B15790   1.450   8.462   6.808  0.2053  0.3742 -0.0650
 1050loPI   C3B15791   1.387   8.430   7.204 -0.0349  0.0793 -0.1068
 1050loPI   C4B15792   1.292   8.371   7.697  0.2222  0.0679  0.1285
 1051loPI    C115793   3.018   0.890   5.778 -0.0810  0.0264 -0.1257
 1051loPI    C215794   2.957   0.519   5.643  0.1259 -0.0195 -0.0960
 1051loPI    C315795   3.237   0.750   5.474  0.2453 -0.0052  0.1182
 1051loPI   PO415796   2.968   0.835   6.151  0.1370 -0.1599 -0.2490
 1051loPI   GL115797   3.062   0.523   6.389 -0.0868  0.0384 -0.0604
 1051loPI   GL215798   3.231   0.690   6.550 -0.2385 -0.0838 -0.0112
 1051loPI   C1A15799   3.249   0.335   6.858 -0.0201  0.0489 -0.0415
 1051loPI   C2A15800   3.233   0.342   7.262 -0.0857  0.1690 -0.0271
 1051loPI   C3A15801   3.210   0.210   7.627  0.2163 -0.0726  0.1221
 1051loPI   C4A15802   3.337   0.338   8.015 -0.0013  0.0933 -0.1341
 1051loPI   C5A15803   3.598   0.152   8.298  0.2330 -0.0853  0.0301
 1051loPI   C6A15804   3.581  -0.255   8.466 -0.0923 -0.0877 -0.0709
 1051loPI   C1B15805   3.341   0.810   6.996  0.4495  0.1999 -0.1276
 1051loPI   C2B15806   3.333   0.793   7.406 -0.0839  0.0170 -0.0061
 1051loPI   C3B15807   3.393   0.855   7.860  0.0803  0.2383  0.1751
 1051loPI   C4B15808   3.533   0.803   8.324 -0.5913  0.0589  0.1937
 1052loPI    C115809  11.254  15.684   6.240  0.0168 -0.0613  0.1442
 1052loPI    C215810  11.174  15.641   5.851  0.2643  0.1764  0.0640
 1052loPI    C315811  11.044  15.964   6.047  0.0904  0.0290  0.1943
 1052loPI   PO415812  11.153  15.467   6.355 -0.1323  0.1863 -0.4846
 1052loPI   GL115813  10.911  15.378   6.714 -0.2586  0.2786 -0.1298
 1052loPI   GL215814  11.086  15.086   6.661  0.2011  0.0034 -0.0792
 1052loPI   C1A15815  10.830  15.381   7.117 -0.4923 -0.1752  0.0342
 1052loPI   C2A15816  10.808  15.421   7.471 -0.0944 -0.1051  0.2716
 1052loPI   C3A15817  10.606  15.522   7.880  0.3276  0.2398 -0.2980
 1052loPI   C4A15818  10.603  15.488   8.304 -0.1695  0.2673  0.1342
 1052loPI   C5A15819  10.900  15.354   8.627 -0.1416  0.1868  0.1009
 1052loPI   C6A15820  11.330  15.290   8.640 -0.3430 -0.0921  0.1866
 1052loPI   C1B15821  11.141  14.973   7.080  0.1258 -0.2267 -0.3045
 1052loPI   C2B15822  11.184  15.041   7.500 -0.0838  0.2263 -0.3520
 1052loPI   C3B15823  11.113  15.103   7.981 -0.2980  0.0286 -0.0621
 1052loPI   C4B15824  11.259  14.908   8.420  0.2450 -0.0172 -0.1338
 1053loPI    C115825  14.655   4.253   6.513 -0.0750 -0.1417 -0.0166
 1053loPI    C215826  14.415   4.080   6.244 -0.1273  0.1820 -0.1828
 1053loPI    C315827  14.386   4.472   6.315  0.0784  0.1504  0.0927
 1053loPI   PO415828  14.880   4.111   6.454  0.0118  0.0764 -0.2750
 1053loPI   GL115829  15.014   3.790   6.698  0.1189  0.2992  0.2843
 1053loPI   GL215830  14.850   3.848   6.946  0.0594  0.2402  0.3594
 1053loPI   C1A15831  15.321   3.722   7.008 -0.0146  0.1028 -0.0590
 1053loPI   C2A15832  15.325   3.556   7.381 -0.3942 -0.1610  0.2897
 1053loPI   C3A15833  15.399   3.506   7.782  0.3365  0.1184  0.0650
 1053loPI   C4A15834  15.326   3.514   8.254 -0.2713 -0.1130 -0.1826
 1053loPI   C5A15835  15.084   3.373   8.639 -0.1909 -0.0867  0.0340
 1053loPI   C6A15836  14.798   3.151   8.857  0.0533 -0.0995 -0.1673
 1053loPI   C1B15837  14.914   3.790   7.435 -0.1576  0.0801 -0.2855
 1053loPI   C2B15838  14.920   3.786   7.855 -0.5258  0.0745 -0.1313
 1053loPI   C3B15839  14.932   3.851   8.305 -0.0694 -0.1613  0.0172
 1053loPI   C4B15840  14.938   4.024   8.691 -0.0743  0.2079  0.2995
 1054loPI    C115841   1.793   4.011   5.771  0.0527  0.0206  0.1131
 1054loPI    C215842   1.474   4.163   5.583 -0.0431  0.0754  0.3184
 1054loPI    C315843   1.816   4.109   5.383 -0.0938  0.2901  0.1703
 1054loPI   PO415844   1.617   3.819   5.923  0.4142 -0.0720  0.4062
 1054loPI   GL115845   1.616   3.542   6.250 -0.0437 -0.0919  0.0733
 1054loPI   GL215846   1.766   3.289   6.345  0.1720 -0.1134 -0.2574
 1054loPI   C1A15847   1.913   3.640   6.632  0.1726 -0.2340 -0.1271
 1054loPI   C2A15848   1.961   3.800   6.977 -0.1513 -0.1296  0.1660
 1054loPI   C3A15849   2.020   3.704   7.410 -0.0915  0.1237 -0.3344
 1054loPI   C4A15850   1.986   3.761   7.896 -0.2085 -0.0441  0.2116
 1054loPI   C5A15851   2.063   3.815   8.324 -0.0256  0.1709  0.0679
 1054loPI   C6A15852   1.892   3.875   8.740 -0.0459  0.0296 -0.0047
 1054loPI   C1B15853   1.880   3.124   6.845  0.1313  0.0849 -0.1696
 1054loPI   C2B15854   1.914   3.242   7.284  0.3993  0.1887 -0.0590
 1054loPI   C3B15855   1.946   3.188   7.696  0.0713 -0.0591  0.0055
 1054loPI   C4B15856   1.813   3.202   8.196  0.0947  0.3079  0.2001
 1055loPI    C115857   6.700   0.220   6.039  0.0384  0.0774 -0.0982
 1055loPI    C215858   6.566  -0.026   5.753  0.0034 -0.0332  0.0126
 1055loPI    C315859   6.472   0.362   5.743 -0.0224 -0.0424 -0.1097
 1055loPI   PO415860   6.939   0.267   6.095  0.2708  0.1058 -0.2415
 1055loPI   GL115861   7.054   0.341   6.460 -0.2935  0.2409  0.1009
 1055loPI   GL215862   7.006   0.784   6.512  0.1662 -0.1978  0.3027
 1055loPI   C1A15863   6.936   0.370   6.926  0.0125 -0.1126  0.1082
 1055loPI   C2A15864   6.952   0.383   7.313 -0.1723 -0.0268 -0.4437
 1055loPI   C3A15865   6.878   0.382   7.867  0.0636 -0.1000 -0.1583
 1055loPI   C4A15866   6.813   0.398   8.251 -0.1279  0.0690 -0.1551
 1055loPI   C5A15867   7.014   0.626   8.568  0.0452 -0.1913 -0.0174
 1055loPI   C6A15868   7.215   1.027   8.625 -0.1405 -0.1740 -0.0755
 1055loPI   C1B15869   6.971   0.914   6.976  0.0325 -0.2625  0.0951
 1055loPI   C2B15870   7.043   0.888   7.356 -0.0711 -0.0927  0.2005
 1055loPI   C3B15871   6.955   0.878   7.700 -0.1375  0.0989 -0.1728
 1055loPI   C4B15872   6.913   0.893   8.168  0.0603 -0.1171 -0.3005
 1056loPI    C115873   0.576   6.949   5.616  0.0397 -0.1602 -0.0628
 1056loPI    C215874   0.827   6.694   5.438  0.0005 -0.2791  0.0514
 1056loPI    C315875   0.461   6.751   5.288  0.1013 -0.0908 -0.1267
 1056loPI   PO415876   0.631   6.876   5.869 -0.1768  0.2591  0.1484
 1056loPI   GL115877   0.874   6.998   6.287 -0.0500  0.3863  0.2856
 1056loPI   GL215878   1.183   7.129   6.314 -0.2631  0.0421  0.2049
 1056loPI   C1A15879   0.699   7.256   6.527  0.1186 -0.1845 -0.1381
 1056loPI   C2A15880   0.786   7.175   6.932 -0.0782 -0.0096  0.4581
 1056loPI   C3A15881   0.737   7.154   7.311  0.3805  0.1996  0.1290
 1056loPI   C4A15882   0.704   6.997   7.738  0.0781  0.0643 -0.1097
 1056loPI   C5A15883   0.675   7.080   8.205  0.0960 -0.1340  0.1787
 1056loPI   C6A15884   0.761   6.957   8.640 -0.0881 -0.0472  0.1217
 1056loPI   C1B15885   1.188   7.342   6.685 -0.1261  0.0238 -0.3877
 1056loPI   C2B15886   1.319   7.386   7.114  0.2274  0.2926  0.2459
 1056loPI   C3B15887   1.185   7.347   7.506  0.3336 -0.0379 -0.0607
 1056loPI   C4B15888   1.106   7.246   7.857  0.1043  0.3954 -0.0018
 1057loPI    C115889   2.752  14.557   5.851  0.1240  0.2466  0.1163
 1057loPI    C215890   3.082  14.691   5.668  0.2760 -0.0713  0.1505
 1057loPI    C315891   2.958  14.316   5.607 -0.1701  0.0914  0.0169
 1057loPI   PO415892   2.742  14.637   6.047 -0.0197  0.2775 -0.0332
 1057loPI   GL115893   2.635  14.810   6.361  0.1244 -0.1531  0.0735
 1057loPI   GL215894   2.397  15.057   6.485 -0.1836  0.2739  0.1759
 1057loPI   C1A15895   2.803  14.854   6.698 -0.0553  0.2558  0.0402
 1057loPI   C2A15896   2.916  14.815   7.117  0.1835 -0.1858 -0.0136
 1057loPI   C3A15897   2.854  14.721   7.539  0.1434  0.2372 -0.0351
 1057loPI   C4A15898   2.877  14.869   7.962 -0.0031  0.0445 -0.0627
 1057loPI   C5A15899   2.939  14.934   8.355 -0.0237 -0.0420 -0.0241
 1057loPI   C6A15900   3.141  15.206   8.658 -0.2953 -0.4948 -0.4079
 1057loPI   C1B15901   2.390  15.118   6.778  0.1324  0.1089 -0.1528
 1057loPI   C2B15902   2.470  15.030   7.257 -0.0627  0.1443  0.1682
 1057loPI   C3B15903   2.461  15.080   7.700 -0.0219 -0.3927  0.2018
 1057loPI   C4B15904   2.127  15.280   7.915  0.4231 -0.2559  0.1628
 1058loPI    C115905  16.098  12.628   5.695 -0.0877 -0.1518  0.0814
 1058loPI    C215906  15.751  12.803   5.791 -0.0851 -0.1681  0.1210
 1058loPI    C315907  15.755  12.484   5.549 -0.1009 -0.1900  0.1498
 1058loPI   PO415908  16.217  12.606   5.970  0.2530 -0.0198  0.1123
 1058loPI   GL115909  16.389  12.458   6.299 -0.0450  0.0345  0.1362
 1058loPI   GL215910  16.235  12.242   6.316  0.2558  0.1159  0.3529
 1058loPI   C1A15911  16.479  12.282   6.799 -0.1050  0.1997  0.1391
 1058loPI   C2A15912  16.550  12.120   7.173 -0.0183 -0.1364  0.1734
 1058loPI   C3A15913  16.577  11.993   7.594 -0.0696  0.2362 -0.0834
 1058loPI   C4A15914  16.602  11.965   7.970 -0.2033 -0.0844 -0.1970
 1058loPI   C5A15915  16.337  12.041   8.285  0.2599  0.0727  0.1547
 1058loPI   C6A15916  15.996  12.220   8.430  0.0191 -0.1682 -0.1489
 1058loPI   C1B15917  15.952  12.323   6.627  0.0731 -0.3750 -0.3363
 1058loPI   C2B15918  16.001  12.324   7.001 -0.1116  0.1565 -0.1781
 1058loPI   C3B15919  16.104  12.286   7.420  0.1342 -0.0338  0.1191
 1058loPI   C4B15920  16.120  12.175   7.854 -0.0561 -0.1240 -0.0098
 1059loPI    C115921   4.807  15.004   6.154 -0.0094  0.2814 -0.0026
 1059loPI    C215922   4.865  14.965   5.760  0.1892 -0.1050  0.0603
 1059loPI    C315923   4.498  15.035   5.902  0.0651 -0.2623 -0.1752
 1059loPI   PO415924   5.016  15.160   6.234 -0.1907 -0.0402  0.0624
 1059loPI   GL115925   5.215  15.496   6.430  0.1089  0.1371  0.1161
 1059loPI   GL215926   5.254  15.203   6.683  0.4562 -0.1302 -0.2132
 1059loPI   C1A15927   5.261  15.767   6.808  0.1196 -0.0876 -0.2192
 1059loPI   C2A15928   5.286  15.816   7.311  0.1949  0.3481 -0.0591
 1059loPI   C3A15929   5.206  15.728   7.663  0.0754  0.3301 -0.0738
 1059loPI   C4A15930   5.295  15.750   8.092 -0.2339  0.1227 -0.2542
 1059loPI   C5A15931   5.441  15.493   8.533 -0.0625  0.0083 -0.1898
 1059loPI   C6A15932   5.663  15.169   8.811  0.2343  0.1388 -0.3514
 1059loPI   C1B15933   5.266  15.312   7.116 -0.0181 -0.4960 -0.1839
 1059loPI   C2B15934   5.278  15.169   7.517 -0.1895 -0.2444 -0.0740
 1059loPI   C3B15935   5.190  15.119   7.979  0.0125  0.0382  0.0011
 1059loPI   C4B15936   5.320  15.064   8.323  0.0719 -0.2408 -0.2019
 1060loPI    C115937  12.025  13.470   6.270  0.0039  0.0346  0.1242
 1060loPI    C215938  12.269  13.685   6.037 -0.0644 -0.1968 -0.1686
 1060loPI    C315939  12.254  13.288   5.996 -0.2389 -0.2184  0.0850
 1060loPI   PO415940  12.000  13.657   6.484 -0.0921  0.1730  0.1669
 1060loPI   GL115941  11.824  13.537   6.843 -0.0617  0.3502  0.2345
 1060loPI   GL215942  11.892  13.226   6.720  0.0038 -0.2746 -0.1769
 1060loPI   C1A15943  11.920  13.481   7.218  0.0554 -0.0417 -0.0578
 1060loPI   C2A15944  11.853  13.332   7.562  0.0642  0.2304  0.0878
 1060loPI   C3A15945  11.682  13.373   7.856 -0.0043 -0.3260  0.3652
 1060loPI   C4A15946  11.291  13.459   8.166 -0.1413 -0.3677  0.0293
 1060loPI   C5A15947  11.120  13.336   8.456 -0.2739 -0.0548 -0.1021
 1060loPI   C6A15948  10.916  13.138   8.815  0.1485 -0.0470 -0.0192
 1060loPI   C1B15949  11.893  12.992   7.132 -0.0077 -0.0568  0.0198
 1060loPI   C2B15950  11.837  12.834   7.449  0.1970 -0.3278 -0.0226
 1060loPI   C3B15951  11.667  12.862   7.865 -0.0371  0.1986 -0.1472
 1060loPI   C4B15952  11.514  12.928   8.322 -0.0509 -0.3787  0.1323
 1061loPI    C115953   9.739  12.430   5.629  0.0554  0.1358  0.1335
 1061loPI    C215954   9.482  12.193   5.435  0.1982  0.0577  0.0380
 1061loPI    C315955   9.777  12.374   5.235  0.2410  0.1165  0.1533
 1061loPI   PO415956   9.620  12.379   5.954 -0.2379 -0.1306 -0.2272
 1061loPI   GL115957   9.773  12.270   6.348 -0.0017 -0.2955  0.0146
 1061loPI   GL215958   9.947  12.064   6.288 -0.1163  0.0489 -0.0344
 1061loPI   C1A15959   9.867  12.071   6.789 -0.2440  0.1411  0.1616
 1061loPI   C2A15960   9.903  12.143   7.226  0.0150 -0.1449  0.0002
 1061loPI   C3A15961   9.858  12.085   7.632  0.3249  0.2644  0.0759
 1061loPI   C4A15962   9.850  12.164   8.098 -0.0230  0.3354 -0.0509
 1061loPI   C5A15963  10.115  12.095   8.396 -0.2084 -0.1362  0.3631
 1061loPI   C6A15964  10.509  11.793   8.398  0.1097  0.0375 -0.0221
 1061loPI   C1B15965  10.192  11.770   6.583 -0.0943  0.0708 -0.0020
 1061loPI   C2B15966  10.242  11.777   7.056 -0.1541  0.0048 -0.2956
 1061loPI   C3B15967  10.205  11.815   7.480  0.3407  0.1374 -0.0462
 1061loPI   C4B15968  10.283  11.896   7.955  0.1226 -0.0369  0.1661
 1062loPI    C115969   0.738   7.452   5.512 -0.1522 -0.2349  0.3512
 1062loPI    C215970   1.048   7.219   5.414  0.1367  0.2659  0.0309
 1062loPI    C315971   0.745   7.268   5.157  0.0565  0.2102  0.1148
 1062loPI   PO415972   0.857   7.713   5.670  0.1459  0.0222 -0.1107
 1062loPI   GL115973   0.977   7.915   6.058 -0.0688 -0.1126 -0.1342
 1062loPI   GL215974   1.019   7.636   6.244 -0.2188 -0.3594 -0.1507
 1062loPI   C1A15975   0.968   8.175   6.475  0.0913  0.2482 -0.0627
 1062loPI   C2A15976   0.944   8.239   6.831 -0.2052  0.1798  0.1828
 1062loPI   C3A15977   0.803   8.125   7.282 -0.1789  0.2525 -0.1828
 1062loPI   C4A15978   0.846   8.124   7.724  0.0178 -0.1820 -0.2354
 1062loPI   C5A15979   0.792   8.327   8.127 -0.0526  0.0225 -0.0996
 1062loPI   C6A15980   0.935   8.598   8.393  0.0324  0.0409  0.0785
 1062loPI   C1B15981   0.831   7.663   6.706  0.3387  0.2096 -0.3418
 1062loPI   C2B15982   0.839   7.609   7.166 -0.1616  0.0885  0.1981
 1062loPI   C3B15983   0.760   7.652   7.541 -0.1271 -0.0621 -0.0943
 1062loPI   C4B15984   0.881   7.677   7.961 -0.1761  0.0641 -0.2594
 1063loPI    C115985   8.006   3.079   5.818 -0.3162 -0.1533  0.0712
 1063loPI    C215986   8.052   3.251   5.459  0.0755 -0.0867  0.1486
 1063loPI    C315987   8.094   2.855   5.498 -0.0842 -0.1090  0.1024
 1063loPI   PO415988   8.105   3.195   6.016 -0.2199  0.0482 -0.2851
 1063loPI   GL115989   8.191   3.408   6.343  0.0791  0.1139  0.0295
 1063loPI   GL215990   8.038   3.639   6.552 -0.1859  0.1322  0.0169
 1063loPI   C1A15991   8.302   3.304   6.812  0.0752 -0.1233 -0.0056
 1063loPI   C2A15992   8.384   3.275   7.277  0.0732  0.1344  0.1080
 1063loPI   C3A15993   8.393   3.350   7.700  0.1037 -0.1389  0.0556
 1063loPI   C4A15994   8.396   3.365   8.163  0.0288 -0.1991 -0.0737
 1063loPI   C5A15995   8.413   3.442   8.580  0.3458 -0.2995 -0.1276
 1063loPI   C6A15996   8.202   3.780   8.798 -0.0351  0.3321  0.0555
 1063loPI   C1B15997   7.949   3.677   6.942 -0.0585  0.1466  0.0782
 1063loPI   C2B15998   8.006   3.647   7.438  0.1135  0.0333 -0.1567
 1063loPI   C3B15999   7.958   3.563   7.876 -0.3812 -0.0911 -0.0681
 1063loPI   C4B16000   8.015   3.691   8.275 -0.1404  0.2808  0.0614
 1064loPI    C116001   9.322   9.887   5.556 -0.0775  0.2187  0.0379
 1064loPI    C216002   8.969   9.891   5.367 -0.0956 -0.1177  0.0588
 1064loPI    C316003   9.287   9.721   5.194  0.0571  0.1762  0.0437
 1064loPI   PO416004   9.228  10.075   5.910  0.1202 -0.4091  0.2132
 1064loPI   GL116005   9.129   9.870   6.207 -0.1201  0.1554 -0.1370
 1064loPI   GL216006   9.360   9.636   6.363  0.1023  0.3140  0.1115
 1064loPI   C1A16007   8.908  10.042   6.503 -0.0197 -0.3774 -0.1936
 1064loPI   C2A16008   9.038   9.943   6.833  0.0971 -0.0592 -0.0875
 1064loPI   C3A16009   9.102   9.883   7.294  0.3346 -0.0782 -0.0878
 1064loPI   C4A16010   9.039   9.832   7.699 -0.3838  0.0486  0.2428
 1064loPI   C5A16011   8.964   9.783   8.175  0.0124 -0.1954  0.0305
 1064loPI   C6A16012   9.177   9.626   8.485 -0.1146  0.0022 -0.1841
 1064loPI   C1B16013   9.397   9.586   6.774  0.3059  0.1033  0.0529
 1064loPI   C2B16014   9.609   9.574   7.145  0.1275 -0.2863  0.1278
 1064loPI   C3B16015   9.492   9.569   7.615  0.1587 -0.0179  0.1967
 1064loPI   C4B16016   9.413   9.540   8.015 -0.2129  0.4324 -0.3012
 1065loPI    C116017   7.187   9.319   5.674 -0.2350 -0.0344 -0.1346
 1065loPI    C216018   7.441   9.505   5.427 -0.1069  0.0912  0.0879
 1065loPI    C316019   7.369   9.114   5.382  0.0639  0.0717 -0.0272
 1065loPI   PO416020   7.221   9.355   5.941  0.0247  0.1912 -0.1672
 1065loPI   GL116021   7.509   9.393   6.243  0.1241 -0.1517  0.1737
 1065loPI   GL216022   7.680   9.241   6.283 -0.0034  0.2114 -0.2328
 1065loPI   C1A16023   7.482   9.438   6.677  0.0893 -0.1996 -0.1184
 1065loPI   C2A16024   7.425   9.358   7.102  0.0693 -0.3237 -0.0506
 1065loPI   C3A16025   7.541   9.255   7.499 -0.1601  0.1153 -0.0957
 1065loPI   C4A16026   7.457   9.172   7.856 -0.1842 -0.1464  0.0427
 1065loPI   C5A16027   7.474   9.126   8.237 -0.0872  0.2366 -0.1741
 1065loPI   C6A16028   7.576   8.990   8.501 -0.2455  0.0764  0.0843
 1065loPI   C1B16029   7.953   9.083   6.723 -0.3517  0.1588  0.0777
 1065loPI   C2B16030   7.937   9.087   7.164  0.1688  0.1371 -0.0138
 1065loPI   C3B16031   7.946   8.946   7.556  0.3454 -0.1227  0.0574
 1065loPI   C4B16032   7.883   8.887   7.929 -0.2917 -0.0085 -0.4091
 1066loPI    C116033   5.939   4.560   5.677  0.0539  0.1733 -0.0791
 1066loPI    C216034   6.284   4.743   5.588  0.1625  0.0047 -0.0084
 1066loPI    C316035   6.151   4.444   5.359  0.1183 -0.0031  0.0271
 1066loPI   PO416036   5.821   4.693   5.825  0.2407 -0.1741  0.1768
 1066loPI   GL116037   5.736   4.963   6.233 -0.3124 -0.2463 -0.0546
 1066loPI   GL216038   5.815   4.747   6.436 -0.0063 -0.0903  0.1912
 1066loPI   C1A16039   6.015   5.176   6.567  0.0757  0.3412 -0.0991
 1066loPI   C2A16040   5.984   5.327   7.013 -0.0578  0.2103 -0.0667
 1066loPI   C3A16041   5.937   5.262   7.488  0.2036 -0.0812 -0.0118
 1066loPI   C4A16042   5.882   5.300   7.888  0.3058  0.1326 -0.3141
 1066loPI   C5A16043   5.782   5.304   8.285 -0.0171 -0.0550  0.2919
 1066loPI   C6A16044   5.954   5.018   8.605 -0.0725  0.3591  0.0229
 1066loPI   C1B16045   5.886   4.765   6.836  0.0985 -0.1906  0.2579
 1066loPI   C2B16046   5.845   4.764   7.292  0.2770  0.3301  0.4638
 1066loPI   C3B16047   5.848   4.817   7.724 -0.0347  0.2534 -0.0555
 1066loPI   C4B16048   5.815   4.862   8.154 -0.3217  0.1442 -0.2593
 1067loPI    C116049  15.275  13.961   6.457  0.1163  0.0717  0.1574
 1067loPI    C216050  14.946  14.122   6.296  0.1952  0.1600  0.0831
 1067loPI    C316051  15.292  14.131   6.095  0.2134 -0.0532  0.1026
 1067loPI   PO416052  15.205  13.802   6.541 -0.0610 -0.0502  0.2267
 1067loPI   GL116053  14.855  13.535   6.940 -0.0633  0.2471 -0.0156
 1067loPI   GL216054  14.442  13.595   6.884 -0.1043 -0.1833  0.0530
 1067loPI   C1A16055  14.837  13.502   7.388  0.1386  0.0713 -0.1177
 1067loPI   C2A16056  14.528  13.757   7.748  0.3118 -0.1187 -0.0548
 1067loPI   C3A16057  14.606  14.044   8.099 -0.0977  0.2890  0.1058
 1067loPI   C4A16058  14.825  14.014   8.525 -0.0409  0.0723  0.0157
 1067loPI   C5A16059  14.974  14.340   8.855 -0.2634  0.0236 -0.1541
 1067loPI   C6A16060  15.139  14.713   8.932 -0.1444 -0.3621  0.0957
 1067loPI   C1B16061  14.487  13.203   7.195  0.2218  0.0823  0.3919
 1067loPI   C2B16062  14.518  13.174   7.621 -0.2776 -0.3800 -0.0146
 1067loPI   C3B16063  14.702  13.316   7.894 -0.1145  0.1440  0.0711
 1067loPI   C4B16064  15.101  13.279   8.050 -0.1757  0.1907  0.0932
 1068loPI    C116065  15.388   7.885   5.738 -0.0917  0.0531  0.0397
 1068loPI    C216066  15.247   8.146   5.469 -0.2575 -0.0228  0.0517
 1068loPI    C316067  15.502   7.859   5.355 -0.3196 -0.0487 -0.0226
 1068loPI   PO416068  15.459   8.030   5.946 -0.1923 -0.2111  0.1465
 1068loPI   GL116069  15.236   8.222   6.332  0.0500  0.0348 -0.0062
 1068loPI   GL216070  14.962   8.309   6.386  0.0350 -0.0629  0.1399
 1068loPI   C1A16071  15.360   8.368   6.812  0.1592  0.3164 -0.0459
 1068loPI   C2A16072  15.150   8.437   7.235 -0.4333 -0.1465  0.0338
 1068loPI   C3A16073  15.102   8.393   7.638  0.1207  0.3341 -0.3066
 1068loPI   C4A16074  15.105   8.321   7.991  0.0503 -0.0078 -0.1488
 1068loPI   C5A16075  14.979   8.170   8.350  0.3244 -0.0585 -0.0126
 1068loPI   C6A16076  14.872   8.153   8.805 -0.1384 -0.0348  0.0716
 1068loPI   C1B16077  14.837   8.221   6.747 -0.0154 -0.0191 -0.1776
 1068loPI   C2B16078  14.698   8.223   7.149 -0.2261  0.1784  0.0095
 1068loPI   C3B16079  14.680   8.175   7.544  0.0301  0.0942  0.4186
 1068loPI   C4B16080  14.603   8.152   7.997 -0.1109 -0.0572  0.0224
 1069loPI    C116081  16.279   6.327   5.901 -0.1357 -0.0656 -0.0448
 1069loPI    C216082  16.237   6.021   5.647 -0.0101  0.0559 -0.2141
 1069loPI    C316083  16.434   6.350   5.533  0.1095  0.0837  0.0653
 1069loPI   PO416084  16.251   6.189   6.086  0.1460 -0.0864 -0.1646
 1069loPI   GL116085  16.419   6.370   6.464 -0.0653  0.1476  0.1069
 1069loPI   GL216086  16.666   6.474   6.598  0.1521  0.2726  0.2289
 1069loPI   C1A16087  16.313   6.354   6.939 -0.0163 -0.3309 -0.0880
 1069loPI   C2A16088  16.231   6.346   7.455  0.1717 -0.0425  0.1415
 1069loPI   C3A16089  16.219   6.309   7.862 -0.0122  0.0809  0.0453
 1069loPI   C4A16090  16.214   6.408   8.286  0.0827 -0.0669 -0.1621
 1069loPI   C5A16091  15.967   6.238   8.715  0.2625  0.1933 -0.1562
 1069loPI   C6A16092  16.033   5.842   9.017 -0.0374  0.1275  0.0246
 1069loPI   C1B16093  16.784   6.538   6.935  0.3402 -0.2172  0.3114
 1069loPI   C2B16094  16.813   6.515   7.337 -0.1074  0.1517  0.1695
 1069loPI   C3B16095  16.703   6.433   7.750  0.1645  0.0244 -0.1798
 1069loPI   C4B16096  16.737   6.627   8.155 -0.0742 -0.1762  0.0616
 1070loPI    C116097   7.645  17.011   5.830 -0.0586  0.3703 -0.0574
 1070loPI    C216098   7.315  17.011   5.603 -0.1351 -0.3777  0.0280
 1070loPI    C316099   7.674  16.959   5.434 -0.0867  0.0791 -0.0234
 1070loPI   PO416100   7.565  17.281   6.014 -0.2127 -0.0928  0.0996
 1070loPI   GL116101   7.313  17.391   6.375 -0.0746  0.1008 -0.1254
 1070loPI   GL216102   7.368  17.108   6.571 -0.2145 -0.1885  0.0094
 1070loPI   C1A16103   7.322  17.584   6.771  0.0240 -0.4613  0.2382
 1070loPI   C2A16104   7.366  17.636   7.178  0.1970  0.0545 -0.1049
 1070loPI   C3A16105   7.360  17.613   7.634  0.1515  0.0118  0.0309
 1070loPI   C4A16106   7.308  17.650   8.085  0.2814 -0.2831  0.0059
 1070loPI   C5A16107   7.418  17.804   8.452 -0.1279 -0.1817  0.0432
 1070loPI   C6A16108   7.694  17.733   8.860 -0.0994  0.2197 -0.1010
 1070loPI   C1B16109   7.340  17.098   6.977 -0.2745 -0.1268 -0.1349
 1070loPI   C2B16110   7.314  17.016   7.431  0.1222 -0.0578  0.1094
 1070loPI   C3B16111   7.343  17.165   7.925  0.0524  0.3034 -0.0241
 1070loPI   C4B16112   7.218  17.092   8.341  0.1098  0.0651  0.1534
 1071loPI    C116113   7.553   7.524   5.545  0.1763 -0.1708  0.0305
 1071loPI    C216114   7.776   7.818   5.391  0.2189 -0.1331  0.1623
 1071loPI    C316115   7.645   7.522   5.156  0.1244  0.0227  0.0160
 1071loPI   PO416116   7.391   7.749   5.799  0.0699 -0.1404  0.0614
 1071loPI   GL116117   7.061   8.105   6.056 -0.1352 -0.1381  0.3282
 1071loPI   GL216118   7.386   8.022   6.171 -0.1140 -0.2583  0.0969
 1071loPI   C1A16119   6.888   8.148   6.497 -0.0704 -0.1225 -0.3468
 1071loPI   C2A16120   6.848   8.132   6.926  0.1591 -0.0560 -0.2919
 1071loPI   C3A16121   6.850   8.025   7.411 -0.3214  0.2076  0.1147
 1071loPI   C4A16122   6.852   7.959   7.862  0.1182 -0.2569  0.2130
 1071loPI   C5A16123   6.783   8.200   8.202  0.1303 -0.0043 -0.2192
 1071loPI   C6A16124   6.639   8.089   8.597  0.2156  0.1779  0.1676
 1071loPI   C1B16125   7.196   7.790   6.432 -0.1864  0.0512  0.0418
 1071loPI   C2B16126   7.214   7.810   6.826  0.0512 -0.0644 -0.2744
 1071loPI   C3B16127   7.239   7.789   7.217  0.1394  0.1278  0.0921
 1071loPI   C4B16128   7.266   7.666   7.697  0.1684  0.0237  0.1927
 1072loPI    C116129   1.523  11.484   5.793  0.1453 -0.0900 -0.0804
 1072loPI    C216130   1.432  11.510   5.405  0.1240  0.0723 -0.0652
 1072loPI    C316131   1.813  11.464   5.518  0.1617  0.2924 -0.0971
 1072loPI   PO416132   1.249  11.540   5.878  0.1651 -0.0833  0.2338
 1072loPI   GL116133   1.159  11.541   6.326  0.1775  0.0622 -0.0643
 1072loPI   GL216134   1.370  11.384   6.367 -0.1533  0.1644 -0.1134
 1072loPI   C1A16135   1.006  11.648   6.690  0.0908 -0.1521  0.0142
 1072loPI   C2A16136   1.004  11.629   7.077 -0.0836 -0.0490  0.1847
 1072loPI   C3A16137   0.983  11.616   7.510 -0.0579  0.1992  0.0577
 1072loPI   C4A16138   0.947  11.586   7.894  0.0628 -0.0119  0.2443
 1072loPI   C5A16139   0.848  11.752   8.319 -0.1500 -0.2321 -0.1188
 1072loPI   C6A16140   1.110  11.831   8.710 -0.1298 -0.0379 -0.0809
 1072loPI   C1B16141   1.344  11.300   6.820 -0.1856 -0.0768 -0.3684
 1072loPI   C2B16142   1.426  11.318   7.275  0.0935  0.0954  0.3241
 1072loPI   C3B16143   1.416  11.245   7.668 -0.2809  0.0207 -0.2600
 1072loPI   C4B16144   1.172  11.215   8.117 -0.0576 -0.2555 -0.0207
 1073loPI    C116145  16.491  16.016   5.983  0.1012  0.0439  0.4074
 1073loPI    C216146  16.657  16.296   5.749 -0.1917 -0.2407 -0.1622
 1073loPI    C316147  16.630  15.918   5.620 -0.2846 -0.4267  0.3775
 1073loPI   PO416148  16.641  16.113   6.240  0.0614  0.3116  0.1122
 1073loPI   GL116149  16.677  16.245   6.622 -0.1262 -0.1703 -0.0682
 1073loPI   GL216150  16.862  15.965   6.745  0.1454 -0.0007  0.1306
 1073loPI   C1A16151  16.862  16.356   7.039  0.1474  0.2118  0.1299
 1073loPI   C2A16152  16.868  16.429   7.457  0.1219 -0.5311 -0.2219
 1073loPI   C3A16153  16.807  16.366   7.804 -0.5798  0.1226 -0.0905
 1073loPI   C4A16154  16.702  16.574   8.143 -0.0115 -0.1909 -0.2960
 1073loPI   C5A16155  16.633  16.418   8.571 -0.0497  0.2106 -0.1715
 1073loPI   C6A16156  16.510  16.205   9.032  0.0566  0.4201  0.1419
 1073loPI   C1B16157  17.123  15.747   7.098 -0.0257  0.0048  0.3895
 1073loPI   C2B16158  17.142  15.713   7.464  0.1610 -0.1371  0.1259
 1073loPI   C3B16159  17.255  15.577   7.784  0.0758 -0.0369 -0.2841
 1073loPI   C4B16160  17.596  15.484   8.038  0.0454 -0.1266  0.0011
 1074loPI    C116161   8.260   3.729   6.002 -0.0961  0.0978  0.1021
 1074loPI    C216162   8.339   3.843   5.627 -0.2231  0.2131  0.1095
 1074loPI    C316163   7.970   3.726   5.728 -0.2178  0.2953  0.2260
 1074loPI   PO416164   8.350   3.887   6.286  0.0184  0.0119 -0.1905
 1074loPI   GL116165   8.564   3.759   6.589  0.2665  0.1798 -0.1462
 1074loPI   GL216166   8.856   3.576   6.587  0.1189  0.0947  0.2058
 1074loPI   C1A16167   8.502   3.755   6.997  0.2029 -0.3568 -0.0096
 1074loPI   C2A16168   8.501   3.844   7.476  0.0737 -0.0330  0.1181
 1074loPI   C3A16169   8.483   3.869   7.937  0.0874 -0.1132 -0.2236
 1074loPI   C4A16170   8.525   3.884   8.395 -0.2437 -0.0213 -0.2383
 1074loPI   C5A16171   8.808   3.843   8.764 -0.0294  0.1053 -0.0271
 1074loPI   C6A16172   8.802   3.444   9.005  0.1094 -0.0219 -0.0817
 1074loPI   C1B16173   8.902   3.501   6.987  0.0996  0.0462 -0.0670
 1074loPI   C2B16174   8.835   3.487   7.458  0.0410  0.1032 -0.0239
 1074loPI   C3B16175   8.827   3.557   7.916  0.1697  0.1514  0.1541
 1074loPI   C4B16176   8.903   3.508   8.351 -0.1924 -0.0268 -0.0234
 1075loPI    C116177   4.115  10.717   5.833  0.0256 -0.0866 -0.1075
 1075loPI    C216178   3.933  11.036   5.676  0.1606  0.2048  0.3124
 1075loPI    C316179   4.150  10.796   5.442 -0.3731  0.1119 -0.1083
 1075loPI   PO416180   3.972  10.585   5.998  0.0258  0.1624  0.3722
 1075loPI   GL116181   3.849  10.463   6.441  0.1160 -0.0281  0.1879
 1075loPI   GL216182   4.150  10.359   6.397 -0.1586  0.3691 -0.1869
 1075loPI   C1A16183   3.643  10.177   6.885 -0.1774 -0.1132 -0.2928
 1075loPI   C2A16184   3.533  10.074   7.327 -0.1507 -0.2773  0.0639
 1075loPI   C3A16185   3.419  10.155   7.715  0.1527  0.0765 -0.0593
 1075loPI   C4A16186   3.397  10.088   8.176 -0.1932  0.2639 -0.2911
 1075loPI   C5A16187   3.591  10.126   8.614 -0.0735 -0.1432 -0.1272
 1075loPI   C6A16188   3.772  10.587   8.845  0.1665 -0.2026 -0.3416
 1075loPI   C1B16189   4.167  10.315   6.811  0.2043 -0.1916 -0.2286
 1075loPI   C2B16190   4.098  10.243   7.228 -0.0284  0.1473  0.1619
 1075loPI   C3B16191   3.939  10.308   7.636 -0.1619 -0.1761  0.3965
 1075loPI   C4B16192   3.884  10.307   8.027 -0.1503  0.1231  0.0201
 1076loPI    C116193   8.608  13.357   5.813  0.0899 -0.2571 -0.1227
 1076loPI    C216194   8.922  13.115   5.866  0.1848 -0.1586 -0.2303
 1076loPI    C316195   8.976  13.483   5.718  0.0545 -0.0311  0.0329
 1076loPI   PO416196   8.537  13.359   6.049 -0.1134  0.0703  0.0855
 1076loPI   GL116197   8.258  13.359   6.405  0.5286  0.2565  0.2292
 1076loPI   GL216198   8.502  13.198   6.493  0.0671 -0.2095 -0.2574
 1076loPI   C1A16199   8.234  13.500   6.784  0.1003  0.0623 -0.1158
 1076loPI   C2A16200   8.182  13.419   7.228  0.1605 -0.0551 -0.0560
 1076loPI   C3A16201   8.170  13.486   7.684 -0.0522  0.0023 -0.0056
 1076loPI   C4A16202   8.148  13.412   8.142 -0.0331 -0.2290  0.4130
 1076loPI   C5A16203   7.977  13.450   8.533  0.2630 -0.0709  0.1357
 1076loPI   C6A16204   7.815  13.618   8.942  0.1804 -0.1123  0.2819
 1076loPI   C1B16205   8.742  13.098   6.814 -0.0204 -0.0655  0.0285
 1076loPI   C2B16206   8.650  13.060   7.258  0.1903 -0.2392  0.1857
 1076loPI   C3B16207   8.683  13.094   7.594 -0.0416  0.3138 -0.0869
 1076loPI   C4B16208   8.559  13.166   8.000  0.0231 -0.0092  0.0329
 1077loPI    C116209   6.176  11.255   5.189 -0.1157  0.1833 -0.0260
 1077loPI    C216210   5.858  11.474   5.083 -0.0948  0.1964 -0.0613
 1077loPI    C316211   6.227  11.599   4.991 -0.0824  0.1518 -0.0723
 1077loPI   PO416212   6.147  11.215   5.411  0.0408 -0.0362  0.1620
 1077loPI   GL116213   6.364  11.232   5.954 -0.1206  0.1494 -0.0995
 1077loPI   GL216214   6.115  11.304   5.889 -0.0051 -0.0470  0.0362
 1077loPI   C1A16215   6.561  11.357   6.429  0.1977  0.3212  0.4041
 1077loPI   C2A16216   6.473  11.351   6.758  0.0187 -0.0919  0.0173
 1077loPI   C3A16217   6.359  11.300   7.141 -0.1192  0.0154 -0.0061
 1077loPI   C4A16218   6.483  11.357   7.584  0.1227  0.1849  0.2007
 1077loPI   C5A16219   6.426  11.147   7.939  0.2162 -0.0442 -0.1297
 1077loPI   C6A16220   6.185  11.243   8.327  0.1296  0.0416  0.0952
 1077loPI   C1B16221   6.061  11.307   6.449 -0.4598  0.1379 -0.0360
 1077loPI   C2B16222   5.931  11.333   6.881  0.1613  0.2208 -0.0518
 1077loPI   C3B16223   5.858  11.162   7.225 -0.0904  0.0096 -0.2218
 1077loPI   C4B16224   5.927  11.147   7.693  0.2782 -0.0506  0.3448
 1078loPI    C116225   8.338  11.082   5.650  0.0697 -0.2613  0.2530
 1078loPI    C216226   8.213  10.741   5.483  0.1511 -0.1859  0.0343
 1078loPI    C316227   8.372  11.029   5.255 -0.2184  0.1335  0.1682
 1078loPI   PO416228   8.191  11.077   5.842 -0.1192 -0.2241 -0.2866
 1078loPI   GL116229   8.213  11.120   6.319 -0.1514 -0.2225 -0.2587
 1078loPI   GL216230   8.264  10.792   6.315  0.1726 -0.4662 -0.3025
 1078loPI   C1A16231   8.179  11.065   6.860 -0.0279 -0.1412 -0.1024
 1078loPI   C2A16232   8.184  11.058   7.312 -0.0842  0.1037  0.0018
 1078loPI   C3A16233   8.250  11.016   7.695 -0.3424 -0.1090 -0.0980
 1078loPI   C4A16234   8.210  10.924   8.056 -0.0369  0.3295 -0.0458
 1078loPI   C5A16235   8.010  10.764   8.398 -0.1701  0.2869  0.2210
 1078loPI   C6A16236   7.868  10.539   8.746 -0.5415 -0.0142 -0.0945
 1078loPI   C1B16237   8.156  10.638   6.660  0.0950 -0.0226 -0.0736
 1078loPI   C2B16238   8.300  10.543   7.046  0.1743 -0.3673  0.2494
 1078loPI   C3B16239   8.269  10.592   7.524  0.2623 -0.0788  0.2243
 1078loPI   C4B16240   8.233  10.394   7.971 -0.3012 -0.2264 -0.2961
 1079loPI    C116241   2.631   3.416   6.122 -0.3252  0.0752  0.0834
 1079loPI    C216242   2.537   3.167   5.824  0.0041 -0.0992  0.1206
 1079loPI    C316243   2.497   3.562   5.774 -0.1104 -0.1358 -0.0912
 1079loPI   PO416244   2.858   3.290   6.197 -0.0550 -0.1811  0.0219
 1079loPI   GL116245   2.835   3.165   6.611  0.2234  0.2060  0.1667
 1079loPI   GL216246   2.856   3.516   6.677  0.0480  0.0925  0.0518
 1079loPI   C1A16247   2.683   3.115   6.944  0.3413  0.0101  0.0242
 1079loPI   C2A16248   2.834   3.000   7.244  0.0864  0.0865  0.1289
 1079loPI   C3A16249   2.819   3.041   7.611 -0.0114 -0.0347 -0.0739
 1079loPI   C4A16250   2.783   2.949   7.903 -0.2730  0.0523 -0.0560
 1079loPI   C5A16251   2.640   3.069   8.309 -0.2076  0.0696  0.1968
 1079loPI   C6A16252   2.551   3.222   8.698 -0.0711 -0.3103  0.1766
 1079loPI   C1B16253   2.885   3.527   7.134  0.2889  0.3979  0.0192
 1079loPI   C2B16254   2.892   3.548   7.590 -0.1898 -0.1204  0.0089
 1079loPI   C3B16255   2.849   3.458   8.017 -0.3183 -0.1663 -0.0681
 1079loPI   C4B16256   3.084   3.297   8.501  0.0661  0.0469  0.2025
 1080loPI    C116257   3.434  13.960   6.003  0.1618  0.0160  0.0990
 1080loPI    C216258   3.442  14.231   5.709 -0.0194 -0.0671  0.0157
 1080loPI    C316259   3.740  13.967   5.746  0.1815  0.1707  0.1255
 1080loPI   PO416260   3.356  14.031   6.157  0.1720 -0.0914 -0.1121
 1080loPI   GL116261   3.129  13.887   6.607 -0.1544 -0.1703  0.0882
 1080loPI   GL216262   3.337  13.637   6.456 -0.0221  0.0188  0.0740
 1080loPI   C1A16263   3.191  13.872   7.094  0.0277 -0.1634 -0.1079
 1080loPI   C2A16264   3.254  13.965   7.366 -0.1724 -0.4680 -0.3168
 1080loPI   C3A16265   3.220  13.868   7.745 -0.1566 -0.2787 -0.1799
 1080loPI   C4A16266   3.201  13.757   8.251 -0.1103 -0.0068  0.1150
 1080loPI   C5A16267   3.425  13.937   8.542 -0.1251 -0.0004  0.1518
 1080loPI   C6A16268   3.399  14.092   8.974 -0.0401 -0.0306  0.0988
 1080loPI   C1B16269   3.580  13.761   6.780 -0.0458  0.3540  0.1274
 1080loPI   C2B16270   3.620  13.615   7.116 -0.1486 -0.0816 -0.2186
 1080loPI   C3B16271   3.668  13.536   7.543 -0.2173 -0.0819  0.1705
 1080loPI   C4B16272   3.623  13.412   7.929 -0.0472 -0.1866 -0.0805
 1081loPI    C116273   4.102   8.973   5.633 -0.2002  0.0556  0.0368
 1081loPI    C216274   3.873   9.138   5.350 -0.0993  0.0641 -0.0402
 1081loPI    C316275   4.195   8.923   5.247 -0.1280 -0.0299  0.0647
 1081loPI   PO416276   4.010   9.128   5.807 -0.0703 -0.0156 -0.0217
 1081loPI   GL116277   3.845   9.092   6.180  0.1780  0.0460 -0.3515
 1081loPI   GL216278   3.994   9.283   6.411  0.0274  0.1922 -0.1950
 1081loPI   C1A16279   3.526   9.039   6.523  0.1328  0.2204  0.1413
 1081loPI   C2A16280   3.390   9.174   6.952 -0.1715  0.2264 -0.0213
 1081loPI   C3A16281   3.308   9.124   7.355 -0.0935  0.4868 -0.1941
 1081loPI   C4A16282   3.231   9.176   7.760 -0.2034 -0.2302 -0.1882
 1081loPI   C5A16283   3.305   9.079   8.158  0.2855 -0.3510 -0.1125
 1081loPI   C6A16284   3.318   8.847   8.445 -0.3138 -0.0487  0.0558
 1081loPI   C1B16285   3.913   9.292   6.847 -0.1816 -0.0475 -0.2656
 1081loPI   C2B16286   3.806   9.204   7.264  0.0054 -0.0080  0.0117
 1081loPI   C3B16287   3.738   9.315   7.678  0.1923  0.1547 -0.0355
 1081loPI   C4B16288   3.796   9.309   8.071  0.1979 -0.0172 -0.2884
 1082loPI    C116289  16.676  11.670   5.774 -0.0336 -0.0313  0.3260
 1082loPI    C216290  16.639  11.934   5.475  0.1138 -0.0571  0.2844
 1082loPI    C316291  16.319  11.733   5.605  0.0311  0.0254  0.2092
 1082loPI   PO416292  16.846  11.838   5.976  0.0960  0.2641 -0.0135
 1082loPI   GL116293  17.011  11.856   6.410 -0.2362 -0.1477  0.1910
 1082loPI   GL216294  16.787  12.156   6.377  0.0633  0.2180  0.1356
 1082loPI   C1A16295  17.089  11.627   6.860  0.4417 -0.0113  0.0845
 1082loPI   C2A16296  17.174  11.520   7.282  0.0753 -0.2270 -0.0276
 1082loPI   C3A16297  17.115  11.746   7.559 -0.0473 -0.0852 -0.0621
 1082loPI   C4A16298  17.123  11.928   7.981 -0.0299 -0.0248 -0.5690
 1082loPI   C5A16299  17.160  12.147   8.273  0.1368  0.0779  0.0371
 1082loPI   C6A16300  17.239  12.361   8.661  0.2181  0.3388  0.1951
 1082loPI   C1B16301  16.585  11.785   6.627 -0.0586 -0.3013 -0.2682
 1082loPI   C2B16302  16.638  11.629   7.122 -0.0469  0.2442 -0.1959
 1082loPI   C3B16303  16.668  11.498   7.557 -0.3794 -0.0251  0.1851
 1082loPI   C4B16304  16.796  11.479   7.931 -0.1993 -0.2378  0.2711
 1083loPI    C116305   5.859  15.129   5.539  0.1590 -0.1678  0.0631
 1083loPI    C216306   6.147  15.388   5.440 -0.0462  0.1017  0.1604
 1083loPI    C316307   5.838  15.328   5.193  0.1547 -0.2873 -0.0061
 1083loPI   PO416308   5.865  15.100   5.840  0.3024 -0.2741 -0.1074
 1083loPI   GL116309   5.858  15.147   6.291 -0.1102 -0.1503 -0.0551
 1083loPI   GL216310   5.654  15.285   6.305 -0.1800 -0.1927 -0.1408
 1083loPI   C1A16311   6.108  15.101   6.719  0.1819 -0.0838 -0.0470
 1083loPI   C2A16312   6.137  15.104   7.043 -0.0838  0.4332 -0.1397
 1083loPI   C3A16313   6.114  15.163   7.438 -0.0112  0.1148  0.0224
 1083loPI   C4A16314   6.074  15.102   7.795  0.2186  0.3656  0.0521
 1083loPI   C5A16315   6.000  14.988   8.268  0.0021  0.3837  0.2632
 1083loPI   C6A16316   5.648  14.684   8.511  0.2942  0.3770  0.0925
 1083loPI   C1B16317   5.764  15.487   6.659  0.0419 -0.0047  0.2603
 1083loPI   C2B16318   5.806  15.464   7.123  0.0197 -0.0732 -0.0021
 1083loPI   C3B16319   5.734  15.488   7.547 -0.0367  0.0897 -0.0485
 1083loPI   C4B16320   5.662  15.360   8.010  0.0951 -0.0470  0.1269
 1084loPI    C116321   5.163   5.919   5.754 -0.0369  0.2076  0.0186
 1084loPI    C216322   5.436   6.182   5.625 -0.2113  0.3460 -0.0723
 1084loPI    C316323   5.474   5.794   5.536  0.0113  0.3487  0.0056
 1084loPI   PO416324   5.142   5.954   6.010  0.2538  0.1058 -0.0513
 1084loPI   GL116325   5.274   5.965   6.402 -0.0859 -0.0642  0.1967
 1084loPI   GL216326   4.903   6.140   6.461  0.3737 -0.1195 -0.0601
 1084loPI   C1A16327   5.221   5.853   6.824  0.1126 -0.0250 -0.0391
 1084loPI   C2A16328   5.088   5.904   7.232 -0.1721 -0.1226  0.0589
 1084loPI   C3A16329   4.977   5.888   7.686 -0.0053 -0.0723  0.1174
 1084loPI   C4A16330   5.051   5.983   8.108 -0.1357 -0.0947 -0.1350
 1084loPI   C5A16331   5.029   6.094   8.504 -0.1307 -0.0808  0.1220
 1084loPI   C6A16332   5.309   6.137   8.744 -0.0285 -0.1933  0.0157
 1084loPI   C1B16333   4.811   6.179   6.913  0.0626  0.1536 -0.2694
 1084loPI   C2B16334   4.695   6.244   7.367 -0.0654  0.0590  0.1798
 1084loPI   C3B16335   4.631   6.220   7.774  0.2586  0.0739 -0.0346
 1084loPI   C4B16336   4.720   6.357   8.182  0.3222 -0.2065 -0.4423
 1085loPI    C116337   9.564   5.145   5.700 -0.1477  0.1181  0.0718
 1085loPI    C216338   9.802   5.178   6.019 -0.0057  0.0974 -0.0308
 1085loPI    C316339   9.949   5.038   5.674 -0.1989 -0.0408 -0.0588
 1085loPI   PO416340   9.454   5.443   5.745  0.2614 -0.0585  0.1843
 1085loPI   GL116341   9.399   5.402   6.230  0.0723 -0.1358  0.1771
 1085loPI   GL216342   9.683   5.653   6.333  0.2937 -0.1523 -0.0672
 1085loPI   C1A16343   9.268   5.410   6.542 -0.1602 -0.1164 -0.0357
 1085loPI   C2A16344   9.227   5.525   7.058 -0.1911  0.1305  0.0034
 1085loPI   C3A16345   9.252   5.594   7.556  0.0505  0.1226 -0.2070
 1085loPI   C4A16346   9.272   5.564   8.044 -0.1201  0.0046  0.4351
 1085loPI   C5A16347   9.095   5.447   8.409 -0.0003 -0.2310 -0.0691
 1085loPI   C6A16348   9.013   5.399   8.843 -0.1396 -0.0334 -0.1012
 1085loPI   C1B16349   9.716   5.624   6.804  0.0122  0.2679 -0.1869
 1085loPI   C2B16350   9.621   5.762   7.259 -0.1556  0.0879  0.0050
 1085loPI   C3B16351   9.722   5.773   7.672 -0.1732 -0.0781 -0.0482
 1085loPI   C4B16352   9.800   5.698   8.146  0.0164  0.0201 -0.2331
 1086loPI    C116353   6.903   7.882   5.593 -0.1254  0.0690 -0.2470
 1086loPI    C216354   7.145   7.729   5.314 -0.0527 -0.0804 -0.1033
 1086loPI    C316355   7.236   8.077   5.489  0.1920 -0.2557  0.1270
 1086loPI   PO416356   6.873   7.683   5.765  0.0349 -0.0874 -0.0011
 1086loPI   GL116357   6.777   7.676   6.147 -0.0767  0.1172 -0.3371
 1086loPI   GL216358   6.535   7.873   6.231 -0.0828 -0.1377  0.0177
 1086loPI   C1A16359   6.728   7.603   6.580  0.1180  0.0217 -0.0336
 1086loPI   C2A16360   6.750   7.543   7.021 -0.0358  0.1159 -0.3441
 1086loPI   C3A16361   6.795   7.465   7.443  0.2219 -0.0833  0.0900
 1086loPI   C4A16362   6.659   7.523   7.887 -0.0576  0.1092  0.0599
 1086loPI   C5A16363   6.569   7.541   8.347  0.1307  0.1573  0.0346
 1086loPI   C6A16364   6.262   7.752   8.596 -0.1886 -0.0208 -0.1672
 1086loPI   C1B16365   6.403   7.998   6.652  0.1155  0.2211  0.2500
 1086loPI   C2B16366   6.385   7.915   7.058 -0.0670  0.1565  0.0844
 1086loPI   C3B16367   6.314   7.843   7.523  0.0819 -0.0729 -0.1702
 1086loPI   C4B16368   6.304   7.819   7.952  0.1071  0.1117  0.1105
 1087loPI    C116369  15.212   0.996   5.962 -0.0211 -0.2604  0.2003
 1087loPI    C216370  15.426   0.924   5.631  0.0670 -0.2641  0.2578
 1087loPI    C316371  15.098   0.708   5.708 -0.0293 -0.1746  0.1058
 1087loPI   PO416372  15.110   1.246   6.080 -0.0729  0.1028  0.1664
 1087loPI   GL116373  15.017   1.505   6.417 -0.0356 -0.1806  0.1015
 1087loPI   GL216374  14.772   1.251   6.473  0.1413  0.2002 -0.2272
 1087loPI   C1A16375  15.040   1.333   6.860 -0.0271 -0.0741  0.0354
 1087loPI   C2A16376  14.988   1.308   7.242 -0.2521  0.2324  0.0549
 1087loPI   C3A16377  15.000   1.244   7.713 -0.0147  0.2865  0.0032
 1087loPI   C4A16378  15.203   1.254   8.091  0.0608 -0.1966  0.0738
 1087loPI   C5A16379  15.287   1.246   8.466  0.2241  0.0239  0.1709
 1087loPI   C6A16380  15.664   1.122   8.471  0.3127 -0.0723  0.3929
 1087loPI   C1B16381  14.629   1.549   6.788 -0.0204  0.2313  0.2500
 1087loPI   C2B16382  14.571   1.711   7.097 -0.1384  0.1517 -0.2162
 1087loPI   C3B16383  14.687   1.694   7.420 -0.0724 -0.2015  0.2860
 1087loPI   C4B16384  14.704   1.785   7.799  0.1186  0.2330 -0.0301
 1088loPI    C116385   7.130   2.342   5.590 -0.0793  0.1013 -0.1718
 1088loPI    C216386   7.224   2.610   5.309  0.1810 -0.0014 -0.1852
 1088loPI    C316387   6.990   2.298   5.218  0.0552  0.1034 -0.2232
 1088loPI   PO416388   7.116   2.441   5.821  0.0044 -0.1303  0.0082
 1088loPI   GL116389   7.355   2.446   6.144  0.2719  0.2685  0.1755
 1088loPI   GL216390   7.319   2.275   6.427 -0.0352  0.2970 -0.1015
 1088loPI   C1A16391   7.343   2.786   6.548  0.0617  0.0335  0.2386
 1088loPI   C2A16392   7.396   3.035   6.904  0.0304 -0.1768  0.2318
 1088loPI   C3A16393   7.400   2.995   7.363 -0.1120 -0.2933  0.1548
 1088loPI   C4A16394   7.402   2.975   7.862  0.0814 -0.2350  0.1859
 1088loPI   C5A16395   7.420   2.915   8.195  0.1358  0.1792  0.0411
 1088loPI   C6A16396   7.162   2.914   8.623 -0.1343  0.2426 -0.1063
 1088loPI   C1B16397   7.393   2.460   6.871  0.0787  0.3298  0.2407
 1088loPI   C2B16398   7.304   2.472   7.404  0.1289 -0.1765 -0.1989
 1088loPI   C3B16399   7.261   2.472   7.877 -0.1774 -0.2015  0.2687
 1088loPI   C4B16400   7.199   2.451   8.313  0.0327  0.0832  0.0338
 1089loPI    C116401   4.290  15.648   5.988  0.3016 -0.1883  0.0130
 1089loPI    C216402   4.133  15.427   5.694 -0.1335 -0.1760  0.2289
 1089loPI    C316403   4.310  15.776   5.609  0.0810 -0.3495 -0.0548
 1089loPI   PO416404   4.463  15.453   6.157  0.0960  0.2998  0.2789
 1089loPI   GL116405   4.654  15.503   6.457 -0.1926 -0.0980 -0.2023
 1089loPI   GL216406   4.411  15.351   6.633 -0.2507  0.0268 -0.5137
 1089loPI   C1A16407   4.780  15.556   6.975  0.3067  0.1090  0.1302
 1089loPI   C2A16408   4.745  15.547   7.361 -0.0849 -0.1702  0.0654
 1089loPI   C3A16409   4.319  15.429   7.676  0.1530  0.1936  0.2774
 1089loPI   C4A16410   4.219  15.277   7.979 -0.0022 -0.4759  0.0678
 1089loPI   C5A16411   4.488  15.283   8.254 -0.0746  0.0429  0.0301
 1089loPI   C6A16412   4.875  15.306   8.351  0.0170  0.2105  0.1359
 1089loPI   C1B16413   4.182  15.361   6.967 -0.0565 -0.0602 -0.0048
 1089loPI   C2B16414   3.862  15.294   7.326 -0.0866  0.1418 -0.0360
 1089loPI   C3B16415   3.863  15.111   7.731 -0.2523 -0.1456  0.1306
 1089loPI   C4B16416   3.757  15.142   8.132 -0.1462  0.4165 -0.0064
 1090loPI    C116417  11.810   8.988   5.714  0.1931  0.0408 -0.0640
 1090loPI    C216418  11.648   9.185   5.406 -0.1995 -0.0328  0.0901
 1090loPI    C316419  11.562   8.799   5.464  0.1742 -0.1219  0.0763
 1090loPI   PO416420  11.730   9.035   5.966  0.1483  0.0728  0.0784
 1090loPI   GL116421  11.455   9.176   6.247 -0.4244 -0.2843  0.1156
 1090loPI   GL216422  11.216   9.405   6.415 -0.2002 -0.1786 -0.0012
 1090loPI   C1A16423  11.690   9.087   6.616 -0.1468  0.1556 -0.1899
 1090loPI   C2A16424  11.666   8.992   7.054  0.0711 -0.0418  0.3852
 1090loPI   C3A16425  11.685   8.956   7.505 -0.2142 -0.2955 -0.1571
 1090loPI   C4A16426  11.620   8.904   7.952 -0.0786 -0.0760 -0.0835
 1090loPI   C5A16427  11.703   8.718   8.369  0.1453  0.1488  0.0365
 1090loPI   C6A16428  11.555   8.819   8.900  0.1069 -0.0536 -0.0922
 1090loPI   C1B16429  11.313   9.294   6.868  0.0122  0.2736  0.1899
 1090loPI   C2B16430  11.321   9.298   7.310  0.2017 -0.0039  0.1234
 1090loPI   C3B16431  11.251   9.347   7.748  0.0783  0.1806 -0.0538
 1090loPI   C4B16432  11.152   9.238   8.162  0.1186 -0.2337 -0.0379
 1091loPI    C116433   8.198  15.960   6.050  0.0866 -0.0208  0.1573
 1091loPI    C216434   8.234  15.613   6.244  0.0461 -0.0085  0.1870
 1091loPI    C316435   8.202  15.617   5.846  0.1985 -0.0298  0.1739
 1091loPI   PO416436   8.024  16.034   6.185  0.1341 -0.1547  0.1462
 1091loPI   GL116437   7.831  16.204   6.509  0.0240 -0.1511 -0.2023
 1091loPI   GL216438   8.053  15.949   6.650 -0.0834 -0.2271 -0.3382
 1091loPI   C1A16439   7.640  16.292   6.933  0.2980 -0.3186  0.2618
 1091loPI   C2A16440   7.623  16.187   7.361 -0.0027 -0.0499 -0.0597
 1091loPI   C3A16441   7.538  16.332   7.846  0.0888 -0.3199  0.0112
 1091loPI   C4A16442   7.519  16.380   8.257 -0.2821  0.3741  0.0610
 1091loPI   C5A16443   7.593  16.302   8.657  0.0576  0.2410  0.0535
 1091loPI   C6A16444   8.030  16.260   8.911  0.0525  0.0194 -0.1907
 1091loPI   C1B16445   8.005  15.925   7.143 -0.1888 -0.1794 -0.1307
 1091loPI   C2B16446   8.045  15.811   7.575  0.4037 -0.1234 -0.2173
 1091loPI   C3B16447   7.891  15.905   7.958  0.0844 -0.3125  0.0374
 1091loPI   C4B16448   7.921  16.004   8.362  0.0608  0.0969 -0.2695
 1092loPI    C116449   6.399   1.753   5.622  0.2220  0.0869  0.0295
 1092loPI    C216450   6.124   1.874   5.358 -0.0213 -0.1758  0.1558
 1092loPI    C316451   6.411   1.619   5.245  0.1792  0.1036  0.0221
 1092loPI   PO416452   6.295   1.770   5.859 -0.1941  0.0846  0.1877
 1092loPI   GL116453   6.078   1.730   6.291 -0.0573 -0.1056  0.2637
 1092loPI   GL216454   6.381   1.521   6.271  0.1614 -0.1031  0.3992
 1092loPI   C1A16455   5.832   1.746   6.628 -0.2882  0.0162  0.2047
 1092loPI   C2A16456   5.942   1.889   7.019  0.2283 -0.3456 -0.0799
 1092loPI   C3A16457   5.848   1.873   7.450  0.2036 -0.1922 -0.2233
 1092loPI   C4A16458   5.798   1.881   7.867  0.0667 -0.1412  0.2640
 1092loPI   C5A16459   5.990   1.968   8.277 -0.0582  0.0444  0.1465
 1092loPI   C6A16460   6.203   2.165   8.515 -0.1947 -0.0324 -0.2806
 1092loPI   C1B16461   6.297   1.495   6.664 -0.0130 -0.0399 -0.0218
 1092loPI   C2B16462   6.293   1.596   7.185  0.1238  0.4542 -0.0152
 1092loPI   C3B16463   6.187   1.498   7.676 -0.1829 -0.2264 -0.2117
 1092loPI   C4B16464   6.025   1.524   8.123  0.1802  0.1377 -0.1886
 1093loPI    C116465   2.938   5.289   5.856 -0.0674 -0.1039  0.0748
 1093loPI    C216466   2.633   5.357   5.605  0.3475  0.0944 -0.3913
 1093loPI    C316467   2.768   4.984   5.660 -0.2362 -0.0546  0.1426
 1093loPI   PO416468   2.835   5.392   6.098  0.0749 -0.0045 -0.2541
 1093loPI   GL116469   2.935   5.483   6.504  0.1814 -0.2226 -0.2323
 1093loPI   GL216470   3.218   5.230   6.557  0.1581 -0.1449 -0.2180
 1093loPI   C1A16471   2.784   5.531   6.826  0.2758 -0.3598  0.2843
 1093loPI   C2A16472   2.660   5.486   7.227 -0.1160  0.4822 -0.0624
 1093loPI   C3A16473   2.652   5.475   7.623  0.1312 -0.0221 -0.2824
 1093loPI   C4A16474   2.761   5.549   7.991  0.0211  0.1567  0.1149
 1093loPI   C5A16475   2.625   5.427   8.427  0.1975  0.2090  0.0155
 1093loPI   C6A16476   2.352   5.331   8.758  0.0847 -0.1803  0.0779
 1093loPI   C1B16477   3.119   5.164   6.971 -0.0612 -0.1123  0.0408
 1093loPI   C2B16478   3.069   5.129   7.365 -0.1220  0.0797 -0.2199
 1093loPI   C3B16479   3.068   5.230   7.809 -0.0822 -0.1796 -0.0821
 1093loPI   C4B16480   3.029   5.142   8.268  0.0581  0.3231 -0.0446
 1094loPI    C116481  12.511   7.216   6.064 -0.0919  0.1282  0.1439
 1094loPI    C216482  12.507   7.421   5.720 -0.0285 -0.0442  0.0389
 1094loPI    C316483  12.737   7.096   5.756  0.0292  0.0203  0.2735
 1094loPI   PO416484  12.594   7.340   6.240 -0.0798 -0.0818 -0.0361
 1094loPI   GL116485  12.301   7.623   6.466 -0.2911 -0.0149 -0.1322
 1094loPI   GL216486  12.197   7.247   6.486  0.1391 -0.3507 -0.0083
 1094loPI   C1A16487  12.324   7.856   6.910  0.0886  0.1624 -0.1611
 1094loPI   C2A16488  12.309   7.847   7.304 -0.0751  0.4212  0.1759
 1094loPI   C3A16489  12.315   7.692   7.796  0.1358 -0.1269  0.4389
 1094loPI   C4A16490  12.185   7.664   8.230 -0.1737 -0.1893  0.0834
 1094loPI   C5A16491  12.178   7.439   8.548  0.0817 -0.0580  0.0156
 1094loPI   C6A16492  12.096   7.033   8.854 -0.3067  0.2428  0.1291
 1094loPI   C1B16493  12.241   7.381   6.947 -0.2644  0.1432  0.3813
 1094loPI   C2B16494  12.296   7.325   7.471  0.0119 -0.3207 -0.0625
 1094loPI   C3B16495  12.238   7.138   7.818 -0.2814 -0.3324  0.1958
 1094loPI   C4B16496  12.100   7.030   8.234 -0.0322 -0.3194 -0.0092
 1095loPI    C116497   5.972  14.313   5.783  0.0191  0.0073  0.0602
 1095loPI    C216498   5.955  14.238   5.390  0.1314  0.0215  0.0522
 1095loPI    C316499   5.880  14.607   5.527 -0.1333 -0.0354  0.0654
 1095loPI   PO416500   5.902  14.090   5.931 -0.3457 -0.0322  0.1185
 1095loPI   GL116501   5.936  13.978   6.244  0.0647 -0.0006 -0.0846
 1095loPI   GL216502   6.222  13.810   6.422 -0.1893  0.0355 -0.1860
 1095loPI   C1A16503   5.928  14.119   6.633 -0.2409 -0.3503 -0.0034
 1095loPI   C2A16504   6.003  14.022   7.107  0.0144  0.2263  0.1461
 1095loPI   C3A16505   5.942  14.017   7.599 -0.0024  0.1896 -0.0094
 1095loPI   C4A16506   5.993  13.999   7.989 -0.0365  0.1423  0.3766
 1095loPI   C5A16507   5.889  13.971   8.447 -0.0116 -0.1528  0.2171
 1095loPI   C6A16508   6.291  13.893   8.744  0.1463  0.0571  0.0475
 1095loPI   C1B16509   6.358  13.867   6.731  0.0150  0.0397  0.0108
 1095loPI   C2B16510   6.399  13.777   7.258 -0.1112 -0.5388  0.1280
 1095loPI   C3B16511   6.363  13.704   7.719  0.3295  0.0995 -0.2099
 1095loPI   C4B16512   6.361  13.675   8.210 -0.1876  0.2154  0.1539
 1096loPI    C116513   7.111   3.387   5.766 -0.0760 -0.0442  0.1005
 1096loPI    C216514   6.955   3.691   5.557  0.0461  0.2179  0.3821
 1096loPI    C316515   7.114   3.377   5.366 -0.4584  0.1299  0.0886
 1096loPI   PO416516   7.213   3.435   5.967  0.1365 -0.0142  0.3175
 1096loPI   GL116517   6.991   3.404   6.373  0.2316  0.1234  0.1175
 1096loPI   GL216518   7.311   3.291   6.455  0.1375 -0.1522  0.0421
 1096loPI   C1A16519   6.994   3.372   6.789  0.1301 -0.2662 -0.1000
 1096loPI   C2A16520   6.910   3.337   7.173 -0.2651 -0.0171 -0.0564
 1096loPI   C3A16521   7.001   3.288   7.725  0.1199 -0.1388  0.2328
 1096loPI   C4A16522   7.039   3.250   8.141 -0.0897 -0.0344  0.0074
 1096loPI   C5A16523   6.814   2.921   8.285  0.1544  0.1861 -0.4122
 1096loPI   C6A16524   6.581   2.839   8.674 -0.1475 -0.1626 -0.2444
 1096loPI   C1B16525   7.489   3.540   6.830  0.1997 -0.2874 -0.0314
 1096loPI   C2B16526   7.491   3.526   7.274 -0.0853 -0.1018 -0.0243
 1096loPI   C3B16527   7.501   3.490   7.697  0.1176 -0.1081 -0.0080
 1096loPI   C4B16528   7.530   3.455   8.146 -0.0985 -0.0512  0.1442
 1097loPI    C116529  16.916  11.284   5.555  0.0609  0.0145 -0.1832
 1097loPI    C216530  17.190  11.015   5.443 -0.0301 -0.1620  0.0097
 1097loPI    C316531  16.826  11.011   5.277 -0.0491 -0.1930  0.0522
 1097loPI   PO416532  16.932  11.244   5.802 -0.0341 -0.0186  0.0446
 1097loPI   GL116533  17.107  11.429   6.194  0.0462  0.1210 -0.0605
 1097loPI   GL216534  16.770  11.415   6.288 -0.4720 -0.0163 -0.0580
 1097loPI   C1A16535  17.267  11.292   6.576  0.0323 -0.0968 -0.0638
 1097loPI   C2A16536  17.358  11.179   6.972 -0.1949 -0.0428  0.3647
 1097loPI   C3A16537  17.528  11.190   7.444 -0.0464  0.1840 -0.0229
 1097loPI   C4A16538  17.338  11.266   7.880  0.1615  0.0447  0.1758
 1097loPI   C5A16539  17.571  11.197   8.256 -0.0835 -0.2112 -0.1658
 1097loPI   C6A16540  17.760  11.163   8.594  0.0613  0.4354 -0.0000
 1097loPI   C1B16541  16.796  11.258   6.722 -0.2287  0.0265 -0.2775
 1097loPI   C2B16542  16.855  11.165   7.189 -0.0777 -0.0653  0.0870
 1097loPI   C3B16543  17.021  11.060   7.593 -0.0724  0.0222  0.0645
 1097loPI   C4B16544  16.991  10.934   8.064  0.3533 -0.0286 -0.4412
 1098loPI    C116545  13.750   0.528   5.982 -0.0167 -0.0604 -0.0337
 1098loPI    C216546  13.702   0.188   5.777  0.0511  0.0245 -0.1926
 1098loPI    C316547  13.837   0.516   5.592 -0.0334  0.1442 -0.0450
 1098loPI   PO416548  13.672   0.447   6.283  0.1184  0.1298  0.0105
 1098loPI   GL116549  13.509   0.523   6.627  0.0606 -0.2248  0.0283
 1098loPI   GL216550  13.206   0.656   6.625 -0.3484  0.1602 -0.0208
 1098loPI   C1A16551  13.585   0.724   7.014 -0.1235  0.0611 -0.1261
 1098loPI   C2A16552  13.581   0.757   7.533  0.0773 -0.4138  0.1133
 1098loPI   C3A16553  13.509   0.913   7.983 -0.1060 -0.0613  0.3716
 1098loPI   C4A16554  13.584   1.031   8.313  0.0041 -0.2666 -0.0662
 1098loPI   C5A16555  13.791   1.358   8.493 -0.0369  0.0584  0.1514
 1098loPI   C6A16556  13.696   1.708   8.758  0.1231 -0.0614 -0.0766
 1098loPI   C1B16557  13.096   0.565   7.107  0.1651 -0.1666  0.0031
 1098loPI   C2B16558  13.047   0.612   7.550 -0.0425  0.2890 -0.1220
 1098loPI   C3B16559  12.985   0.678   8.032 -0.2229  0.2734  0.0277
 1098loPI   C4B16560  12.870   0.396   8.451  0.0041 -0.1358 -0.0271
 1099loPI    C116561   2.474  11.559   5.391 -0.1669 -0.0784 -0.1607
 1099loPI    C216562   2.820  11.729   5.281 -0.0800 -0.0822  0.0998
 1099loPI    C316563   2.637  11.469   5.037  0.1922 -0.2161  0.0346
 1099loPI   PO416564   2.525  11.732   5.692 -0.2014 -0.2457 -0.1598
 1099loPI   GL116565   2.585  11.589   6.145  0.0907 -0.0955 -0.4129
 1099loPI   GL216566   2.321  11.623   6.328 -0.0837 -0.2987 -0.0228
 1099loPI   C1A16567   2.782  11.766   6.575  0.0898  0.0258 -0.1358
 1099loPI   C2A16568   2.786  11.856   6.999  0.2532 -0.2385  0.0599
 1099loPI   C3A16569   2.793  11.949   7.421  0.0337 -0.0250 -0.1677
 1099loPI   C4A16570   2.944  11.791   7.886  0.1034  0.2365 -0.1120
 1099loPI   C5A16571   2.984  11.507   8.228  0.2920 -0.1020  0.0281
 1099loPI   C6A16572   2.692  11.111   8.166 -0.0677 -0.4860  0.3088
 1099loPI   C1B16573   2.314  11.702   6.797 -0.0574  0.0733  0.0879
 1099loPI   C2B16574   2.362  11.669   7.201 -0.0773  0.0979 -0.1571
 1099loPI   C3B16575   2.363  11.761   7.621 -0.1741  0.2235  0.1106
 1099loPI   C4B16576   2.512  11.632   8.053 -0.0224 -0.2267  0.2970
 1100loPI    C116577   5.430   6.804   6.084  0.0653 -0.0703  0.0690
 1100loPI    C216578   5.309   6.624   5.749 -0.1334  0.2682 -0.0465
 1100loPI    C316579   5.352   6.412   6.086  0.0183 -0.0649 -0.2696
 1100loPI   PO416580   5.290   7.035   6.075  0.0060  0.1544 -0.3809
 1100loPI   GL116581   5.008   7.157   6.351  0.1075  0.0717  0.1514
 1100loPI   GL216582   4.844   7.300   6.418  0.1036  0.2787 -0.1736
 1100loPI   C1A16583   4.951   7.189   6.857 -0.2771 -0.2118  0.0913
 1100loPI   C2A16584   4.884   7.260   7.273 -0.2695 -0.2707  0.1753
 1100loPI   C3A16585   4.747   7.252   7.606 -0.1852  0.0389  0.0269
 1100loPI   C4A16586   4.691   7.359   8.003  0.0505 -0.3806 -0.3570
 1100loPI   C5A16587   5.046   7.448   8.375 -0.2786  0.1012  0.0385
 1100loPI   C6A16588   5.144   7.285   8.868 -0.1983 -0.0315  0.0774
 1100loPI   C1B16589   4.621   7.500   6.675  0.0802  0.0553 -0.2062
 1100loPI   C2B16590   4.503   7.552   6.995 -0.5214 -0.1005  0.2403
 1100loPI   C3B16591   4.468   7.590   7.410 -0.2542 -0.1229  0.1324
 1100loPI   C4B16592   4.299   7.526   7.802 -0.4362  0.0010 -0.0203
 1101loPI    C116593   5.542   7.386   5.820  0.2603 -0.1709  0.2382
 1101loPI    C216594   5.895   7.272   5.670  0.0889 -0.0707 -0.2603
 1101loPI    C316595   5.573   7.041   5.619  0.0028  0.0223 -0.1439
 1101loPI   PO416596   5.606   7.581   5.957 -0.5925 -0.1764  0.0004
 1101loPI   GL116597   5.453   7.818   6.265 -0.2554  0.0351  0.2487
 1101loPI   GL216598   5.425   7.437   6.400  0.0495 -0.1287 -0.1199
 1101loPI   C1A16599   5.475   7.969   6.693  0.2965  0.0321 -0.0656
 1101loPI   C2A16600   5.527   8.130   7.090 -0.3697 -0.1619 -0.4636
 1101loPI   C3A16601   5.470   7.957   7.460 -0.3436 -0.0101  0.2194
 1101loPI   C4A16602   5.342   7.980   7.779 -0.2987  0.4273 -0.2209
 1101loPI   C5A16603   5.367   7.907   8.220  0.1134 -0.1529 -0.6162
 1101loPI   C6A16604   5.690   8.007   8.581 -0.0166  0.0655 -0.1480
 1101loPI   C1B16605   5.471   7.424   6.837 -0.0842  0.2191  0.2813
 1101loPI   C2B16606   5.330   7.435   7.170 -0.0124 -0.3312  0.2005
 1101loPI   C3B16607   5.444   7.452   7.531 -0.0582  0.1107  0.0308
 1101loPI   C4B16608   5.361   7.432   7.912 -0.3160 -0.0035 -0.1940
 1102loPI    C116609   0.146   7.996   5.663 -0.1422  0.0482  0.0483
 1102loPI    C216610   0.375   7.690   5.781 -0.2935 -0.1596 -0.1865
 1102loPI    C316611   0.443   7.866   5.429 -0.0930  0.1997  0.0252
 1102loPI   PO416612   0.168   8.136   5.945 -0.0126 -0.3511  0.2174
 1102loPI   GL116613   0.470   7.931   6.276 -0.0507 -0.2476  0.1776
 1102loPI   GL216614   0.347   7.614   6.343 -0.0588  0.2573  0.0671
 1102loPI   C1A16615   0.454   7.979   6.688 -0.3377 -0.2541  0.0505
 1102loPI   C2A16616   0.352   8.011   7.126 -0.1907  0.3957 -0.1536
 1102loPI   C3A16617   0.336   7.940   7.580 -0.0219 -0.1496 -0.1376
 1102loPI   C4A16618   0.405   7.953   7.991  0.0284 -0.0403  0.2466
 1102loPI   C5A16619   0.192   8.071   8.362  0.0508 -0.4507 -0.3996
 1102loPI   C6A16620   0.094   8.511   8.605  0.1146  0.0269  0.0960
 1102loPI   C1B16621   0.338   7.467   6.789  0.0011 -0.0993 -0.1261
 1102loPI   C2B16622   0.374   7.529   7.223 -0.0648  0.3292  0.2214
 1102loPI   C3B16623   0.359   7.364   7.637 -0.1040 -0.3214  0.2160
 1102loPI   C4B16624   0.380   7.478   7.981 -0.3286  0.2530 -0.3886
 1103loPI    C116625   9.425  13.146   5.897 -0.0629 -0.0706 -0.0322
 1103loPI    C216626   9.643  12.960   5.618  0.1291  0.1271 -0.0164
 1103loPI    C316627   9.488  13.321   5.543 -0.2678 -0.0475 -0.0581
 1103loPI   PO416628   9.391  13.014   6.066  0.0525 -0.0810 -0.1513
 1103loPI   GL116629   9.047  12.684   6.238 -0.2188  0.1656  0.1953
 1103loPI   GL216630   9.279  12.471   6.355 -0.2521  0.0847 -0.3101
 1103loPI   C1A16631   9.153  12.832   6.643  0.1154  0.0904  0.0804
 1103loPI   C2A16632   9.185  12.892   7.024 -0.0646  0.1728  0.0877
 1103loPI   C3A16633   9.082  12.782   7.507  0.2625  0.0248 -0.1314
 1103loPI   C4A16634   8.986  12.765   7.840  0.1443 -0.1008 -0.0796
 1103loPI   C5A16635   8.885  12.929   8.265  0.0277 -0.0746 -0.0774
 1103loPI   C6A16636   8.441  13.027   8.538 -0.3443 -0.1306 -0.0465
 1103loPI   C1B16637   9.429  12.433   6.810 -0.1611  0.0787  0.4731
 1103loPI   C2B16638   9.481  12.458   7.298  0.1055  0.3152 -0.2515
 1103loPI   C3B16639   9.423  12.406   7.743  0.2396 -0.0344 -0.1351
 1103loPI   C4B16640   9.403  12.305   8.048  0.0839  0.1116 -0.0713
 1104loPI    C116641   7.576   2.703   5.748  0.0164 -0.0485  0.0065
 1104loPI    C216642   7.531   3.075   5.887  0.0549 -0.0126 -0.0767
 1104loPI    C316643   7.577   3.012   5.494  0.0975 -0.1011 -0.0579
 1104loPI   PO416644   7.752   2.637   5.870 -0.0684  0.1607 -0.0045
 1104loPI   GL116645   7.791   2.564   6.360 -0.1277 -0.1747  0.1149
 1104loPI   GL216646   7.730   2.970   6.312  0.0137 -0.0156 -0.0944
 1104loPI   C1A16647   7.796   2.741   6.779 -0.1330 -0.0676 -0.3277
 1104loPI   C2A16648   7.766   2.611   7.177  0.1787 -0.2776  0.0200
 1104loPI   C3A16649   7.753   2.688   7.666 -0.0576 -0.1226 -0.2115
 1104loPI   C4A16650   7.786   2.570   8.209  0.1945  0.0202  0.3567
 1104loPI   C5A16651   7.710   2.703   8.554 -0.0770  0.0224 -0.0181
 1104loPI   C6A16652   7.636   2.993   8.782  0.0366 -0.1433 -0.1249
 1104loPI   C1B16653   7.797   3.183   6.676  0.0976  0.0594  0.0883
 1104loPI   C2B16654   7.863   3.143   7.071  0.2572 -0.1202  0.4143
 1104loPI   C3B16655   7.919   3.131   7.464  0.2613 -0.1178 -0.4821
 1104loPI   C4B16656   7.898   3.092   8.023 -0.0927 -0.1729 -0.2346
 1105loPI    C116657   4.381   9.718   5.407 -0.0062  0.0942  0.0782
 1105loPI    C216658   4.592   9.996   5.603  0.2292  0.0777 -0.1455
 1105loPI    C316659   4.559  10.014   5.205 -0.1648  0.0576 -0.1181
 1105loPI   PO416660   4.097   9.591   5.532  0.0036 -0.1302 -0.0534
 1105loPI   GL116661   4.057   9.565   6.036 -0.2977 -0.1185 -0.1647
 1105loPI   GL216662   3.857   9.705   6.145 -0.0919 -0.0295  0.0473
 1105loPI   C1A16663   4.443   9.535   6.423 -0.1314  0.0877 -0.1441
 1105loPI   C2A16664   4.401   9.382   6.836 -0.2733  0.3497  0.2753
 1105loPI   C3A16665   4.259   9.379   7.269  0.1062 -0.1307  0.0105
 1105loPI   C4A16666   4.286   9.441   7.748 -0.2053 -0.2075  0.1166
 1105loPI   C5A16667   4.350   9.489   8.134  0.1081  0.1043 -0.4004
 1105loPI   C6A16668   4.578   9.643   8.500  0.0568 -0.1529  0.0402
 1105loPI   C1B16669   4.026   9.879   6.565  0.0065 -0.0587 -0.5089
 1105loPI   C2B16670   3.946   9.803   7.038  0.0618  0.0515  0.0419
 1105loPI   C3B16671   3.922   9.721   7.453 -0.4103  0.2195  0.3868
 1105loPI   C4B16672   3.897   9.763   7.897 -0.0845 -0.0564 -0.0053
 1106loPI    C116673   8.432   1.011   5.443 -0.2436  0.2373  0.2458
 1106loPI    C216674   8.667   1.321   5.351  0.0562 -0.0133  0.1515
 1106loPI    C316675   8.332   1.256   5.143  0.1741  0.0456 -0.0600
 1106loPI   PO416676   8.511   0.936   5.629  0.1537  0.0831 -0.0400
 1106loPI   GL116677   8.465   1.009   6.017  0.1703 -0.0130  0.2366
 1106loPI   GL216678   8.349   1.365   6.244  0.2130 -0.0959 -0.0367
 1106loPI   C1A16679   8.481   0.917   6.458 -0.2502  0.1547 -0.1604
 1106loPI   C2A16680   8.391   0.990   6.915 -0.1661  0.0778 -0.1306
 1106loPI   C3A16681   8.337   1.014   7.305 -0.2321 -0.2508 -0.0373
 1106loPI   C4A16682   8.320   0.979   7.788 -0.0185 -0.1682  0.1272
 1106loPI   C5A16683   8.257   1.071   8.294 -0.0276  0.1566 -0.0805
 1106loPI   C6A16684   7.867   1.186   8.516 -0.1922 -0.0906  0.2348
 1106loPI   C1B16685   8.513   1.444   6.634  0.2847  0.3043  0.0233
 1106loPI   C2B16686   8.443   1.468   7.119  0.0594 -0.0340 -0.3966
 1106loPI   C3B16687   8.425   1.448   7.571 -0.1851  0.1136  0.0800
 1106loPI   C4B16688   8.436   1.562   8.063 -0.1176  0.3922 -0.0504
 1107loPI    C116689   9.662  10.454   5.889 -0.0637  0.1356 -0.1492
 1107loPI    C216690   9.859  10.468   5.541  0.2956  0.2002  0.0518
 1107loPI    C316691   9.753  10.115   5.697  0.1183  0.1718 -0.1292
 1107loPI   PO416692   9.856  10.610   6.063  0.1542  0.0887  0.2430
 1107loPI   GL116693   9.895  10.689   6.456  0.0776  0.2829 -0.1203
 1107loPI   GL216694  10.116  10.753   6.681 -0.0242  0.3126  0.2178
 1107loPI   C1A16695   9.607  10.637   6.875 -0.2607 -0.0734 -0.0289
 1107loPI   C2A16696   9.597  10.612   7.333 -0.0069 -0.3925  0.0419
 1107loPI   C3A16697   9.643  10.623   7.727  0.0948  0.0862 -0.1582
 1107loPI   C4A16698   9.677  10.517   8.162 -0.3865  0.0690 -0.1279
 1107loPI   C5A16699   9.656  10.457   8.585  0.0114  0.2811  0.0374
 1107loPI   C6A16700   9.425  10.591   8.987 -0.2513  0.1409 -0.1421
 1107loPI   C1B16701  10.033  10.861   7.062 -0.0782  0.0143  0.3460
 1107loPI   C2B16702  10.107  10.817   7.465 -0.1287 -0.0353 -0.1382
 1107loPI   C3B16703  10.160  10.804   7.917 -0.1158  0.2266 -0.2035
 1107loPI   C4B16704   9.969  10.861   8.279 -0.1739  0.1508  0.1100
 1108loPI    C116705   4.877   8.908   5.480 -0.2071  0.0152 -0.1982
 1108loPI    C216706   4.762   8.617   5.231  0.0742 -0.2215 -0.0576
 1108loPI    C316707   5.136   8.756   5.217 -0.0476  0.1123 -0.0987
 1108loPI   PO416708   4.716   8.863   5.752 -0.1157  0.2363 -0.0700
 1108loPI   GL116709   4.696   8.867   6.159  0.0011  0.0029  0.2082
 1108loPI   GL216710   4.395   8.985   6.121  0.3726 -0.3217  0.0471
 1108loPI   C1A16711   4.698   8.660   6.584 -0.1075 -0.0449  0.0447
 1108loPI   C2A16712   4.608   8.623   7.063 -0.3520  0.0786 -0.2308
 1108loPI   C3A16713   4.630   8.773   7.385 -0.1819  0.2513 -0.2061
 1108loPI   C4A16714   4.586   8.635   7.869  0.0034  0.0743 -0.1586
 1108loPI   C5A16715   4.660   8.588   8.334 -0.0262  0.0746  0.0086
 1108loPI   C6A16716   4.862   8.512   8.735  0.0093  0.1856 -0.2959
 1108loPI   C1B16717   4.358   8.960   6.620 -0.0057  0.0395 -0.0970
 1108loPI   C2B16718   4.230   8.933   7.001 -0.0189  0.1183  0.1087
 1108loPI   C3B16719   4.192   8.925   7.483  0.0665  0.0721 -0.0991
 1108loPI   C4B16720   4.186   9.015   7.903  0.4368 -0.1090 -0.3920
 1109loPI    C116721   9.328   1.176   5.823 -0.1984 -0.1072 -0.2821
 1109loPI    C216722   9.715   1.080   5.852 -0.1579  0.1294 -0.0020
 1109loPI    C316723   9.520   1.021   5.508  0.1155 -0.0282 -0.1331
 1109loPI   PO416724   9.354   1.294   6.177 -0.4607  0.3480  0.0132
 1109loPI   GL116725   8.995   1.420   6.432  0.0899 -0.4514  0.0569
 1109loPI   GL216726   9.013   1.621   6.663  0.1982  0.1053  0.0843
 1109loPI   C1A16727   8.951   1.033   6.698  0.0956  0.1741 -0.2290
 1109loPI   C2A16728   8.817   1.179   7.060  0.0187  0.1636  0.1564
 1109loPI   C3A16729   8.848   1.120   7.461  0.1937  0.1741  0.0854
 1109loPI   C4A16730   8.759   1.199   7.849 -0.0375  0.0463 -0.0525
 1109loPI   C5A16731   8.810   1.133   8.305  0.4107  0.3406 -0.1030
 1109loPI   C6A16732   8.960   1.349   8.697  0.2520 -0.0427  0.2532
 1109loPI   C1B16733   8.989   1.658   7.108 -0.0282  0.0659  0.0756
 1109loPI   C2B16734   8.907   1.617   7.458 -0.0234  0.2682  0.1110
 1109loPI   C3B16735   8.917   1.724   7.887  0.2961  0.1507  0.1962
 1109loPI   C4B16736   8.878   1.601   8.225 -0.0123 -0.5505 -0.0741
 1110loPI    C116737   0.436   6.067   5.814  0.2019 -0.1258  0.1586
 1110loPI    C216738   0.421   6.099   5.415 -0.1249  0.1800  0.1899
 1110loPI    C316739   0.744   6.227   5.615  0.1403 -0.1901  0.0102
 1110loPI   PO416740   0.382   5.796   5.902  0.0966 -0.4198  0.0765
 1110loPI   GL116741   0.338   5.762   6.381 -0.0583 -0.1002  0.0241
 1110loPI   GL216742   0.434   5.519   6.577  0.2468 -0.2170  0.1590
 1110loPI   C1A16743  -0.010   5.959   6.722  0.2053 -0.1496 -0.1758
 1110loPI   C2A16744   0.038   5.865   7.171 -0.1963 -0.1804  0.0841
 1110loPI   C3A16745   0.265   5.617   7.352  0.0160  0.1169  0.1616
 1110loPI   C4A16746   0.381   5.540   7.694 -0.0336 -0.4551 -0.5963
 1110loPI   C5A16747   0.427   5.629   8.168 -0.1244  0.0099 -0.0777
 1110loPI   C6A16748   0.338   5.798   8.546 -0.1340  0.0122 -0.2156
 1110loPI   C1B16749   0.509   5.843   6.842 -0.0584 -0.0166 -0.2525
 1110loPI   C2B16750   0.544   6.043   7.257  0.3370 -0.0575 -0.0147
 1110loPI   C3B16751   0.341   6.051   7.641  0.0412 -0.1084 -0.0604
 1110loPI   C4B16752   0.564   6.082   8.093  0.1968 -0.1326  0.1029
 1111loPI    C116753   4.554   5.433   6.189 -0.2396  0.2728 -0.0745
 1111loPI    C216754   4.855   5.667   6.312  0.2538 -0.2985 -0.1492
 1111loPI    C316755   4.810   5.587   5.922 -0.0114 -0.2035 -0.1404
 1111loPI   PO416756   4.328   5.650   6.232 -0.0508  0.1500 -0.0033
 1111loPI   GL116757   4.414   5.912   6.536 -0.1127 -0.0845  0.3719
 1111loPI   GL216758   4.739   5.718   6.779  0.2132  0.0919 -0.2003
 1111loPI   C1A16759   4.350   6.030   7.020  0.0464 -0.0882  0.0704
 1111loPI   C2A16760   4.177   6.078   7.507  0.1064  0.2277 -0.1199
 1111loPI   C3A16761   4.127   6.127   7.907  0.0181  0.3485 -0.1182
 1111loPI   C4A16762   4.250   6.475   8.096  0.0736  0.0489  0.0082
 1111loPI   C5A16763   3.972   6.813   8.282 -0.2315  0.3707 -0.1429
 1111loPI   C6A16764   3.694   6.941   8.570  0.0314  0.0808  0.1314
 1111loPI   C1B16765   4.646   5.740   7.319  0.0986 -0.1904  0.0954
 1111loPI   C2B16766   4.537   5.668   7.733  0.0093 -0.2277 -0.2853
 1111loPI   C3B16767   4.524   5.872   8.101 -0.0299 -0.1057  0.0807
 1111loPI   C4B16768   4.259   6.044   8.395  0.0214  0.1535 -0.1764
 1112loPI    C116769   8.009   4.411   6.206  0.0950  0.1234 -0.0756
 1112loPI    C216770   7.852   4.043   6.195  0.0541  0.1378  0.0102
 1112loPI    C316771   8.106   4.162   5.909  0.0241  0.0625 -0.0480
 1112loPI   PO416772   8.098   4.516   6.420  0.1875  0.0005  0.0024
 1112loPI   GL116773   8.147   4.434   6.800 -0.1871  0.2823 -0.0975
 1112loPI   GL216774   8.166   4.090   6.682 -0.3208 -0.0500  0.0633
 1112loPI   C1A16775   8.224   4.658   7.181  0.4035  0.0604  0.0360
 1112loPI   C2A16776   8.162   4.687   7.621 -0.0861 -0.0830 -0.0692
 1112loPI   C3A16777   8.198   4.727   8.030  0.1743  0.1516 -0.1358
 1112loPI   C4A16778   8.316   4.851   8.474  0.3076  0.1324 -0.0848
 1112loPI   C5A16779   8.534   5.046   8.885 -0.2705  0.2818 -0.2828
 1112loPI   C6A16780   8.493   5.393   9.075 -0.0347  0.0768  0.2984
 1112loPI   C1B16781   8.129   4.086   7.143 -0.2612  0.2199  0.0100
 1112loPI   C2B16782   8.078   4.084   7.612  0.1741 -0.0084 -0.2395
 1112loPI   C3B16783   8.113   4.199   8.088  0.1364  0.0527 -0.0232
 1112loPI   C4B16784   8.123   4.212   8.599  0.0964  0.0626  0.0011
 1113loPI    C116785   6.512  16.927   5.799  0.0817  0.0578 -0.0438
 1113loPI    C216786   6.593  16.881   5.410 -0.3744 -0.1569 -0.1200
 1113loPI    C316787   6.444  16.575   5.621 -0.0530 -0.0678  0.2483
 1113loPI   PO416788   6.701  16.984   5.910 -0.2128 -0.1663  0.0902
 1113loPI   GL116789   6.721  17.128   6.311 -0.0068 -0.0159  0.0595
 1113loPI   GL216790   6.472  17.020   6.460  0.1479 -0.0650 -0.0793
 1113loPI   C1A16791   6.866  17.352   6.563 -0.1632 -0.2160 -0.0958
 1113loPI   C2A16792   6.870  17.428   7.047 -0.0487 -0.0644  0.1898
 1113loPI   C3A16793   6.888  17.452   7.508  0.0676 -0.1318 -0.0564
 1113loPI   C4A16794   6.850  17.436   7.873  0.0438  0.2862  0.2282
 1113loPI   C5A16795   6.753  17.374   8.345 -0.3912 -0.2783  0.1419
 1113loPI   C6A16796   7.044  17.462   8.609  0.1725 -0.2727 -0.1165
 1113loPI   C1B16797   6.390  17.161   6.755  0.1547  0.1703  0.0230
 1113loPI   C2B16798   6.401  17.307   7.178  0.2380 -0.1662  0.0306
 1113loPI   C3B16799   6.429  17.215   7.575  0.0094  0.1710 -0.1498
 1113loPI   C4B16800   6.391  17.223   7.985 -0.2300  0.1147 -0.0947
 1114loPI    C116801  12.196   2.056   5.922 -0.3903 -0.0957  0.2111
 1114loPI    C216802  12.074   2.112   5.546  0.2029 -0.2995 -0.0238
 1114loPI    C316803  12.023   1.756   5.721 -0.1018 -0.1954  0.1069
 1114loPI   PO416804  12.052   2.177   6.216  0.1052 -0.1321  0.2073
 1114loPI   GL116805  11.759   2.284   6.532  0.1418  0.1942 -0.0880
 1114loPI   GL216806  12.035   2.600   6.502  0.1116  0.2095  0.0369
 1114loPI   C1A16807  11.903   2.117   6.955  0.3674  0.0571 -0.0100
 1114loPI   C2A16808  11.891   2.126   7.354  0.2604  0.0968 -0.0753
 1114loPI   C3A16809  11.830   2.152   7.714 -0.2977 -0.2509 -0.0596
 1114loPI   C4A16810  11.881   2.186   8.147  0.0094  0.1553 -0.3503
 1114loPI   C5A16811  12.022   2.049   8.438  0.1841  0.3501 -0.4018
 1114loPI   C6A16812  12.100   1.606   8.502 -0.0791 -0.0319 -0.1086
 1114loPI   C1B16813  11.987   2.622   6.939 -0.0311 -0.1137 -0.0844
 1114loPI   C2B16814  11.994   2.687   7.376  0.0203  0.1785  0.0934
 1114loPI   C3B16815  11.918   2.654   7.821 -0.1256 -0.1132  0.0923
 1114loPI   C4B16816  11.921   2.750   8.296  0.0395  0.1365  0.5384
 1115loPI    C116817   5.292   5.476   5.984  0.2098  0.0085 -0.1208
 1115loPI    C216818   5.427   5.118   5.869  0.0127 -0.0446 -0.1907
 1115loPI    C316819   5.098   5.271   5.701 -0.0517  0.0542  0.0223
 1115loPI   PO416820   5.290   5.464   6.213  0.2704 -0.1211 -0.1084
 1115loPI   GL116821   5.082   5.321   6.607 -0.1491  0.0001 -0.0375
 1115loPI   GL216822   4.796   5.216   6.644  0.7362 -0.2274  0.2079
 1115loPI   C1A16823   5.128   5.402   7.040 -0.2135  0.1117 -0.0752
 1115loPI   C2A16824   5.086   5.427   7.434  0.0327 -0.0170 -0.2969
 1115loPI   C3A16825   4.888   5.397   7.870  0.2188 -0.2835 -0.3052
 1115loPI   C4A16826   4.937   5.431   8.281  0.1818  0.0932 -0.0361
 1115loPI   C5A16827   4.915   5.179   8.656 -0.1875 -0.0748 -0.0859
 1115loPI   C6A16828   4.641   4.926   8.873 -0.1731 -0.3266 -0.4839
 1115loPI   C1B16829   4.690   5.192   7.008  0.2348 -0.1836  0.4096
 1115loPI   C2B16830   4.612   5.188   7.422  0.4345 -0.0723  0.1889
 1115loPI   C3B16831   4.405   5.193   7.843 -0.1201  0.1663 -0.4798
 1115loPI   C4B16832   4.402   5.160   8.226  0.1712  0.0093  0.1374
 1116loPI    C116833   9.955   0.338   5.905  0.0023  0.1349  0.1603
 1116loPI    C216834   9.737   0.609   5.707  0.1637  0.0227 -0.1781
 1116loPI    C316835   9.758   0.233   5.573  0.0762 -0.1200  0.1952
 1116loPI   PO416836   9.978   0.403   6.109 -0.4175 -0.0480  0.0246
 1116loPI   GL116837  10.105   0.150   6.445  0.1036  0.1815  0.1558
 1116loPI   GL216838  10.202   0.494   6.545  0.2636  0.1805 -0.2105
 1116loPI   C1A16839  10.095   0.047   6.879  0.0350 -0.0988  0.0858
 1116loPI   C2A16840  10.025   0.089   7.204 -0.3113  0.1413  0.2151
 1116loPI   C3A16841  10.077   0.016   7.604 -0.1117 -0.1748 -0.2166
 1116loPI   C4A16842  10.205   0.108   8.061 -0.4160 -0.4872  0.0505
 1116loPI   C5A16843  10.303   0.137   8.414 -0.4683  0.2153 -0.1210
 1116loPI   C6A16844  10.473   0.112   8.835 -0.1258  0.3032 -0.2215
 1116loPI   C1B16845  10.172   0.552   6.899 -0.0754  0.0668  0.4133
 1116loPI   C2B16846  10.203   0.640   7.275  0.2450  0.1281 -0.0463
 1116loPI   C3B16847  10.176   0.594   7.612  0.1831 -0.2250  0.1475
 1116loPI   C4B16848  10.240   0.619   8.026 -0.0583  0.0029 -0.3113
 1117loPI    C116849   0.839   2.980   5.748 -0.2206 -0.1998  0.0032
 1117loPI    C216850   0.754   3.313   5.543 -0.0354 -0.1172  0.0586
 1117loPI    C316851   0.816   2.968   5.349  0.2463 -0.0167 -0.0349
 1117loPI   PO416852   0.987   3.179   5.983  0.0039  0.0224  0.1281
 1117loPI   GL116853   1.210   3.230   6.411 -0.2813  0.4348  0.2367
 1117loPI   GL216854   1.296   3.528   6.618  0.0265  0.1260 -0.0305
 1117loPI   C1A16855   1.351   3.055   6.747  0.1893  0.0866  0.2767
 1117loPI   C2A16856   1.479   2.968   7.191 -0.3274 -0.0162  0.3681
 1117loPI   C3A16857   1.350   2.998   7.606 -0.1775  0.1614 -0.0095
 1117loPI   C4A16858   1.439   2.933   8.046  0.0668  0.0732  0.0688
 1117loPI   C5A16859   1.688   2.709   8.397  0.0181  0.0689 -0.2208
 1117loPI   C6A16860   1.971   2.367   8.597  0.2189  0.4296 -0.2419
 1117loPI   C1B16861   1.507   3.477   6.981 -0.1671  0.0832 -0.0248
 1117loPI   C2B16862   1.446   3.537   7.439 -0.2046 -0.2139  0.2180
 1117loPI   C3B16863   1.569   3.452   7.880  0.2901 -0.0095 -0.1814
 1117loPI   C4B16864   1.622   3.622   8.248 -0.0514  0.1362 -0.0132
 1118loPI    C116865   3.561  15.543   6.125 -0.2874 -0.0282  0.0617
 1118loPI    C216866   3.637  15.369   5.773 -0.2748 -0.1122  0.1056
 1118loPI    C316867   3.387  15.681   5.793 -0.0155  0.1076 -0.0269
 1118loPI   PO416868   3.539  15.275   6.410 -0.3105 -0.0043  0.2302
 1118loPI   GL116869   3.730  15.404   6.765 -0.0233  0.2089  0.2487
 1118loPI   GL216870   3.739  15.069   6.856 -0.2792  0.2090 -0.0664
 1118loPI   C1A16871   3.829  15.723   6.952  0.0767  0.0514 -0.1550
 1118loPI   C2A16872   3.913  15.781   7.393 -0.1252  0.0902 -0.2590
 1118loPI   C3A16873   3.901  15.661   7.855  0.0635  0.1121 -0.1713
 1118loPI   C4A16874   3.903  15.619   8.326  0.0279  0.2626  0.0092
 1118loPI   C5A16875   3.821  15.390   8.706  0.0420  0.1013  0.1054
 1118loPI   C6A16876   3.936  15.375   9.100 -0.0875 -0.2481 -0.0504
 1118loPI   C1B16877   3.807  14.807   7.321  0.1772  0.3019  0.2312
 1118loPI   C2B16878   3.794  14.607   7.707  0.1237  0.0286 -0.0871
 1118loPI   C3B16879   3.731  14.592   8.116 -0.0050 -0.1556 -0.0380
 1118loPI   C4B16880   3.676  14.415   8.556 -0.1875 -0.0780 -0.0892
 1119loPI    C116881   0.776  10.973   5.770 -0.2458  0.1048 -0.0979
 1119loPI    C216882   0.982  11.229   5.542  0.0216 -0.1832 -0.1861
 1119loPI    C316883   0.654  11.051   5.397 -0.1646  0.1037 -0.1248
 1119loPI   PO416884   0.928  10.688   5.927 -0.0787 -0.1453 -0.0243
 1119loPI   GL116885   0.941  10.366   6.202 -0.1638  0.0990  0.1194
 1119loPI   GL216886   0.889  10.122   6.408 -0.0336 -0.0126  0.2945
 1119loPI   C1A16887   0.839  10.641   6.535 -0.3539 -0.0767 -0.0856
 1119loPI   C2A16888   0.907  10.579   7.053 -0.3339 -0.0534  0.2299
 1119loPI   C3A16889   0.881  10.550   7.453 -0.2050 -0.2081  0.0438
 1119loPI   C4A16890   0.722  10.534   7.837  0.0855  0.1096  0.1477
 1119loPI   C5A16891   0.749  10.516   8.250  0.1509  0.0156  0.1445
 1119loPI   C6A16892   0.827  10.283   8.629 -0.1197 -0.0416 -0.1180
 1119loPI   C1B16893   0.793  10.134   6.805 -0.0352  0.1334 -0.0975
 1119loPI   C2B16894   0.858  10.069   7.246  0.1006 -0.1968  0.2233
 1119loPI   C3B16895   0.729  10.049   7.623 -0.2664  0.0579  0.0528
 1119loPI   C4B16896   0.682   9.992   8.116  0.1595 -0.1727  0.1605
 1120loPI    C116897  12.403  11.659   5.565 -0.0912  0.3582 -0.1884
 1120loPI    C216898  12.113  11.418   5.432 -0.0689  0.1248  0.1712
 1120loPI    C316899  12.447  11.466   5.218 -0.0335 -0.2398  0.1381
 1120loPI   PO416900  12.271  11.750   5.891 -0.0863 -0.1396 -0.0916
 1120loPI   GL116901  12.250  11.614   6.336 -0.0551  0.1026  0.0084
 1120loPI   GL216902  12.369  11.305   6.257 -0.0751  0.2014 -0.2006
 1120loPI   C1A16903  12.472  11.713   6.729  0.0905 -0.0131  0.0090
 1120loPI   C2A16904  12.517  11.755   7.176  0.2557  0.1180 -0.3389
 1120loPI   C3A16905  12.453  11.702   7.589  0.0624 -0.1342  0.1594
 1120loPI   C4A16906  12.573  11.766   7.880 -0.0923 -0.0059  0.0061
 1120loPI   C5A16907  12.581  11.834   8.221 -0.1782  0.2666  0.3033
 1120loPI   C6A16908  12.555  11.876   8.669  0.2420 -0.0411  0.1619
 1120loPI   C1B16909  12.358  11.202   6.679  0.1306  0.1128  0.1550
 1120loPI   C2B16910  12.399  11.198   7.079 -0.0826 -0.3588 -0.1557
 1120loPI   C3B16911  12.532  11.179   7.546  0.0438  0.0572 -0.4184
 1120loPI   C4B16912  12.413  11.241   7.917 -0.2279 -0.2819  0.0857
 1121loPI    C116913   8.554  11.402   6.102  0.2003  0.0285 -0.1085
 1121loPI    C216914   8.532  11.498   5.715  0.2393  0.2333 -0.0613
 1121loPI    C316915   8.211  11.539   5.950  0.1961  0.0436 -0.0858
 1121loPI   PO416916   8.673  11.117   6.099 -0.0189 -0.3071 -0.0993
 1121loPI   GL116917   8.922  10.897   6.327  0.0618 -0.2117 -0.1925
 1121loPI   GL216918   8.733  10.703   6.407 -0.2350  0.0030  0.0011
 1121loPI   C1A16919   9.158  11.034   6.648 -0.0854 -0.3458 -0.0007
 1121loPI   C2A16920   9.188  10.879   7.141  0.1107 -0.1880  0.2351
 1121loPI   C3A16921   9.213  10.882   7.540 -0.1009 -0.3159  0.0018
 1121loPI   C4A16922   9.346  10.851   8.036  0.1823 -0.2426  0.0596
 1121loPI   C5A16923   9.147  10.943   8.490 -0.0693 -0.0981  0.0537
 1121loPI   C6A16924   8.982  11.401   8.622  0.3044 -0.0626  0.0146
 1121loPI   C1B16925   8.726  10.739   6.788  0.3023  0.0229 -0.1849
 1121loPI   C2B16926   8.709  10.689   7.349  0.0115 -0.3223 -0.0577
 1121loPI   C3B16927   8.637  10.745   7.824 -0.1017  0.0215 -0.0925
 1121loPI   C4B16928   8.658  10.565   8.200  0.2752 -0.0731 -0.2631
 1122loPI    C116929  16.979   4.752   5.769  0.1881 -0.1481 -0.0376
 1122loPI    C216930  16.824   4.387   5.826 -0.2390  0.0326 -0.0055
 1122loPI    C316931  16.735   4.593   5.495 -0.0750  0.1472  0.0200
 1122loPI   PO416932  16.866   4.951   5.968 -0.0315 -0.0090 -0.0323
 1122loPI   GL116933  16.651   5.064   6.318  0.0428  0.0468 -0.0363
 1122loPI   GL216934  16.971   5.006   6.525  0.2059  0.1688 -0.3596
 1122loPI   C1A16935  16.533   5.027   6.788  0.0199  0.4769 -0.2146
 1122loPI   C2A16936  16.481   4.845   7.297  0.1233 -0.0211  0.2600
 1122loPI   C3A16937  16.429   4.914   7.685 -0.0706 -0.0623 -0.2605
 1122loPI   C4A16938  16.508   4.989   8.174  0.3447  0.0445  0.2009
 1122loPI   C5A16939  16.365   4.862   8.587  0.4974 -0.0456 -0.2884
 1122loPI   C6A16940  16.532   4.739   8.949 -0.0976 -0.3011 -0.2047
 1122loPI   C1B16941  17.017   5.166   6.933 -0.3494  0.0373 -0.2911
 1122loPI   C2B16942  16.887   5.160   7.299  0.3074  0.0526  0.0886
 1122loPI   C3B16943  16.867   5.145   7.809  0.0278  0.0818 -0.0361
 1122loPI   C4B16944  16.976   5.272   8.251 -0.4328  0.0361 -0.1143
 1123loPI    C116945   6.509  10.421   5.470  0.1528  0.1118  0.1285
 1123loPI    C216946   6.477  10.748   5.242 -0.0038 -0.0273 -0.0532
 1123loPI    C316947   6.569  10.396   5.075  0.0813 -0.0928  0.1290
 1123loPI   PO416948   6.640  10.462   5.625 -0.0312 -0.0687  0.1339
 1123loPI   GL116949   6.635  10.425   6.024  0.1308 -0.0600  0.0647
 1123loPI   GL216950   6.709  10.108   6.177  0.2108 -0.4473  0.3173
 1123loPI   C1A16951   6.812  10.517   6.392 -0.0829 -0.0217 -0.2548
 1123loPI   C2A16952   6.766  10.567   6.782  0.0471 -0.4079  0.3560
 1123loPI   C3A16953   6.731  10.593   7.236  0.0034 -0.1447 -0.0269
 1123loPI   C4A16954   6.789  10.395   7.709  0.2024 -0.0085  0.2084
 1123loPI   C5A16955   6.787  10.272   8.062 -0.0513 -0.0840 -0.1171
 1123loPI   C6A16956   7.005  10.095   8.400 -0.2451 -0.0382  0.1178
 1123loPI   C1B16957   6.659  10.000   6.568 -0.2370  0.2102  0.2994
 1123loPI   C2B16958   6.713  10.074   6.939  0.3422 -0.0739 -0.1231
 1123loPI   C3B16959   6.652  10.010   7.268  0.3264 -0.1888  0.0741
 1123loPI   C4B16960   6.624   9.840   7.646 -0.3467 -0.1300 -0.1485
 1124loPI    C116961   9.034  17.426   5.755  0.1047 -0.0486  0.1705
 1124loPI    C216962   9.396  17.428   5.586  0.0126 -0.2343 -0.0341
 1124loPI    C316963   9.075  17.536   5.373 -0.0273  0.1553  0.2132
 1124loPI   PO416964   9.192  17.329   6.055 -0.0285  0.0536 -0.0059
 1124loPI   GL116965   9.182  17.505   6.438  0.2099  0.1336 -0.0632
 1124loPI   GL216966   9.107  17.325   6.650 -0.0836 -0.1283  0.0481
 1124loPI   C1A16967   9.137  17.787   6.773 -0.0742 -0.1808  0.5295
 1124loPI   C2A16968   9.139  17.831   7.212 -0.1721  0.1113 -0.0044
 1124loPI   C3A16969   9.101  17.887   7.638 -0.2272 -0.1387 -0.1374
 1124loPI   C4A16970   9.249  17.792   8.036 -0.4001 -0.2113 -0.0205
 1124loPI   C5A16971   9.457  17.808   8.377  0.1038  0.1259 -0.1035
 1124loPI   C6A16972   9.658  17.918   8.779 -0.0080  0.3567  0.1140
 1124loPI   C1B16973   9.036  17.366   7.131 -0.0049 -0.0512  0.1897
 1124loPI   C2B16974   9.057  17.353   7.522  0.0403 -0.2799  0.0294
 1124loPI   C3B16975   9.106  17.254   7.895  0.1923  0.1304 -0.1440
 1124loPI   C4B16976   9.205  17.271   8.284  0.1191 -0.1479 -0.1663
 1125loPI    C116977   2.832   9.208   5.983 -0.2952  0.0557 -0.0080
 1125loPI    C216978   3.032   9.491   5.783  0.1796 -0.2471  0.0238
 1125loPI    C316979   2.717   9.312   5.614  0.1766 -0.0439 -0.1906
 1125loPI   PO416980   3.070   9.018   6.061 -0.1364  0.1887 -0.0457
 1125loPI   GL116981   3.013   8.855   6.407  0.3587 -0.0269 -0.1069
 1125loPI   GL216982   2.709   8.824   6.339 -0.0791  0.0698  0.0052
 1125loPI   C1A16983   2.926   8.929   6.793  0.0195  0.3851 -0.0640
 1125loPI   C2A16984   2.816   8.850   7.233 -0.0445  0.1526  0.3456
 1125loPI   C3A16985   2.789   8.917   7.783 -0.2453  0.0792  0.1007
 1125loPI   C4A16986   2.857   8.898   8.231 -0.2675 -0.0385  0.0263
 1125loPI   C5A16987   2.783   8.811   8.645  0.4674  0.1886 -0.0917
 1125loPI   C6A16988   2.555   8.487   8.668 -0.1163 -0.1508  0.2025
 1125loPI   C1B16989   2.511   8.699   6.606 -0.1236 -0.0273  0.1709
 1125loPI   C2B16990   2.417   8.781   6.901 -0.0113  0.1604 -0.0207
 1125loPI   C3B16991   2.311   8.697   7.284 -0.0179 -0.0304  0.0212
 1125loPI   C4B16992   2.287   8.714   7.813 -0.0242 -0.2024  0.2878
 1126loPI    C116993  17.389   2.417   5.931  0.0546 -0.0314  0.0281
 1126loPI    C216994  17.215   2.670   5.674  0.2781 -0.0522 -0.1463
 1126loPI    C316995  17.279   2.289   5.569  0.2312 -0.1006 -0.0022
 1126loPI   PO416996  17.262   2.407   6.217  0.0991  0.0316  0.0646
 1126loPI   GL116997  17.401   2.420   6.563 -0.2628 -0.2799  0.0856
 1126loPI   GL216998  17.323   2.099   6.598 -0.1884 -0.2025  0.0178
 1126loPI   C1A16999  17.482   2.327   7.087 -0.2023  0.0990 -0.1162
 1126loPI   C2A17000  17.480   2.377   7.496  0.1238  0.6047 -0.0037
 1126loPI   C3A17001  17.515   2.478   7.953 -0.2399  0.1017  0.0724
 1126loPI   C4A17002  17.454   2.465   8.393 -0.1233  0.0500 -0.1721
 1126loPI   C5A17003  17.549   2.511   8.848  0.1713  0.1225 -0.0832
 1126loPI   C6A17004  17.415   2.219   9.248 -0.3671 -0.1646  0.0450
 1126loPI   C1B17005  17.384   1.874   6.850  0.0988 -0.0088  0.2646
 1126loPI   C2B17006  17.481   1.833   7.326  0.1545  0.2669 -0.3521
 1126loPI   C3B17007  17.444   1.872   7.685 -0.2866 -0.0083 -0.0311
 1126loPI   C4B17008  17.355   2.009   8.163 -0.3536 -0.1049 -0.2253
 1127loPI    C117009   8.641  12.370   5.791  0.0580 -0.2680  0.0901
 1127loPI    C217010   8.748  12.710   5.609 -0.1955 -0.2057  0.0541
 1127loPI    C317011   8.491  12.460   5.431 -0.0459 -0.3950  0.1007
 1127loPI   PO417012   8.671  12.466   6.041  0.3092 -0.0146 -0.0597
 1127loPI   GL117013   8.443  12.432   6.388  0.2920  0.2624 -0.3513
 1127loPI   GL217014   8.641  12.687   6.531 -0.0177 -0.0794 -0.0136
 1127loPI   C1A17015   8.484  12.173   6.693  0.2116 -0.0734  0.1883
 1127loPI   C2A17016   8.422  12.142   7.038  0.2581  0.1246  0.0831
 1127loPI   C3A17017   8.426  11.967   7.458  0.0437 -0.0829 -0.1754
 1127loPI   C4A17018   8.392  11.985   7.830  0.0525  0.0962  0.0733
 1127loPI   C5A17019   8.406  12.011   8.201 -0.1978 -0.0969 -0.1169
 1127loPI   C6A17020   8.402  12.207   8.613 -0.2114 -0.2553  0.2043
 1127loPI   C1B17021   8.505  12.618   6.934  0.2039  0.0716  0.0082
 1127loPI   C2B17022   8.482  12.608   7.406 -0.3915  0.3642  0.0456
 1127loPI   C3B17023   8.533  12.612   7.808 -0.2486 -0.5346  0.1720
 1127loPI   C4B17024   8.452  12.577   8.220  0.0950 -0.0545  0.1722
 1128loPI    C117025  10.388   7.345   5.967 -0.0015  0.0408 -0.1966
 1128loPI    C217026  10.209   7.541   5.668 -0.1831 -0.0074 -0.1212
 1128loPI    C317027  10.327   7.162   5.616 -0.0539  0.0411 -0.1877
 1128loPI   PO417028  10.156   7.449   6.191  0.0683 -0.0317  0.6307
 1128loPI   GL117029  10.254   7.288   6.571 -0.0004 -0.0210 -0.3415
 1128loPI   GL217030   9.953   7.410   6.674 -0.2693 -0.3452 -0.1116
 1128loPI   C1A17031  10.393   7.505   6.897  0.4207 -0.1930 -0.0314
 1128loPI   C2A17032  10.446   7.472   7.289  0.1331  0.0305  0.0592
 1128loPI   C3A17033  10.375   7.542   7.625 -0.1859 -0.1289  0.0276
 1128loPI   C4A17034  10.347   7.606   8.098 -0.0040 -0.3409  0.0452
 1128loPI   C5A17035  10.321   7.591   8.510  0.0290  0.1834 -0.1293
 1128loPI   C6A17036   9.966   7.451   8.799 -0.2415 -0.2156  0.2726
 1128loPI   C1B17037   9.940   7.472   7.132  0.2278  0.0073  0.0584
 1128loPI   C2B17038   9.902   7.414   7.557  0.2633 -0.0385  0.2783
 1128loPI   C3B17039   9.878   7.379   7.991  0.1579  0.5025  0.0860
 1128loPI   C4B17040   9.722   7.572   8.387  0.0266 -0.1271  0.0241
 1129loPI    C117041   8.158   5.170   5.952  0.3328  0.0580  0.0458
 1129loPI    C217042   8.209   4.773   5.945 -0.4318 -0.0609  0.2876
 1129loPI    C317043   8.015   4.955   5.646 -0.1737  0.1224  0.2283
 1129loPI   PO417044   8.083   5.238   6.211 -0.1253  0.1533  0.1566
 1129loPI   GL117045   8.097   5.384   6.495  0.0277 -0.1130 -0.3346
 1129loPI   GL217046   7.909   5.412   6.668  0.2593 -0.2131 -0.6071
 1129loPI   C1A17047   8.273   5.086   6.854  0.0202  0.0570 -0.0750
 1129loPI   C2A17048   8.271   5.215   7.304  0.0764  0.1316 -0.0021
 1129loPI   C3A17049   8.213   5.293   7.686 -0.1035 -0.0359 -0.2377
 1129loPI   C4A17050   8.286   5.292   8.083 -0.0002 -0.1104 -0.0163
 1129loPI   C5A17051   8.453   5.289   8.371 -0.0470 -0.0811  0.0466
 1129loPI   C6A17052   8.630   5.509   8.585  0.1128  0.1060  0.1416
 1129loPI   C1B17053   7.919   5.452   7.048 -0.2721  0.3016  0.2198
 1129loPI   C2B17054   7.884   5.631   7.332  0.2415 -0.0601  0.0305
 1129loPI   C3B17055   7.778   5.497   7.781  0.2858  0.2929 -0.0587
 1129loPI   C4B17056   7.775   5.486   8.239 -0.3139 -0.0093  0.2242
 1130loPI    C117057   8.911   3.197   5.785  0.0070 -0.0546  0.0234
 1130loPI    C217058   9.257   3.364   5.673 -0.0045  0.0969  0.2074
 1130loPI    C317059   8.992   3.246   5.396  0.0854  0.2112  0.0713
 1130loPI   PO417060   9.046   3.181   6.065 -0.3330  0.0193  0.0783
 1130loPI   GL117061   9.180   3.223   6.453  0.3758 -0.3791  0.0917
 1130loPI   GL217062   9.225   2.855   6.368  0.2669  0.1283 -0.1593
 1130loPI   C1A17063   9.240   3.144   6.835 -0.0641  0.4450  0.0237
 1130loPI   C2A17064   9.203   3.186   7.283  0.2091  0.3958 -0.0600
 1130loPI   C3A17065   9.224   3.172   7.666 -0.1804  0.1458 -0.1551
 1130loPI   C4A17066   9.229   3.234   8.080 -0.2342  0.1703  0.0713
 1130loPI   C5A17067   9.328   3.134   8.510 -0.1241  0.0902 -0.0094
 1130loPI   C6A17068   9.699   2.986   8.677  0.1657  0.2220 -0.2128
 1130loPI   C1B17069   9.127   2.670   6.719  0.0848  0.0037  0.1640
 1130loPI   C2B17070   9.126   2.679   7.150  0.3375 -0.0419  0.2303
 1130loPI   C3B17071   9.126   2.654   7.568  0.4105 -0.0194 -0.5393
 1130loPI   C4B17072   9.213   2.730   8.053 -0.1607 -0.0729  0.1006
 1131loPI    C117073   3.590   6.398   5.675  0.1522 -0.0084  0.2172
 1131loPI    C217074   3.844   6.703   5.621 -0.1187  0.1422 -0.2682
 1131loPI    C317075   3.983   6.329   5.648  0.2087  0.2909  0.2359
 1131loPI   PO417076   3.449   6.495   5.889  0.0585  0.1982 -0.2678
 1131loPI   GL117077   3.494   6.386   6.275  0.1387 -0.2515  0.0912
 1131loPI   GL217078   3.690   6.565   6.436 -0.1330 -0.0174 -0.0005
 1131loPI   C1A17079   3.450   6.139   6.626  0.0786  0.0609 -0.2232
 1131loPI   C2A17080   3.345   6.124   7.038 -0.0120 -0.1744 -0.1377
 1131loPI   C3A17081   3.238   6.179   7.488  0.0383  0.0843 -0.0268
 1131loPI   C4A17082   3.242   6.252   7.896 -0.2702  0.0980 -0.0144
 1131loPI   C5A17083   3.193   6.225   8.279 -0.1247  0.1374 -0.0577
 1131loPI   C6A17084   3.440   6.425   8.556 -0.1499 -0.1555  0.1256
 1131loPI   C1B17085   3.525   6.654   6.817 -0.0495 -0.1412  0.3952
 1131loPI   C2B17086   3.429   6.751   7.268 -0.2126 -0.0856  0.1601
 1131loPI   C3B17087   3.347   6.766   7.711 -0.1152  0.1237  0.1972
 1131loPI   C4B17088   3.360   6.732   8.172  0.1557  0.3290  0.1800
 1132loPI    C117089   2.122   7.475   5.723  0.2495  0.0420 -0.2224
 1132loPI    C217090   2.055   7.098   5.609 -0.2509 -0.0115  0.2088
 1132loPI    C317091   1.980   7.400   5.357 -0.0597 -0.1836 -0.0602
 1132loPI   PO417092   2.086   7.392   6.048  0.0840 -0.1358 -0.2777
 1132loPI   GL117093   1.962   7.358   6.473  0.0681 -0.0593 -0.0864
 1132loPI   GL217094   1.749   7.027   6.427  0.0551  0.0980  0.0700
 1132loPI   C1A17095   1.859   7.537   6.856  0.1124 -0.4160  0.2938
 1132loPI   C2A17096   1.736   7.583   7.268  0.0866 -0.0932 -0.0323
 1132loPI   C3A17097   1.656   7.508   7.658  0.1680  0.1754 -0.2060
 1132loPI   C4A17098   1.456   7.602   8.064 -0.2472 -0.3486 -0.0603
 1132loPI   C5A17099   1.527   7.538   8.426 -0.3124  0.0283 -0.0765
 1132loPI   C6A17100   1.911   7.676   8.473 -0.0937  0.2893  0.5078
 1132loPI   C1B17101   1.634   7.087   6.881  0.0712 -0.2523 -0.2086
 1132loPI   C2B17102   1.624   7.016   7.350  0.0596 -0.1775 -0.0760
 1132loPI   C3B17103   1.598   6.964   7.705  0.0581  0.1473  0.1277
 1132loPI   C4B17104   1.606   6.696   8.139 -0.1675 -0.1148 -0.1433
 1133loPI    C117105  10.802   1.951   6.010  0.1304 -0.0363 -0.0354
 1133loPI    C217106  10.577   1.775   5.730  0.0306  0.0092  0.0157
 1133loPI    C317107  10.945   1.903   5.640 -0.1582  0.4117 -0.2134
 1133loPI   PO417108  10.836   1.792   6.192 -0.1151 -0.2305  0.3684
 1133loPI   GL117109  11.108   1.758   6.423  0.2468  0.1001 -0.1597
 1133loPI   GL217110  11.080   2.017   6.657 -0.1018 -0.2234  0.2411
 1133loPI   C1A17111  11.017   1.675   6.976 -0.3532 -0.1533  0.1611
 1133loPI   C2A17112  10.957   1.730   7.328  0.0071 -0.2019  0.1017
 1133loPI   C3A17113  10.979   2.115   7.642  0.2479 -0.2100  0.3385
 1133loPI   C4A17114  10.898   2.387   7.970  0.0963 -0.3796  0.1097
 1133loPI   C5A17115  10.935   2.416   8.356  0.0670 -0.2406  0.1352
 1133loPI   C6A17116  10.908   2.169   8.721 -0.2434 -0.0087 -0.3016
 1133loPI   C1B17117  11.013   2.276   6.991 -0.0904 -0.3010 -0.1064
 1133loPI   C2B17118  10.952   2.609   7.373 -0.1430  0.1104 -0.3251
 1133loPI   C3B17119  11.030   2.738   7.662 -0.0240  0.0454 -0.1937
 1133loPI   C4B17120  10.998   2.847   8.087 -0.0292  0.1628  0.2646
 1134loPI    C117121  12.791   1.810   5.843 -0.1564 -0.0812  0.3914
 1134loPI    C217122  12.498   1.623   5.646 -0.0776  0.0198  0.1756
 1134loPI    C317123  12.866   1.466   5.654 -0.0230  0.1383  0.0352
 1134loPI   PO417124  12.655   1.874   6.048 -0.0215 -0.3655  0.1727
 1134loPI   GL117125  12.534   1.883   6.417 -0.2204 -0.0529  0.0558
 1134loPI   GL217126  12.460   2.192   6.597  0.0671  0.0171  0.1031
 1134loPI   C1A17127  12.446   1.684   6.780  0.1786  0.0866 -0.0948
 1134loPI   C2A17128  12.256   1.759   7.150  0.0203  0.0486  0.0144
 1134loPI   C3A17129  12.281   1.893   7.639  0.2985 -0.1968 -0.0807
 1134loPI   C4A17130  12.253   1.785   8.063 -0.3476 -0.2395  0.1084
 1134loPI   C5A17131  12.499   1.846   8.450  0.2271 -0.1232 -0.1079
 1134loPI   C6A17132  12.344   1.938   8.867 -0.0230 -0.1063 -0.1399
 1134loPI   C1B17133  12.354   2.271   6.993  0.0683 -0.0313  0.2214
 1134loPI   C2B17134  12.341   2.328   7.404 -0.2045  0.1003 -0.1830
 1134loPI   C3B17135  12.338   2.372   7.898  0.0523  0.3959  0.2894
 1134loPI   C4B17136  12.339   2.359   8.338 -0.1089 -0.2102 -0.3470
 1135loPI    C117137   4.155  14.011   6.008  0.0445 -0.1676 -0.0325
 1135loPI    C217138   4.242  13.894   5.635  0.2655 -0.2647  0.0477
 1135loPI    C317139   4.085  13.634   5.895 -0.1955 -0.1138 -0.0693
 1135loPI   PO417140   4.264  14.196   6.090  0.0950  0.0295  0.2156
 1135loPI   GL117141   4.200  14.268   6.541  0.2444 -0.1138 -0.1116
 1135loPI   GL217142   4.441  14.367   6.695 -0.0140  0.1691  0.3594
 1135loPI   C1A17143   4.239  13.915   6.804 -0.0263 -0.1828 -0.0771
 1135loPI   C2A17144   4.072  13.733   7.155 -0.2519  0.1339 -0.3658
 1135loPI   C3A17145   4.148  13.715   7.649 -0.1695 -0.2722  0.0303
 1135loPI   C4A17146   3.955  13.763   8.018 -0.0194 -0.1290 -0.0229
 1135loPI   C5A17147   3.773  13.631   8.320 -0.1005  0.1854 -0.2236
 1135loPI   C6A17148   3.674  13.269   8.639 -0.1395 -0.1992  0.1172
 1135loPI   C1B17149   4.685  14.531   6.967 -0.2315  0.1654 -0.2514
 1135loPI   C2B17150   4.724  14.384   7.434  0.0766  0.2649 -0.1659
 1135loPI   C3B17151   4.767  14.551   7.863  0.2952 -0.2853  0.1169
 1135loPI   C4B17152   4.586  14.409   8.259 -0.0134 -0.1780  0.1002
 1136loPI    C117153   2.134   5.331   5.728  0.1186  0.1239 -0.1039
 1136loPI    C217154   2.279   4.982   5.597 -0.2530  0.0410 -0.3076
 1136loPI    C317155   2.215   5.281   5.339  0.1414  0.2944 -0.1219
 1136loPI   PO417156   2.233   5.388   6.022  0.1042  0.3469  0.2012
 1136loPI   GL117157   2.070   5.196   6.406  0.0758 -0.1291  0.2108
 1136loPI   GL217158   2.049   5.543   6.492  0.1367  0.1525  0.1441
 1136loPI   C1A17159   1.770   5.130   6.851  0.1587 -0.2290 -0.0201
 1136loPI   C2A17160   1.694   5.126   7.354 -0.2046 -0.3302 -0.0365
 1136loPI   C3A17161   1.656   5.178   7.774  0.0946 -0.2855 -0.1137
 1136loPI   C4A17162   1.736   5.078   8.165 -0.1336  0.0061  0.0319
 1136loPI   C5A17163   1.986   4.922   8.494  0.1407 -0.1677 -0.0809
 1136loPI   C6A17164   1.960   4.532   8.732 -0.0015  0.1268  0.0815
 1136loPI   C1B17165   1.869   5.665   6.855 -0.2403  0.1225 -0.1014
 1136loPI   C2B17166   1.816   5.629   7.316 -0.0612  0.0237 -0.0129
 1136loPI   C3B17167   1.779   5.641   7.690 -0.0764  0.0550 -0.3492
 1136loPI   C4B17168   1.837   5.659   8.151  0.1759 -0.1009 -0.2580
 1137loPI    C117169   7.019  14.816   5.740  0.0163  0.0029 -0.0930
 1137loPI    C217170   6.804  14.545   5.539 -0.2372  0.1018  0.0396
 1137loPI    C317171   6.982  14.845   5.343 -0.1606 -0.0201 -0.0790
 1137loPI   PO417172   6.986  14.816   5.949 -0.6125 -0.4100 -0.1686
 1137loPI   GL117173   7.138  14.625   6.235 -0.1334  0.0710 -0.1149
 1137loPI   GL217174   7.110  14.981   6.381  0.1862 -0.0319  0.1630
 1137loPI   C1A17175   7.049  14.525   6.659 -0.0926  0.0265 -0.0889
 1137loPI   C2A17176   6.919  14.444   7.188 -0.1589  0.2899  0.2286
 1137loPI   C3A17177   6.988  14.459   7.577  0.1743  0.1293  0.2537
 1137loPI   C4A17178   6.873  14.458   8.039 -0.1451  0.0434 -0.1805
 1137loPI   C5A17179   7.012  14.307   8.476  0.0470  0.1996 -0.1961
 1137loPI   C6A17180   7.058  14.212   8.838  0.0069  0.0444 -0.2536
 1137loPI   C1B17181   6.986  14.981   6.806  0.2253 -0.1941 -0.2098
 1137loPI   C2B17182   7.033  14.940   7.274  0.1635  0.1064 -0.0695
 1137loPI   C3B17183   6.898  14.877   7.806  0.2707 -0.1139  0.3497
 1137loPI   C4B17184   6.847  14.959   8.268 -0.0654 -0.1504 -0.0043
 1138loPI    C117185   5.750   5.472   5.767 -0.1741  0.0434 -0.0814
 1138loPI    C217186   5.867   5.156   5.551  0.0879  0.0091  0.1055
 1138loPI    C317187   5.914   5.526   5.406  0.2160 -0.0161  0.0816
 1138loPI   PO417188   5.845   5.452   5.988  0.1648  0.0493 -0.2315
 1138loPI   GL117189   5.758   5.627   6.391 -0.0878 -0.2041  0.2348
 1138loPI   GL217190   6.066   5.782   6.462 -0.0725  0.2740 -0.0117
 1138loPI   C1A17191   5.687   5.531   6.739 -0.0761 -0.2671 -0.1500
 1138loPI   C2A17192   5.573   5.630   7.149 -0.1436  0.0189 -0.1272
 1138loPI   C3A17193   5.506   5.628   7.674 -0.4051 -0.0358 -0.0468
 1138loPI   C4A17194   5.486   5.604   8.050 -0.3162  0.1192 -0.1159
 1138loPI   C5A17195   5.352   5.679   8.481  0.2910  0.0970 -0.0437
 1138loPI   C6A17196   5.240   5.647   8.958 -0.0726 -0.1116  0.0606
 1138loPI   C1B17197   6.191   5.751   6.773 -0.0721 -0.0612  0.0467
 1138loPI   C2B17198   6.060   5.797   7.221  0.0285  0.0214  0.1551
 1138loPI   C3B17199   5.984   5.821   7.702  0.2050  0.1034 -0.1242
 1138loPI   C4B17200   5.948   5.820   8.150 -0.2962  0.0827  0.0657
 1139loPI    C117201   5.004  11.610   5.679  0.1242 -0.3269  0.1257
 1139loPI    C217202   4.697  11.640   5.424  0.1289  0.0581  0.1596
 1139loPI    C317203   4.925  11.312   5.425 -0.0922 -0.0998 -0.0797
 1139loPI   PO417204   4.944  11.848   5.855  0.0983  0.2295  0.0901
 1139loPI   GL117205   4.914  11.714   6.300 -0.0950 -0.0804  0.2392
 1139loPI   GL217206   5.218  11.789   6.403 -0.0572 -0.3308  0.0809
 1139loPI   C1A17207   4.669  11.657   6.675  0.2788  0.1731  0.0807
 1139loPI   C2A17208   4.631  11.727   7.122 -0.1713 -0.3120  0.1069
 1139loPI   C3A17209   4.685  11.502   7.528 -0.3891 -0.0831 -0.0261
 1139loPI   C4A17210   4.583  11.519   7.975  0.2659 -0.1122 -0.0569
 1139loPI   C5A17211   4.666  11.684   8.307 -0.1592  0.0992 -0.1614
 1139loPI   C6A17212   4.986  11.823   8.573 -0.0010  0.0212 -0.2495
 1139loPI   C1B17213   5.129  11.757   6.840  0.5008 -0.0000  0.1813
 1139loPI   C2B17214   5.110  11.765   7.289 -0.2119  0.0813 -0.0130
 1139loPI   C3B17215   5.148  11.624   7.694 -0.3236 -0.1495  0.0887
 1139loPI   C4B17216   5.140  11.623   8.071  0.0141 -0.0007 -0.2850
 1140loPI    C117217   6.964  10.102   5.708  0.0661  0.1326  0.1457
 1140loPI    C217218   7.269  10.055   5.453 -0.0453  0.2077 -0.0025
 1140loPI    C317219   6.912  10.178   5.319 -0.2566 -0.2668  0.1046
 1140loPI   PO417220   6.994   9.800   5.872 -0.0308  0.3145  0.0019
 1140loPI   GL117221   7.155   9.777   6.318  0.0800 -0.1503  0.2633
 1140loPI   GL217222   7.547   9.847   6.403 -0.3913  0.3654  0.1619
 1140loPI   C1A17223   7.088   9.690   6.823 -0.0778 -0.2297  0.1066
 1140loPI   C2A17224   7.090   9.656   7.305  0.1415  0.1568  0.3007
 1140loPI   C3A17225   7.118   9.471   7.681  0.1670 -0.2449  0.0396
 1140loPI   C4A17226   7.101   9.485   8.119  0.2149  0.0128  0.2420
 1140loPI   C5A17227   7.324   9.564   8.520  0.2378 -0.0139 -0.0287
 1140loPI   C6A17228   7.599   9.528   8.653  0.0938 -0.2480  0.0792
 1140loPI   C1B17229   7.602   9.894   6.893  0.0826  0.2360  0.2194
 1140loPI   C2B17230   7.655   9.912   7.363  0.1411  0.0164  0.2526
 1140loPI   C3B17231   7.523   9.738   7.703 -0.0779  0.0286  0.1788
 1140loPI   C4B17232   7.550   9.830   8.145 -0.0949  0.1731  0.1520
 1141loPI    C117233   8.088   8.199   5.782 -0.1660  0.1705 -0.1235
 1141loPI    C217234   7.933   8.216   6.150  0.0519 -0.0807 -0.0170
 1141loPI    C317235   7.694   8.153   5.835 -0.1508  0.2529  0.0650
 1141loPI   PO417236   8.322   8.034   5.928  0.3775 -0.0513  0.1226
 1141loPI   GL117237   8.551   8.023   6.297  0.0662  0.1900  0.4740
 1141loPI   GL217238   8.383   8.297   6.440 -0.1735  0.0393 -0.2571
 1141loPI   C1A17239   8.807   7.909   6.609  0.0305  0.0638  0.3005
 1141loPI   C2A17240   8.760   7.935   7.043 -0.2786 -0.0362  0.2702
 1141loPI   C3A17241   8.683   7.765   7.439 -0.1474  0.0305 -0.1220
 1141loPI   C4A17242   8.581   7.707   7.809 -0.0489  0.2931 -0.3531
 1141loPI   C5A17243   8.471   7.664   8.120  0.0647 -0.0593  0.2450
 1141loPI   C6A17244   8.434   7.824   8.540  0.2296  0.0100 -0.2047
 1141loPI   C1B17245   8.256   8.187   6.892  0.1798  0.0898 -0.0334
 1141loPI   C2B17246   8.337   8.130   7.359  0.0726  0.0254 -0.0793
 1141loPI   C3B17247   8.217   7.992   7.726  0.0629  0.0678 -0.1442
 1141loPI   C4B17248   8.145   8.043   8.100  0.0444 -0.1943  0.1484
 1142loPI    C117249   1.629  15.336   5.995 -0.1032 -0.1560  0.0574
 1142loPI    C217250   1.315  15.478   5.791  0.0145  0.0483  0.0157
 1142loPI    C317251   1.628  15.325   5.595 -0.0478 -0.1339  0.0566
 1142loPI   PO417252   1.573  15.187   6.162  0.3141 -0.1058  0.3462
 1142loPI   GL117253   1.641  15.226   6.573  0.1723  0.0364  0.3108
 1142loPI   GL217254   1.917  15.050   6.538  0.1974  0.1701  0.0169
 1142loPI   C1A17255   1.748  15.337   6.981 -0.0913  0.2000 -0.3974
 1142loPI   C2A17256   1.949  15.205   7.400 -0.1026 -0.0774 -0.3931
 1142loPI   C3A17257   2.017  14.887   7.662  0.2021 -0.0107  0.0583
 1142loPI   C4A17258   1.951  14.619   8.021 -0.0435 -0.0956 -0.0289
 1142loPI   C5A17259   1.600  14.341   8.289 -0.1069  0.0062 -0.0002
 1142loPI   C6A17260   1.484  14.130   8.658  0.0895 -0.0431 -0.0094
 1142loPI   C1B17261   1.999  14.902   7.006  0.0718 -0.4529  0.2660
 1142loPI   C2B17262   1.725  14.694   7.320  0.0626 -0.0283 -0.0861
 1142loPI   C3B17263   1.525  14.749   7.683 -0.1200 -0.0550 -0.2237
 1142loPI   C4B17264   1.477  14.748   8.049  0.3883  0.1362  0.0656
 1143loPI    C117265   8.305  14.222   5.677  0.1375 -0.0361  0.0634
 1143loPI    C217266   8.625  14.303   5.451  0.1313 -0.1043  0.0301
 1143loPI    C317267   8.314  14.106   5.294  0.1052 -0.1062  0.0837
 1143loPI   PO417268   8.328  14.357   5.888  0.0481  0.0990  0.0576
 1143loPI   GL117269   8.197  14.412   6.219  0.0409 -0.1664 -0.1389
 1143loPI   GL217270   8.466  14.517   6.357 -0.2148 -0.0146  0.2162
 1143loPI   C1A17271   8.048  14.383   6.570 -0.0231  0.2958 -0.2262
 1143loPI   C2A17272   7.913  14.369   6.957 -0.0440  0.0475 -0.0828
 1143loPI   C3A17273   7.863  14.260   7.405 -0.0082 -0.0804  0.1439
 1143loPI   C4A17274   7.716  14.337   7.766 -0.1368  0.1606  0.0629
 1143loPI   C5A17275   7.658  14.371   8.203  0.2662 -0.1941 -0.2447
 1143loPI   C6A17276   7.464  14.039   8.499 -0.0588 -0.3267 -0.0326
 1143loPI   C1B17277   8.461  14.579   6.807  0.1093 -0.3118  0.1351
 1143loPI   C2B17278   8.312  14.443   7.260  0.2316  0.0150 -0.2796
 1143loPI   C3B17279   8.251  14.412   7.734  0.1685  0.1428 -0.1106
 1143loPI   C4B17280   8.105  14.485   8.102 -0.1117 -0.2303 -0.0637
 1144loPI    C117281  13.708   8.130   5.913  0.2603 -0.3246  0.1431
 1144loPI    C217282  13.706   8.128   5.513 -0.0682  0.1263  0.1350
 1144loPI    C317283  14.050   8.180   5.711  0.0052  0.6108 -0.1043
 1144loPI   PO417284  13.635   8.319   6.119  0.0440 -0.0940  0.1632
 1144loPI   GL117285  13.441   8.464   6.463  0.0435  0.0517  0.0396
 1144loPI   GL217286  13.376   8.705   6.681 -0.2475 -0.1363  0.0195
 1144loPI   C1A17287  13.210   8.194   6.754 -0.2450 -0.3837 -0.2664
 1144loPI   C2A17288  13.243   8.125   7.223  0.0028  0.0774  0.0478
 1144loPI   C3A17289  13.346   8.187   7.630 -0.0368  0.4028  0.1429
 1144loPI   C4A17290  13.276   8.078   7.966 -0.0959 -0.0355 -0.2276
 1144loPI   C5A17291  13.100   7.995   8.345  0.3379  0.1631 -0.0527
 1144loPI   C6A17292  13.368   8.025   8.655 -0.2048  0.2248 -0.0965
 1144loPI   C1B17293  13.385   8.576   7.076 -0.0205  0.1625  0.0766
 1144loPI   C2B17294  13.417   8.659   7.523  0.1613 -0.1559 -0.3619
 1144loPI   C3B17295  13.362   8.605   7.980  0.0527  0.0093  0.5713
 1144loPI   C4B17296  13.234   8.437   8.363 -0.1956 -0.2767  0.0365
 1145loPI    C117297  15.630  17.202   6.667 -0.1360  0.0034  0.0166
 1145loPI    C217298  15.321  17.036   6.474 -0.2126  0.0973  0.0580
 1145loPI    C317299  15.690  17.003   6.325 -0.2847  0.2607 -0.1630
 1145loPI   PO417300  15.659  17.150   6.884 -0.1107 -0.1630 -0.2509
 1145loPI   GL117301  15.851  17.139   7.156 -0.0918  0.0605  0.0285
 1145loPI   GL217302  16.155  16.927   7.148  0.0919 -0.0800 -0.0250
 1145loPI   C1A17303  16.018  17.352   7.539 -0.5486  0.0485  0.2428
 1145loPI   C2A17304  16.039  17.260   7.950 -0.1614 -0.1489 -0.0929
 1145loPI   C3A17305  15.953  17.215   8.407 -0.1587 -0.4318  0.0103
 1145loPI   C4A17306  15.762  16.896   8.620  0.3486  0.0496  0.1469
 1145loPI   C5A17307  15.418  16.860   8.822  0.0451 -0.1500  0.1318
 1145loPI   C6A17308  15.081  17.063   8.832  0.3281 -0.0329 -0.0303
 1145loPI   C1B17309  16.316  16.940   7.564 -0.2201  0.2621  0.0415
 1145loPI   C2B17310  16.228  16.799   7.971  0.1470  0.1477 -0.1558
 1145loPI   C3B17311  16.159  16.726   8.292 -0.0370  0.1626  0.1143
 1145loPI   C4B17312  16.206  16.821   8.801  0.3201 -0.0568 -0.0202
 1146loPI    C117313  17.500  12.675   5.727  0.1071  0.1796  0.1062
 1146loPI    C217314  17.333  12.549   5.387  0.0366 -0.2374  0.2894
 1146loPI    C317315  17.731  12.545   5.428  0.0613  0.0926  0.1081
 1146loPI   PO417316  17.361  12.642   5.923  0.0791 -0.3004  0.0220
 1146loPI   GL117317  17.243  12.646   6.401  0.2693  0.0742  0.2174
 1146loPI   GL217318  16.871  12.568   6.622  0.1075  0.0588  0.0958
 1146loPI   C1A17319  17.526  12.638   6.737  0.1351 -0.0722  0.1227
 1146loPI   C2A17320  17.454  12.401   7.135 -0.0873 -0.3372  0.0516
 1146loPI   C3A17321  17.567  12.214   7.498  0.3872 -0.2716  0.0252
 1146loPI   C4A17322  17.622  12.247   7.908  0.2151 -0.1098 -0.0300
 1146loPI   C5A17323  17.645  12.216   8.405  0.0879  0.1167  0.2002
 1146loPI   C6A17324  18.104  12.044   8.606  0.0105  0.0560  0.0510
 1146loPI   C1B17325  17.044  12.716   6.927  0.2031 -0.0523  0.0035
 1146loPI   C2B17326  17.070  12.741   7.384 -0.1927  0.3355 -0.4847
 1146loPI   C3B17327  17.384  12.684   7.766 -0.1320 -0.1193 -0.0193
 1146loPI   C4B17328  17.460  12.626   8.161 -0.0648 -0.3474 -0.1048
 1147loPI    C117329   4.926   7.838   5.564  0.2009  0.0693 -0.0618
 1147loPI    C217330   4.627   7.671   5.357  0.2264 -0.1279  0.0575
 1147loPI    C317331   4.970   7.764   5.174  0.0468  0.2239 -0.1096
 1147loPI   PO417332   4.749   7.861   5.806 -0.2031 -0.1797  0.0293
 1147loPI   GL117333   4.621   7.787   6.158  0.2670  0.0239 -0.1163
 1147loPI   GL217334   4.345   7.791   6.253 -0.3259 -0.0076  0.1057
 1147loPI   C1A17335   4.652   8.024   6.586  0.1083 -0.0216  0.2073
 1147loPI   C2A17336   4.551   8.137   7.002 -0.2090 -0.1633  0.0433
 1147loPI   C3A17337   4.591   8.273   7.405  0.1966  0.1454  0.1441
 1147loPI   C4A17338   4.434   8.052   7.845 -0.0849 -0.1739 -0.1998
 1147loPI   C5A17339   4.339   7.799   8.208 -0.1425  0.1102 -0.2123
 1147loPI   C6A17340   4.612   7.594   8.626 -0.1017 -0.1436  0.0171
 1147loPI   C1B17341   4.206   7.882   6.665 -0.2891 -0.1633  0.0068
 1147loPI   C2B17342   4.099   7.931   7.002  0.0137  0.0886  0.0357
 1147loPI   C3B17343   4.036   7.962   7.311 -0.3813 -0.0592  0.1040
 1147loPI   C4B17344   3.917   7.975   7.665  0.1820  0.1941  0.1529
 1148POPI    C117345  13.225  15.479   6.150 -0.0476 -0.3160  0.1215
 1148POPI    C217346  12.913  15.588   5.925  0.0289 -0.1678  0.0863
 1148POPI    C317347  13.284  15.684   5.812  0.0587  0.0451  0.3533
 1148POPI   PO417348  13.158  15.484   6.379 -0.1558  0.1362  0.3246
 1148POPI   GL117349  13.160  15.575   6.658 -0.1098  0.0352 -0.1072
 1148POPI   GL217350  13.429  15.730   6.858 -0.0972  0.0601 -0.0416
 1148POPI   C1A17351  13.003  15.568   7.105 -0.4248  0.1676  0.2669
 1148POPI   D2A17352  12.737  15.732   7.475  0.2471  0.2113  0.0883
 1148POPI   C3A17353  12.562  15.576   7.877 -0.0230 -0.0725  0.1288
 1148POPI   C4A17354  12.581  15.465   8.297  0.1030  0.1408 -0.2252
 1148POPI   C1B17355  13.373  15.899   7.257  0.2513 -0.0233 -0.0260
 1148POPI   C2B17356  13.553  16.199   7.520 -0.3005 -0.1185  0.2998
 1148POPI   C3B17357  13.484  16.363   7.848  0.1361  0.0675  0.1379
 1148POPI   C4B17358  13.682  16.419   8.212  0.1252  0.2394  0.0569
 1149POPI    C117359  10.310  15.783   5.742  0.2063  0.2093  0.2195
 1149POPI    C217360  10.400  16.172   5.719  0.0343  0.2450  0.1316
 1149POPI    C317361  10.341  15.960   5.385  0.0644  0.1582  0.1810
 1149POPI   PO417362  10.264  15.704   6.004 -0.1307 -0.0926 -0.0556
 1149POPI   GL117363  10.171  15.803   6.413  0.2561  0.2001  0.0983
 1149POPI   GL217364  10.482  15.677   6.486  0.0806  0.3049 -0.3971
 1149POPI   C1A17365  10.127  15.852   6.873  0.0759 -0.1586 -0.1219
 1149POPI   D2A17366  10.081  15.979   7.246 -0.1446 -0.4476  0.1326
 1149POPI   C3A17367  10.161  15.802   7.674 -0.2920  0.0949 -0.2015
 1149POPI   C4A17368  10.126  15.797   8.054 -0.0858  0.1586 -0.0170
 1149POPI   C1B17369  10.630  15.795   6.897 -0.1229 -0.2359 -0.0809
 1149POPI   C2B17370  10.590  15.865   7.332 -0.0965 -0.1251  0.4721
 1149POPI   C3B17371  10.744  15.944   7.707  0.1947 -0.1783  0.2596
 1149POPI   C4B17372  10.633  15.930   8.178  0.0174 -0.0684 -0.1855
 1150POPI    C117373   8.709   3.999   5.858  0.2331  0.3126  0.0011
 1150POPI    C217374   8.840   3.675   5.663  0.0707  0.1777  0.1136
 1150POPI    C317375   8.830   4.029   5.477  0.0121  0.0699 -0.0913
 1150POPI   PO417376   8.871   3.998   6.094  0.1318  0.0085  0.1473
 1150POPI   GL117377   8.880   4.164   6.454  0.3946  0.3387 -0.1004
 1150POPI   GL217378   8.624   4.352   6.639  0.1554  0.0779  0.1260
 1150POPI   C1A17379   9.004   3.961   6.831 -0.2812 -0.0283 -0.0133
 1150POPI   D2A17380   8.998   3.908   7.268  0.2879  0.0135  0.1722
 1150POPI   C3A17381   8.956   3.989   7.693 -0.0711  0.2730  0.1098
 1150POPI   C4A17382   8.960   4.066   8.140 -0.0154 -0.0121 -0.0481
 1150POPI   C1B17383   8.595   4.236   7.073  0.0421  0.1947 -0.0372
 1150POPI   C2B17384   8.491   4.355   7.471 -0.2455  0.3022  0.2467
 1150POPI   C3B17385   8.618   4.381   7.880  0.3946 -0.0817  0.0612
 1150POPI   C4B17386   8.516   4.412   8.273  0.3023  0.1183 -0.1420
 1151POPI    C117387  16.111  15.621   6.055 -0.1898  0.0298 -0.0904
 1151POPI    C217388  15.964  15.966   5.916 -0.0226  0.1217 -0.0413
 1151POPI    C317389  16.164  15.720   5.672 -0.0109  0.1305 -0.0405
 1151POPI   PO417390  16.022  15.656   6.279 -0.1705 -0.1081 -0.0673
 1151POPI   GL117391  16.005  15.518   6.694  0.2565  0.2068  0.0080
 1151POPI   GL217392  16.247  15.756   6.712  0.1094  0.2758  0.2610
 1151POPI   C1A17393  15.897  15.720   7.112  0.0413  0.2248 -0.0114
 1151POPI   D2A17394  15.594  15.852   7.367  0.2422  0.1083 -0.0431
 1151POPI   C3A17395  15.482  15.530   7.790 -0.1241  0.2886  0.1244
 1151POPI   C4A17396  15.254  15.370   8.116  0.3874 -0.0166 -0.2984
 1151POPI   C1B17397  16.410  15.693   7.017  0.0755  0.2791 -0.1512
 1151POPI   C2B17398  16.672  15.907   7.181 -0.0237 -0.2347  0.2898
 1151POPI   C3B17399  16.688  15.966   7.559  0.0497  0.3482  0.1653
 1151POPI   C4B17400  16.377  15.863   7.810  0.0734  0.1482  0.0175
 1152POPI    C117401  13.281   3.592   5.696  0.0683  0.1918 -0.0401
 1152POPI    C217402  13.162   3.590   5.314 -0.3505 -0.0734  0.0858
 1152POPI    C317403  13.552   3.605   5.401 -0.2518  0.0301 -0.3486
 1152POPI   PO417404  13.086   3.639   5.833 -0.0443  0.0930 -0.1133
 1152POPI   GL117405  13.051   3.761   6.270  0.0231 -0.0222 -0.0974
 1152POPI   GL217406  13.021   4.018   6.305 -0.1892 -0.0138 -0.0867
 1152POPI   C1A17407  12.703   3.785   6.591  0.1330 -0.1874 -0.0883
 1152POPI   D2A17408  12.601   3.874   7.018  0.0391 -0.2197 -0.2114
 1152POPI   C3A17409  12.654   3.916   7.496 -0.1319  0.0172 -0.2724
 1152POPI   C4A17410  12.732   3.986   7.914 -0.0845  0.0536  0.0360
 1152POPI   C1B17411  13.109   4.056   6.777 -0.2935  0.0563 -0.0401
 1152POPI   C2B17412  13.084   4.096   7.212 -0.1100 -0.2137 -0.0217
 1152POPI   C3B17413  13.067   4.159   7.618  0.2144 -0.2439 -0.0098
 1152POPI   C4B17414  13.204   4.191   8.015 -0.0043 -0.1476 -0.0748
 1153POPI    C117415   2.468   6.753   5.571 -0.2103 -0.1145 -0.2270
 1153POPI    C217416   2.827   6.852   5.425 -0.1671  0.0483 -0.0144
 1153POPI    C317417   2.659   6.504   5.323 -0.0019  0.0239 -0.2079
 1153POPI   PO417418   2.532   6.736   5.870  0.3202 -0.1962 -0.1648
 1153POPI   GL117419   2.594   6.756   6.262  0.0495  0.1414  0.1247
 1153POPI   GL217420   2.366   6.986   6.434  0.0391 -0.0775  0.4333
 1153POPI   C1A17421   2.663   6.727   6.767  0.0881  0.3219  0.0383
 1153POPI   D2A17422   2.530   6.901   7.143  0.2648  0.2036 -0.0088
 1153POPI   C3A17423   2.455   6.838   7.552  0.0790 -0.0709 -0.1369
 1153POPI   C4A17424   2.489   6.870   7.961 -0.3367 -0.2173  0.2113
 1153POPI   C1B17425   2.262   7.180   6.847  0.0668 -0.0098 -0.0321
 1153POPI   C2B17426   2.123   7.260   7.239  0.1142 -0.2076  0.1460
 1153POPI   C3B17427   2.067   7.185   7.621  0.0963 -0.3513 -0.1604
 1153POPI   C4B17428   1.867   7.162   8.039 -0.4171 -0.3631 -0.2895
 1154POPI    C117429  17.515   9.462   5.815 -0.0196  0.0391  0.2572
 1154POPI    C217430  17.622   9.332   5.452 -0.2156  0.0250  0.2033
 1154POPI    C317431  17.590   9.724   5.522 -0.0334  0.0328  0.2480
 1154POPI   PO417432  17.467   9.229   5.889  0.2433  0.1265 -0.0288
 1154POPI   GL117433  17.603   8.871   6.079 -0.1961  0.3817 -0.0657
 1154POPI   GL217434  17.964   8.905   6.278  0.3818  0.0060 -0.1961
 1154POPI   C1A17435  17.283   8.638   6.492 -0.0149  0.1732 -0.0460
 1154POPI   D2A17436  17.089   8.556   6.930  0.0028 -0.0626  0.3578
 1154POPI   C3A17437  17.143   8.613   7.343  0.0497 -0.4238 -0.0189
 1154POPI   C4A17438  17.068   8.607   7.813  0.2513 -0.1613  0.1670
 1154POPI   C1B17439  17.729   8.856   6.657 -0.1027  0.0512  0.0356
 1154POPI   C2B17440  17.583   8.811   7.110 -0.1623  0.1319 -0.0692
 1154POPI   C3B17441  17.692   8.881   7.472 -0.0489 -0.2195 -0.3241
 1154POPI   C4B17442  17.527   8.751   7.855 -0.2678 -0.1025  0.2285
 1155POPI    C117443   2.476  15.325   5.821 -0.2016 -0.0640 -0.2465
 1155POPI    C217444   2.701  15.013   5.711 -0.1016 -0.0052 -0.2101
 1155POPI    C317445   2.634  15.311   5.453  0.1318  0.1322 -0.1155
 1155POPI   PO417446   2.637  15.390   6.114  0.0432 -0.3726 -0.0218
 1155POPI   GL117447   2.615  15.600   6.501 -0.0473 -0.3975 -0.0158
 1155POPI   GL217448   2.817  15.384   6.646  0.1843 -0.3919  0.1607
 1155POPI   C1A17449   2.450  15.587   6.915 -0.1895 -0.0937  0.2925
 1155POPI   D2A17450   2.466  15.516   7.339 -0.1005  0.2582  0.1083
 1155POPI   C3A17451   2.501  15.624   7.702  0.0263  0.2027 -0.1888
 1155POPI   C4A17452   2.541  15.854   8.030  0.1527 -0.2646 -0.1556
 1155POPI   C1B17453   2.897  15.311   7.039 -0.1238  0.0517 -0.0340
 1155POPI   C2B17454   2.939  15.223   7.482 -0.2946 -0.0638  0.0771
 1155POPI   C3B17455   2.886  15.375   7.950 -0.0350  0.2743  0.0322
 1155POPI   C4B17456   2.555  15.288   8.203  0.0253  0.1218 -0.2146
 1156POPI    C117457  16.113  16.667   6.353 -0.1008  0.2341 -0.0010
 1156POPI    C217458  16.339  16.530   6.052 -0.1635  0.2172 -0.0406
 1156POPI    C317459  15.941  16.508   6.029 -0.1715  0.3147 -0.0034
 1156POPI   PO417460  16.337  16.624   6.579 -0.0853  0.3485 -0.1235
 1156POPI   GL117461  16.340  16.481   7.084 -0.1518 -0.2082 -0.0675
 1156POPI   GL217462  16.213  16.256   6.932  0.2877 -0.0821  0.0763
 1156POPI   C1A17463  16.344  16.458   7.529 -0.1813 -0.0087  0.0105
 1156POPI   D2A17464  16.342  16.316   7.969  0.0727 -0.1772 -0.2653
 1156POPI   C3A17465  16.300  16.105   8.286 -0.0038  0.2928 -0.4247
 1156POPI   C4A17466  16.120  16.320   8.624  0.0617 -0.2085  0.0219
 1156POPI   C1B17467  16.203  16.021   7.352  0.0784 -0.0033 -0.1502
 1156POPI   C2B17468  15.853  16.046   7.738 -0.0417  0.1506  0.0126
 1156POPI   C3B17469  15.696  16.386   8.083  0.0851  0.1892 -0.0432
 1156POPI   C4B17470  15.469  16.423   8.397  0.4432  0.3146 -0.1918
 1157POPI    C117471   9.840   1.423   6.137 -0.3658 -0.0855 -0.0771
 1157POPI    C217472   9.982   1.759   5.973  0.1237 -0.2652 -0.0366
 1157POPI    C317473   9.624   1.619   5.863 -0.0831  0.2588 -0.0612
 1157POPI   PO417474   9.857   1.418   6.387  0.0807 -0.0979  0.0179
 1157POPI   GL117475   9.625   1.325   6.627  0.0882  0.0695  0.0788
 1157POPI   GL217476   9.467   0.986   6.624  0.0274  0.0378  0.1416
 1157POPI   C1A17477   9.545   1.708   6.981  0.1281  0.2886  0.0058
 1157POPI   D2A17478   9.401   1.821   7.539 -0.1893 -0.2199 -0.0511
 1157POPI   C3A17479   9.477   1.764   7.879 -0.0892 -0.0951  0.1864
 1157POPI   C4A17480   9.475   1.868   8.336 -0.1779 -0.0982  0.1414
 1157POPI   C1B17481   9.312   1.291   6.940 -0.0588  0.0432  0.2048
 1157POPI   C2B17482   9.381   1.338   7.319 -0.0374 -0.3895  0.3564
 1157POPI   C3B17483   9.279   1.351   7.738 -0.0752  0.3089 -0.0338
 1157POPI   C4B17484   9.327   1.333   8.222 -0.0537  0.1353  0.1256
 1158POPI    C117485   6.549   2.378   5.781  0.1970 -0.2138 -0.0870
 1158POPI    C217486   6.688   2.596   5.476  0.1584 -0.2925 -0.1611
 1158POPI    C317487   6.658   2.758   5.840  0.2102 -0.2001 -0.1976
 1158POPI   PO417488   6.674   2.094   5.792  0.1826 -0.0342  0.2136
 1158POPI   GL117489   6.823   2.004   6.265  0.2457 -0.2283 -0.0543
 1158POPI   GL217490   6.478   2.014   6.255 -0.0572 -0.0636  0.0325
 1158POPI   C1A17491   6.823   2.154   6.669 -0.4701 -0.0466  0.1475
 1158POPI   D2A17492   6.841   2.347   7.174 -0.0496 -0.1138  0.0951
 1158POPI   C3A17493   6.814   2.277   7.595 -0.0998  0.0385  0.0952
 1158POPI   C4A17494   6.745   2.293   8.090  0.2970  0.0537 -0.4158
 1158POPI   C1B17495   6.265   2.021   6.616 -0.2531  0.3361 -0.1444
 1158POPI   C2B17496   6.401   2.129   7.053  0.0493 -0.2193  0.1151
 1158POPI   C3B17497   6.325   2.004   7.443 -0.0129 -0.0030  0.0719
 1158POPI   C4B17498   6.319   2.063   7.903 -0.1247 -0.1631  0.3501
 1159POPI    C117499  14.442  14.135   6.432 -0.3408 -0.1402  0.0781
 1159POPI    C217500  14.241  14.307   6.132 -0.0082 -0.0518 -0.0978
 1159POPI    C317501  14.469  13.986   6.062  0.1622  0.0385  0.0356
 1159POPI   PO417502  14.385  14.186   6.611  0.0468 -0.1983 -0.2508
 1159POPI   GL117503  14.510  14.064   6.997  0.0005 -0.0364 -0.2265
 1159POPI   GL217504  14.877  14.137   6.791 -0.0708 -0.2310 -0.3588
 1159POPI   C1A17505  14.624  14.152   7.373  0.0493 -0.2280  0.0167
 1159POPI   D2A17506  14.479  14.324   7.750 -0.4215  0.0331  0.1107
 1159POPI   C3A17507  14.138  14.307   8.042  0.2363 -0.1799  0.0498
 1159POPI   C4A17508  14.163  14.138   8.431  0.1222 -0.1088  0.2334
 1159POPI   C1B17509  15.038  13.923   7.176  0.0830 -0.4314  0.3068
 1159POPI   C2B17510  14.966  13.950   7.678 -0.1698  0.1409 -0.1434
 1159POPI   C3B17511  15.074  13.873   8.034  0.0358 -0.0970 -0.0742
 1159POPI   C4B17512  14.961  13.566   8.392  0.2363 -0.1500  0.0443
 1160POPI    C117513  14.778  15.937   6.336 -0.0831 -0.1460 -0.0650
 1160POPI    C217514  14.513  16.236   6.340  0.1474  0.0605  0.2038
 1160POPI    C317515  14.872  16.289   6.172 -0.0055 -0.2472 -0.2420
 1160POPI   PO417516  14.796  15.874   6.570 -0.1358  0.1252 -0.0425
 1160POPI   GL117517  14.708  15.825   7.044  0.1380  0.2830 -0.2446
 1160POPI   GL217518  14.554  16.055   7.146 -0.1561  0.2297  0.0056
 1160POPI   C1A17519  14.576  15.822   7.587 -0.1594  0.2432  0.4187
 1160POPI   D2A17520  14.364  15.793   7.985  0.2576  0.1152 -0.2214
 1160POPI   C3A17521  14.568  16.035   8.314  0.0567 -0.0361 -0.0554
 1160POPI   C4A17522  14.481  16.099   8.752  0.0710 -0.0911 -0.1919
 1160POPI   C1B17523  14.466  16.483   7.383 -0.0663 -0.0884  0.3305
 1160POPI   C2B17524  14.287  16.602   7.834  0.0334  0.0101 -0.2330
 1160POPI   C3B17525  14.092  16.766   8.184  0.2158 -0.0069  0.1309
 1160POPI   C4B17526  13.940  16.781   8.593 -0.1420  0.1101  0.0140
 1161POPI    C117527  15.392   8.837   6.043 -0.1047  0.0068  0.1575
 1161POPI    C217528  15.698   9.009   5.851 -0.1796  0.1058  0.1261
 1161POPI    C317529  15.408   9.235   6.009 -0.1020  0.0277  0.3861
 1161POPI   PO417530  15.460   8.653   6.235  0.3048  0.3504  0.0080
 1161POPI   GL117531  15.199   8.786   6.576  0.4007 -0.2179 -0.1242
 1161POPI   GL217532  15.411   9.051   6.589 -0.0399 -0.2000  0.0248
 1161POPI   C1A17533  14.860   8.669   6.883  0.1337 -0.2808 -0.0234
 1161POPI   D2A17534  14.695   8.650   7.324 -0.1899 -0.0450 -0.1266
 1161POPI   C3A17535  14.747   8.781   7.726  0.0785 -0.0102  0.0936
 1161POPI   C4A17536  14.731   8.636   8.111  0.0711  0.3016 -0.0453
 1161POPI   C1B17537  15.297   8.874   7.014  0.0733  0.1366  0.1069
 1161POPI   C2B17538  15.234   8.839   7.496  0.0825  0.4637 -0.3326
 1161POPI   C3B17539  15.192   8.907   7.922 -0.3422  0.0414 -0.0358
 1161POPI   C4B17540  15.188   8.681   8.369  0.1369 -0.0599 -0.0188
 1162POPI    C117541   0.514   3.910   6.044  0.0067  0.0308  0.0262
 1162POPI    C217542   0.601   3.537   5.928 -0.3554 -0.1085  0.1891
 1162POPI    C317543   0.677   3.844   5.685  0.2647 -0.2492  0.1899
 1162POPI   PO417544   0.588   3.924   6.289  0.2497  0.1463 -0.0473
 1162POPI   GL117545   0.845   3.789   6.552 -0.0181 -0.0742  0.0045
 1162POPI   GL217546   0.782   3.459   6.409 -0.0224  0.1369  0.1123
 1162POPI   C1A17547   1.016   3.745   7.001 -0.0976  0.0017  0.4756
 1162POPI   D2A17548   1.100   3.882   7.493 -0.1166  0.0949  0.0953
 1162POPI   C3A17549   1.034   3.818   7.994 -0.1109 -0.2078 -0.0698
 1162POPI   C4A17550   1.173   3.507   8.340 -0.1870 -0.0332  0.1327
 1162POPI   C1B17551   0.870   3.272   6.814  0.1981 -0.2343 -0.2164
 1162POPI   C2B17552   1.028   3.283   7.096 -0.1115  0.0689 -0.0398
 1162POPI   C3B17553   1.008   3.349   7.494  0.2246 -0.3767 -0.1264
 1162POPI   C4B17554   1.089   3.285   7.935  0.1643 -0.1382  0.2518
 1163POPI    C117555  15.374  11.436   6.081 -0.1284 -0.0982  0.2840
 1163POPI    C217556  15.118  11.536   5.790  0.0416  0.1181  0.2062
 1163POPI    C317557  15.500  11.458   5.703  0.0903  0.1691  0.3698
 1163POPI   PO417558  15.289  11.320   6.209 -0.0575 -0.1715 -0.1470
 1163POPI   GL117559  15.171  11.403   6.663  0.1018  0.2320 -0.0896
 1163POPI   GL217560  15.185  11.075   6.790  0.1605 -0.3242  0.0122
 1163POPI   C1A17561  15.265  11.576   7.124  0.2539 -0.0073 -0.1393
 1163POPI   D2A17562  15.228  11.334   7.472 -0.1735  0.2754  0.0117
 1163POPI   C3A17563  15.213  11.162   7.844 -0.1315  0.1587 -0.0336
 1163POPI   C4A17564  15.303  11.237   8.175  0.2891  0.1206  0.0792
 1163POPI   C1B17565  14.752  11.112   7.027  0.0080  0.0121 -0.3422
 1163POPI   C2B17566  14.761  11.063   7.476  0.0953  0.1658  0.0071
 1163POPI   C3B17567  14.717  11.120   7.847 -0.1654  0.3396 -0.0779
 1163POPI   C4B17568  14.800  11.090   8.260  0.0882 -0.2352  0.1827
 1164POPI    C117569   9.010   4.416   5.705  0.0126 -0.1203 -0.2047
 1164POPI    C217570   9.190   4.737   5.547  0.2791 -0.2504 -0.1716
 1164POPI    C317571   8.864   4.583   5.372 -0.0312  0.2147 -0.0217
 1164POPI   PO417572   9.006   4.487   5.951 -0.0848  0.1074 -0.0489
 1164POPI   GL117573   9.318   4.340   6.298  0.1059 -0.1400 -0.0219
 1164POPI   GL217574   9.392   4.034   6.499  0.2883 -0.2353  0.0148
 1164POPI   C1A17575   9.137   4.478   6.757  0.4394  0.1651  0.1014
 1164POPI   D2A17576   8.992   4.534   7.179 -0.0543  0.0000  0.1831
 1164POPI   C3A17577   9.006   4.581   7.612 -0.0027  0.1730 -0.0534
 1164POPI   C4A17578   9.076   4.580   8.017 -0.3047  0.1887 -0.0581
 1164POPI   C1B17579   9.437   4.136   6.894 -0.0530 -0.0208  0.0868
 1164POPI   C2B17580   9.511   4.121   7.348 -0.1911 -0.3544  0.1136
 1164POPI   C3B17581   9.370   4.213   7.810 -0.1103  0.0436  0.0574
 1164POPI   C4B17582   9.547   4.225   8.250  0.3969 -0.2501 -0.0327
 1165POPI    C117583  10.992   1.272   6.181 -0.0207 -0.0419 -0.0546
 1165POPI    C217584  10.769   1.344   5.856  0.0288  0.2639 -0.0236
 1165POPI    C317585  11.137   1.499   5.885  0.0783  0.1231  0.1180
 1165POPI   PO417586  10.861   1.300   6.395  0.0836  0.2791  0.0142
 1165POPI   GL117587  10.960   1.217   6.725  0.1858  0.2721  0.0052
 1165POPI   GL217588  10.644   0.951   6.844  0.1387 -0.2247  0.0446
 1165POPI   C1A17589  10.824   1.246   7.155  0.1907 -0.0503 -0.1756
 1165POPI   D2A17590  10.829   1.272   7.598  0.0248  0.1765  0.0832
 1165POPI   C3A17591  10.724   1.317   7.966 -0.3235 -0.1021 -0.1335
 1165POPI   C4A17592  10.834   1.786   8.059  0.0497 -0.0214  0.0623
 1165POPI   C1B17593  10.654   0.864   7.353  0.1488  0.1543 -0.0505
 1165POPI   C2B17594  10.690   0.848   7.766  0.1936  0.1799 -0.0539
 1165POPI   C3B17595  10.685   0.849   8.208 -0.0096  0.0212  0.1857
 1165POPI   C4B17596  10.674   0.653   8.545 -0.5227  0.1316  0.3068
 1166POPI    C117597  12.219   8.227   5.809  0.0833 -0.0910  0.1631
 1166POPI    C217598  12.438   8.387   5.515  0.1450  0.0169  0.2671
 1166POPI    C317599  12.094   8.203   5.429  0.2444 -0.0979  0.1098
 1166POPI   PO417600  12.206   8.460   5.991  0.0386  0.1889 -0.0946
 1166POPI   GL117601  11.966   8.717   6.311  0.0718 -0.1170 -0.2112
 1166POPI   GL217602  11.650   8.533   6.302  0.3169 -0.1754 -0.2200
 1166POPI   C1A17603  11.977   8.656   6.756 -0.1251  0.0588 -0.1944
 1166POPI   D2A17604  12.031   8.691   7.243 -0.2129 -0.0551  0.3273
 1166POPI   C3A17605  11.994   8.631   7.629 -0.0652  0.2445 -0.0172
 1166POPI   C4A17606  11.885   8.455   7.960 -0.1291 -0.0829 -0.1673
 1166POPI   C1B17607  11.523   8.548   6.641 -0.1533 -0.2233 -0.2672
 1166POPI   C2B17608  11.531   8.468   7.087  0.0210 -0.0180  0.0772
 1166POPI   C3B17609  11.511   8.486   7.526  0.3372 -0.0017  0.1395
 1166POPI   C4B17610  11.394   8.438   8.031  0.1297  0.2062  0.0161
 1167POPI    C117611   5.484   8.653   5.583 -0.0312  0.0530 -0.1455
 1167POPI    C217612   5.523   9.013   5.414 -0.1425  0.0414 -0.1967
 1167POPI    C317613   5.615   8.684   5.206 -0.2112  0.0311 -0.2110
 1167POPI   PO417614   5.585   8.608   5.833 -0.0410 -0.0729 -0.0965
 1167POPI   GL117615   5.559   8.839   6.171  0.1199 -0.0608  0.1675
 1167POPI   GL217616   5.529   9.066   6.282  0.0128  0.0363  0.0032
 1167POPI   C1A17617   5.186   8.805   6.513  0.2495  0.0228 -0.0408
 1167POPI   D2A17618   5.265   8.910   6.937  0.0614 -0.2594  0.1003
 1167POPI   C3A17619   5.112   8.906   7.401 -0.0060  0.1258 -0.2357
 1167POPI   C4A17620   5.088   8.825   7.857  0.1727  0.1247 -0.0384
 1167POPI   C1B17621   5.655   9.122   6.598 -0.0184 -0.3368  0.1332
 1167POPI   C2B17622   5.689   9.088   7.055 -0.1680  0.1294 -0.1107
 1167POPI   C3B17623   5.634   9.108   7.448 -0.4649 -0.1735  0.0451
 1167POPI   C4B17624   5.593   8.934   7.856  0.1134  0.1271  0.1358
 1168POPI    C117625  14.150  14.843   6.306 -0.1319 -0.2323  0.0283
 1168POPI    C217626  14.064  14.723   5.934  0.1598 -0.0883 -0.0894
 1168POPI    C317627  14.362  14.982   5.997  0.1666 -0.1737  0.2543
 1168POPI   PO417628  14.200  14.692   6.534 -0.2416 -0.0480  0.0020
 1168POPI   GL117629  14.454  14.804   6.822 -0.1197  0.1598 -0.1828
 1168POPI   GL217630  14.554  14.978   6.963 -0.3027 -0.0953 -0.3947
 1168POPI   C1A17631  14.381  14.573   7.180  0.3035  0.0732 -0.0653
 1168POPI   D2A17632  14.109  14.243   7.336 -0.3553  0.0321  0.0011
 1168POPI   C3A17633  14.042  13.954   7.631 -0.0887  0.1274 -0.3110
 1168POPI   C4A17634  14.129  13.845   8.081  0.2267 -0.1123 -0.5199
 1168POPI   C1B17635  14.566  14.999   7.426  0.2131  0.0094 -0.1001
 1168POPI   C2B17636  14.649  14.834   7.823  0.2090  0.1690 -0.2140
 1168POPI   C3B17637  14.460  14.679   8.148 -0.0315  0.1165 -0.0549
 1168POPI   C4B17638  14.475  14.508   8.646  0.2676 -0.1245 -0.1942
 1169POPI    C117639  16.107  17.415   6.238 -0.1885 -0.0638  0.1137
 1169POPI    C217640  15.857  17.313   5.944 -0.3080  0.1219  0.1488
 1169POPI    C317641  16.164  17.074   6.037 -0.1616  0.1487 -0.2469
 1169POPI   PO417642  15.959  17.523   6.435 -0.0918 -0.1421  0.2940
 1169POPI   GL117643  15.976  17.535   6.815  0.0924 -0.2818 -0.1869
 1169POPI   GL217644  16.269  17.445   6.904 -0.1423  0.1169  0.1851
 1169POPI   C1A17645  15.801  17.694   7.241  0.1226  0.1208 -0.0752
 1169POPI   D2A17646  15.873  17.885   7.681  0.2588 -0.0668 -0.2533
 1169POPI   C3A17647  15.716  18.031   8.192  0.0802 -0.1300  0.0733
 1169POPI   C4A17648  15.905  18.243   8.514  0.1806 -0.0120  0.2037
 1169POPI   C1B17649  16.533  17.309   7.296  0.0156 -0.2648  0.0361
 1169POPI   C2B17650  16.809  17.582   7.616 -0.1707  0.0325 -0.3467
 1169POPI   C3B17651  16.793  17.868   7.933  0.2541  0.3997 -0.0915
 1169POPI   C4B17652  16.670  17.989   8.333  0.0557  0.1151  0.3386
 1170POPI    C117653   7.020  15.732   5.929  0.0678  0.0610  0.2803
 1170POPI    C217654   7.347  15.852   5.731 -0.0900  0.2605  0.1364
 1170POPI    C317655   7.004  15.791   5.533 -0.2209  0.3532  0.3306
 1170POPI   PO417656   7.047  15.848   6.149  0.0455  0.2575 -0.0888
 1170POPI   GL117657   7.030  16.057   6.447 -0.2556  0.0560  0.0441
 1170POPI   GL217658   7.387  16.020   6.606  0.4524  0.0923 -0.0239
 1170POPI   C1A17659   6.944  16.284   6.789 -0.1089  0.2241 -0.1349
 1170POPI   D2A17660   6.750  16.259   7.099  0.1469 -0.1267 -0.1371
 1170POPI   C3A17661   6.717  16.311   7.524  0.0085 -0.2502 -0.0812
 1170POPI   C4A17662   6.611  16.453   7.971  0.0187 -0.2004  0.0016
 1170POPI   C1B17663   7.299  16.033   7.025 -0.1180  0.4222 -0.1900
 1170POPI   C2B17664   7.124  15.921   7.448  0.2492  0.0208 -0.3039
 1170POPI   C3B17665   7.058  16.010   7.881  0.0451  0.0274 -0.2292
 1170POPI   C4B17666   7.095  16.106   8.291 -0.1830 -0.1046  0.0439
 1171POPI    C117667   7.158   0.664   5.800  0.2175 -0.0354 -0.0751
 1171POPI    C217668   7.192   0.294   5.651 -0.2051 -0.1638  0.1321
 1171POPI    C317669   6.877   0.521   5.554  0.2864  0.3338 -0.3773
 1171POPI   PO417670   7.223   0.694   6.108 -0.0148 -0.1512  0.2661
 1171POPI   GL117671   7.516   0.655   6.356  0.2461 -0.1586 -0.0976
 1171POPI   GL217672   7.548   0.912   6.462 -0.0609 -0.1392 -0.1522
 1171POPI   C1A17673   7.408   0.547   6.745 -0.1644  0.0891  0.0132
 1171POPI   D2A17674   7.394   0.633   7.101  0.2668 -0.1192  0.3785
 1171POPI   C3A17675   7.381   0.544   7.504 -0.1424 -0.1405 -0.2775
 1171POPI   C4A17676   7.345   0.602   7.992 -0.1854  0.0740 -0.2105
 1171POPI   C1B17677   7.519   1.072   6.817  0.0471  0.1684 -0.0326
 1171POPI   C2B17678   7.477   1.129   7.228 -0.1671 -0.0106  0.1149
 1171POPI   C3B17679   7.499   1.016   7.727 -0.0983  0.3103 -0.0795
 1171POPI   C4B17680   7.389   1.130   8.174  0.3301 -0.0894  0.0293
 1172POPI    C117681  14.944  13.331   6.207 -0.1644  0.1105  0.1017
 1172POPI    C217682  15.129  13.662   6.079  0.1432 -0.2381 -0.3918
 1172POPI    C317683  14.750  13.591   5.974  0.0553 -0.0183 -0.2318
 1172POPI   PO417684  15.043  13.340   6.427  0.1502  0.1018  0.0998
 1172POPI   GL117685  15.325  13.367   6.821 -0.2596  0.1177 -0.1295
 1172POPI   GL217686  15.431  13.664   6.950 -0.1226  0.2508 -0.2569
 1172POPI   C1A17687  15.606  13.218   7.151 -0.2536  0.1505 -0.2392
 1172POPI   D2A17688  15.762  13.270   7.638  0.2337  0.0324 -0.0045
 1172POPI   C3A17689  15.998  13.658   7.704 -0.4096  0.0465  0.0341
 1172POPI   C4A17690  16.197  13.942   7.454 -0.1544 -0.1123 -0.2389
 1172POPI   C1B17691  15.301  13.601   7.346 -0.0278  0.2614 -0.1649
 1172POPI   C2B17692  15.284  13.558   7.712 -0.3211  0.1448  0.1142
 1172POPI   C3B17693  15.536  13.516   8.102  0.0880  0.2111  0.2777
 1172POPI   C4B17694  15.508  13.262   8.482  0.0012  0.2153 -0.2220
 1173POPI    C117695  11.992  15.823   6.195 -0.0851 -0.2278 -0.0171
 1173POPI    C217696  11.772  15.541   6.016 -0.2810 -0.0155 -0.1152
 1173POPI    C317697  12.037  15.752   5.804 -0.0895 -0.1661 -0.0289
 1173POPI   PO417698  12.136  15.725   6.513 -0.0040  0.3281  0.0509
 1173POPI   GL117699  12.431  15.845   6.719 -0.1153  0.0879 -0.0753
 1173POPI   GL217700  12.724  15.861   6.800  0.0525  0.0094  0.0520
 1173POPI   C1A17701  12.363  15.879   7.141 -0.2442  0.1997  0.0049
 1173POPI   D2A17702  12.259  15.909   7.577 -0.0375 -0.0543 -0.2415
 1173POPI   C3A17703  12.500  16.138   7.915 -0.2017 -0.0481  0.0399
 1173POPI   C4A17704  12.810  16.334   8.090 -0.1078 -0.0073  0.0482
 1173POPI   C1B17705  12.945  16.079   7.155 -0.0866 -0.1214 -0.0660
 1173POPI   C2B17706  13.017  16.096   7.647  0.1884  0.1075  0.0503
 1173POPI   C3B17707  12.970  15.827   8.025 -0.0694 -0.1705  0.2787
 1173POPI   C4B17708  12.766  15.892   8.412  0.0239  0.2340 -0.1126
 1174POPI    C117709  16.989  15.729   6.051  0.0481  0.0483 -0.0443
 1174POPI    C217710  17.090  15.433   5.802 -0.0388 -0.1187  0.1169
 1174POPI    C317711  17.148  15.814   5.694 -0.1532 -0.1861 -0.1926
 1174POPI   PO417712  17.050  15.655   6.320 -0.1713  0.3708  0.1518
 1174POPI   GL117713  17.438  15.823   6.594 -0.0523  0.5067  0.3500
 1174POPI   GL217714  17.393  16.221   6.747 -0.0445 -0.0407 -0.1805
 1174POPI   C1A17715  17.598  15.688   6.904 -0.0557  0.0599  0.1491
 1174POPI   D2A17716  17.996  15.686   7.183  0.1130 -0.0681  0.0907
 1174POPI   C3A17717  18.102  15.224   7.454  0.1287 -0.1414  0.1194
 1174POPI   C4A17718  17.971  15.072   7.701 -0.0478 -0.0641 -0.0445
 1174POPI   C1B17719  17.294  16.187   7.260  0.2018 -0.1899  0.1611
 1174POPI   C2B17720  17.321  16.149   7.698  0.0628  0.0160 -0.2304
 1174POPI   C3B17721  17.268  16.238   8.137 -0.4429  0.1980  0.1689
 1174POPI   C4B17722  17.332  16.038   8.558  0.1368  0.1736  0.0231
 1175POPI    C117723   0.995  12.260   5.955 -0.1124 -0.1538  0.1598
 1175POPI    C217724   0.829  12.545   6.180 -0.1069 -0.0523  0.0360
 1175POPI    C317725   0.697  12.482   5.808  0.1229  0.0222 -0.0598
 1175POPI   PO417726   0.944  11.930   6.043 -0.2568 -0.1999 -0.4077
 1175POPI   GL117727   0.687  11.828   6.310  0.1899 -0.0767 -0.2058
 1175POPI   GL217728   0.556  11.566   6.431 -0.0126 -0.1167 -0.3823
 1175POPI   C1A17729   0.568  12.072   6.587  0.1354 -0.2200  0.0095
 1175POPI   D2A17730   0.277  12.244   6.829 -0.1651 -0.0061 -0.3359
 1175POPI   C3A17731   0.468  12.419   7.258 -0.2731 -0.3328  0.2130
 1175POPI   C4A17732   0.715  12.483   7.611  0.2930  0.3774  0.2039
 1175POPI   C1B17733   0.526  11.659   6.842 -0.2175  0.0509 -0.2388
 1175POPI   C2B17734   0.519  11.799   7.238  0.0218  0.0001  0.2425
 1175POPI   C3B17735   0.556  11.905   7.615  0.1151 -0.2080 -0.1678
 1175POPI   C4B17736   0.559  12.063   7.958  0.0943 -0.1945  0.0654
 1176POPI    C117737  14.018   5.210   6.058 -0.0078 -0.3435 -0.1629
 1176POPI    C217738  14.053   5.466   5.752 -0.0181 -0.1767 -0.0261
 1176POPI    C317739  14.226   5.106   5.733 -0.0071 -0.1619 -0.2221
 1176POPI   PO417740  14.058   5.329   6.324  0.1723  0.1971  0.1037
 1176POPI   GL117741  13.835   5.368   6.676 -0.1663 -0.0355 -0.1480
 1176POPI   GL217742  13.741   5.120   6.674  0.0467  0.4834  0.0751
 1176POPI   C1A17743  14.020   5.670   6.978 -0.3783  0.0050  0.0467
 1176POPI   D2A17744  14.161   5.710   7.310  0.0994  0.1995  0.1314
 1176POPI   C3A17745  14.284   5.546   7.677  0.1034  0.0115 -0.0646
 1176POPI   C4A17746  14.355   5.536   8.109 -0.0018  0.2157  0.3469
 1176POPI   C1B17747  13.733   5.334   7.157 -0.0615 -0.2063  0.0049
 1176POPI   C2B17748  13.627   5.359   7.592  0.0419  0.0294 -0.1774
 1176POPI   C3B17749  13.765   5.354   8.024  0.0789  0.0158  0.0200
 1176POPI   C4B17750  13.905   5.439   8.457  0.1015  0.2995 -0.1566
 1177POPI    C117751   5.434  15.617   5.964  0.2279  0.0707 -0.1634
 1177POPI    C217752   5.593  15.526   5.608  0.0540 -0.0700 -0.2072
 1177POPI    C317753   5.313  15.290   5.767  0.4021 -0.2213  0.2021
 1177POPI   PO417754   5.617  15.809   6.103 -0.1364  0.0687  0.2122
 1177POPI   GL117755   5.630  15.937   6.509  0.1012  0.0476  0.0848
 1177POPI   GL217756   5.240  16.143   6.415  0.0082  0.2241  0.1631
 1177POPI   C1A17757   5.706  16.010   6.989  0.0857  0.1498  0.2011
 1177POPI   D2A17758   5.760  15.985   7.442  0.1042  0.0998 -0.2216
 1177POPI   C3A17759   5.742  15.928   7.860  0.1056  0.0772  0.1787
 1177POPI   C4A17760   5.679  15.872   8.354 -0.2807 -0.2093 -0.0274
 1177POPI   C1B17761   5.279  16.273   6.817  0.1809  0.1355 -0.0913
 1177POPI   C2B17762   5.363  16.294   7.272 -0.1342  0.3123  0.0445
 1177POPI   C3B17763   5.349  16.207   7.664 -0.1334  0.1339 -0.2830
 1177POPI   C4B17764   5.271  16.257   8.089  0.4939 -0.2278  0.0427
 1178POPI    C117765  15.319  14.502   6.455 -0.1276 -0.0278 -0.2194
 1178POPI    C217766  15.379  14.875   6.324  0.1063 -0.0172 -0.0892
 1178POPI    C317767  15.138  14.628   6.122 -0.0095  0.1867 -0.2045
 1178POPI   PO417768  15.239  14.414   6.655  0.1290  0.0763  0.2151
 1178POPI   GL117769  15.359  14.153   6.969 -0.2421 -0.3040  0.0381
 1178POPI   GL217770  15.659  14.270   6.900  0.4231  0.0722  0.2257
 1178POPI   C1A17771  15.386  14.473   7.305 -0.0185 -0.1410  0.2810
 1178POPI   D2A17772  15.379  14.386   7.753  0.0436 -0.3271  0.1622
 1178POPI   C3A17773  15.507  14.614   8.091 -0.1313  0.2819 -0.1208
 1178POPI   C4A17774  15.494  14.969   8.198 -0.0757 -0.2077 -0.1260
 1178POPI   C1B17775  15.866  14.287   7.282  0.2881  0.1265  0.0736
 1178POPI   C2B17776  15.873  14.332   7.652 -0.0672  0.2690  0.2983
 1178POPI   C3B17777  15.980  14.633   7.901  0.1848 -0.0341 -0.1932
 1178POPI   C4B17778  15.998  14.902   8.178  0.2027 -0.2146  0.2616
 1179POPI    C117779  10.444   6.484   5.885  0.1072 -0.0474  0.0318
 1179POPI    C217780  10.617   6.845   5.904  0.1509 -0.0626 -0.0671
 1179POPI    C317781  10.528   6.685   5.549  0.1314 -0.1492 -0.0235
 1179POPI   PO417782  10.252   6.481   6.125  0.4070  0.1781  0.0125
 1179POPI   GL117783  10.124   6.432   6.518  0.0406 -0.2685  0.2417
 1179POPI   GL217784  10.401   6.740   6.562  0.0429  0.1528  0.0279
 1179POPI   C1A17785  10.118   6.582   6.889  0.0160 -0.0566 -0.0375
 1179POPI   D2A17786   9.922   6.940   7.109  0.0611 -0.1318 -0.1192
 1179POPI   C3A17787   9.890   6.908   7.505  0.0393  0.2589  0.3171
 1179POPI   C4A17788   9.776   6.666   7.887 -0.0325  0.2741  0.0132
 1179POPI   C1B17789  10.549   6.933   6.926  0.1461  0.0736  0.0020
 1179POPI   C2B17790  10.370   6.971   7.368  0.1270 -0.0823 -0.0224
 1179POPI   C3B17791  10.362   7.037   7.805 -0.2618 -0.3677 -0.4728
 1179POPI   C4B17792  10.441   7.148   8.271 -0.0938  0.2382  0.0062
 1180POPI    C117793  14.663   7.545   5.667  0.0146  0.0717 -0.0238
 1180POPI    C217794  14.834   7.876   5.519  0.0504 -0.0096 -0.1657
 1180POPI    C317795  15.045   7.537   5.549  0.0795  0.0359  0.1844
 1180POPI   PO417796  14.610   7.520   5.967  0.2305  0.1144 -0.1140
 1180POPI   GL117797  14.813   7.362   6.359  0.1015 -0.1137 -0.0390
 1180POPI   GL217798  15.072   7.307   6.605 -0.0287  0.1084  0.0771
 1180POPI   C1A17799  14.701   7.217   6.864  0.0359  0.1101  0.0750
 1180POPI   D2A17800  14.659   7.195   7.282 -0.1004 -0.0330 -0.1782
 1180POPI   C3A17801  14.570   7.201   7.644  0.2597 -0.0605  0.0491
 1180POPI   C4A17802  14.492   7.106   8.063 -0.0613  0.2698  0.0277
 1180POPI   C1B17803  15.179   7.289   7.023 -0.4078  0.2519 -0.1105
 1180POPI   C2B17804  15.105   7.307   7.489 -0.1982 -0.0763 -0.0350
 1180POPI   C3B17805  14.955   7.271   7.939  0.1219  0.0251  0.2088
 1180POPI   C4B17806  14.945   7.236   8.358 -0.0291 -0.0400 -0.0727
 1181POPI    C117807  13.706  15.338   6.343 -0.0273 -0.1156  0.0711
 1181POPI    C217808  13.977  15.598   6.482 -0.0948  0.0086 -0.0276
 1181POPI    C317809  14.074  15.348   6.185 -0.0928  0.0643 -0.0739
 1181POPI   PO417810  13.599  15.311   6.579  0.2663 -0.1601 -0.0006
 1181POPI   GL117811  13.627  15.268   7.005  0.0404 -0.2615  0.1869
 1181POPI   GL217812  13.443  14.995   7.155 -0.1601  0.2294  0.3085
 1181POPI   C1A17813  13.406  15.400   7.438 -0.2501  0.1972  0.2890
 1181POPI   D2A17814  13.176  15.616   7.637 -0.0337  0.1179 -0.5007
 1181POPI   C3A17815  13.275  15.494   8.163 -0.1321  0.2983 -0.0672
 1181POPI   C4A17816  13.492  15.701   8.516 -0.1170  0.2923  0.1837
 1181POPI   C1B17817  13.234  14.900   7.571 -0.1980 -0.0001  0.1062
 1181POPI   C2B17818  12.991  15.119   7.964  0.0133  0.3633 -0.0579
 1181POPI   C3B17819  12.972  15.215   8.442 -0.2749  0.0321 -0.1150
 1181POPI   C4B17820  12.786  15.149   8.814 -0.1570  0.0774  0.0424
 1182POPI    C117821   6.034   0.050   5.761  0.0635  0.1433  0.1253
 1182POPI    C217822   6.180  -0.286   5.600 -0.0985  0.0986  0.0708
 1182POPI    C317823   5.810  -0.280   5.752 -0.1147  0.2655  0.0275
 1182POPI   PO417824   6.189   0.172   6.098  0.0745  0.1819  0.0757
 1182POPI   GL117825   6.438  -0.007   6.447  0.2441  0.0039  0.0685
 1182POPI   GL217826   6.083  -0.078   6.608 -0.1828 -0.3663 -0.0479
 1182POPI   C1A17827   6.485   0.216   6.871 -0.3426  0.2581  0.2135
 1182POPI   D2A17828   6.496   0.240   7.259 -0.4009  0.1099 -0.1403
 1182POPI   C3A17829   6.451   0.166   7.665  0.0260 -0.0800  0.2170
 1182POPI   C4A17830   6.365   0.203   8.167  0.1716 -0.1872  0.3458
 1182POPI   C1B17831   6.010   0.031   7.064  0.1872 -0.1676 -0.0912
 1182POPI   C2B17832   5.996  -0.037   7.445 -0.1425  0.4021  0.0347
 1182POPI   C3B17833   6.009  -0.038   7.813  0.1110 -0.1655  0.0237
 1182POPI   C4B17834   5.875   0.097   8.208  0.1486  0.2995  0.0919
 1183POPI    C117835   9.046   2.061   5.985 -0.0669  0.1417 -0.0022
 1183POPI    C217836   9.137   1.676   5.930  0.0385  0.1345  0.2117
 1183POPI    C317837   9.225   1.945   5.647 -0.1048 -0.0083  0.0287
 1183POPI   PO417838   9.107   2.092   6.263 -0.1146 -0.2965  0.1654
 1183POPI   GL117839   9.147   2.086   6.648  0.0352 -0.3178 -0.1845
 1183POPI   GL217840   9.509   2.162   6.674 -0.0754 -0.0311 -0.0429
 1183POPI   C1A17841   9.015   2.174   7.055  0.3864  0.0362 -0.1070
 1183POPI   D2A17842   8.937   2.103   7.542 -0.2045 -0.2750  0.1958
 1183POPI   C3A17843   9.143   2.165   7.945 -0.2006 -0.1612  0.0077
 1183POPI   C4A17844   9.086   2.159   8.437  0.0852 -0.0706 -0.1353
 1183POPI   C1B17845   9.472   2.312   7.168  0.0926  0.3926  0.1024
 1183POPI   C2B17846   9.459   2.287   7.600 -0.3103 -0.1951 -0.1524
 1183POPI   C3B17847   9.630   2.302   8.054  0.2931  0.0496  0.1380
 1183POPI   C4B17848   9.561   2.495   8.420 -0.3616  0.1248 -0.1525
 1184POPI    C117849  13.672   3.922   5.785 -0.3100  0.0842 -0.2247
 1184POPI    C217850  13.755   4.303   5.693 -0.0841  0.0898 -0.0068
 1184POPI    C317851  13.997   4.010   5.568 -0.0685  0.0499  0.1157
 1184POPI   PO417852  13.499   3.974   6.037  0.1051  0.1138  0.2323
 1184POPI   GL117853  13.577   4.047   6.474  0.1229  0.3064  0.3247
 1184POPI   GL217854  13.496   3.788   6.535 -0.2451 -0.2772  0.0707
 1184POPI   C1A17855  13.610   4.183   6.937  0.0450 -0.1477 -0.1723
 1184POPI   D2A17856  13.462   4.360   7.366 -0.0895  0.4088 -0.3111
 1184POPI   C3A17857  13.610   4.290   7.746 -0.1548 -0.1308 -0.1191
 1184POPI   C4A17858  13.758   4.327   8.229  0.1198  0.0564  0.2535
 1184POPI   C1B17859  13.592   3.667   6.990  0.2626  0.0297 -0.3183
 1184POPI   C2B17860  13.492   3.869   7.509  0.2565  0.1451 -0.2393
 1184POPI   C3B17861  13.524   3.804   7.944  0.1073 -0.1221 -0.2469
 1184POPI   C4B17862  13.552   3.748   8.336  0.1971 -0.2635 -0.0207
 1185POPI    C117863   7.369  15.320   5.841  0.0438 -0.0147  0.0633
 1185POPI    C217864   7.033  15.302   5.624 -0.0268 -0.2740  0.1902
 1185POPI    C317865   7.376  15.159   5.474  0.0993  0.2663 -0.0617
 1185POPI   PO417866   7.298  15.376   6.077  0.0474  0.1167 -0.1865
 1185POPI   GL117867   7.510  15.578   6.456  0.3481 -0.1538 -0.2548
 1185POPI   GL217868   7.189  15.496   6.566 -0.0579  0.0089  0.2268
 1185POPI   C1A17869   7.639  15.672   6.895  0.0973  0.2672 -0.4935
 1185POPI   D2A17870   7.585  15.675   7.386 -0.0546 -0.1300 -0.1756
 1185POPI   C3A17871   7.399  15.693   7.836 -0.0248 -0.0761  0.1560
 1185POPI   C4A17872   7.417  15.667   8.308  0.0067  0.2284 -0.1820
 1185POPI   C1B17873   7.167  15.546   7.029 -0.1109  0.0504  0.1596
 1185POPI   C2B17874   7.101  15.415   7.416  0.2294 -0.1751 -0.1408
 1185POPI   C3B17875   6.927  15.445   7.762 -0.0166  0.3159  0.3409
 1185POPI   C4B17876   6.947  15.486   8.139 -0.1039  0.1508  0.0187
 1186POPI    C117877   2.229   1.999   5.652  0.1373  0.0276 -0.0402
 1186POPI    C217878   1.916   1.990   5.405 -0.0632  0.4422  0.1886
 1186POPI    C317879   1.946   1.721   5.699 -0.0403  0.2090 -0.0241
 1186POPI   PO417880   2.206   2.250   5.751 -0.3928  0.0472  0.1522
 1186POPI   GL117881   2.243   2.299   6.191 -0.0450  0.0962 -0.0223
 1186POPI   GL217882   2.575   2.345   6.348  0.1836 -0.0299 -0.0602
 1186POPI   C1A17883   2.068   2.431   6.543  0.4433 -0.1103 -0.0161
 1186POPI   D2A17884   2.134   2.294   6.990 -0.1765  0.1721 -0.3590
 1186POPI   C3A17885   2.284   2.377   7.426  0.1113 -0.6064 -0.0945
 1186POPI   C4A17886   2.299   2.348   7.772  0.1284 -0.0034  0.2885
 1186POPI   C1B17887   2.553   2.350   6.713 -0.3553  0.1405 -0.1117
 1186POPI   C2B17888   2.623   2.537   7.068 -0.2082 -0.0029  0.1105
 1186POPI   C3B17889   2.751   2.521   7.503 -0.1438 -0.0439 -0.1070
 1186POPI   C4B17890   2.692   2.466   7.945 -0.1279  0.2385 -0.1425
 1187POPI    C117891  12.569   6.523   5.844  0.1791 -0.0293  0.1175
 1187POPI    C217892  12.409   6.157   5.868  0.0297  0.0178 -0.1304
 1187POPI    C317893  12.806   6.203   5.882  0.0490 -0.1541 -0.0999
 1187POPI   PO417894  12.469   6.690   6.055 -0.2752  0.1102 -0.0961
 1187POPI   GL117895  12.375   6.811   6.474 -0.3276  0.1284 -0.1795
 1187POPI   GL217896  12.602   6.989   6.676  0.1643 -0.1999 -0.2556
 1187POPI   C1A17897  12.136   6.730   6.822 -0.1462 -0.1096 -0.4803
 1187POPI   D2A17898  12.184   6.892   7.219  0.2657 -0.0633  0.0634
 1187POPI   C3A17899  12.161   6.669   7.527 -0.1219 -0.0016  0.4386
 1187POPI   C4A17900  12.078   6.651   7.916  0.0888  0.0021  0.0679
 1187POPI   C1B17901  12.688   6.944   7.087 -0.0449 -0.1953 -0.0191
 1187POPI   C2B17902  12.624   6.909   7.585 -0.0619 -0.1542  0.2959
 1187POPI   C3B17903  12.560   6.791   8.061 -0.2931  0.0394  0.1770
 1187POPI   C4B17904  12.521   6.887   8.492 -0.0989 -0.2044 -0.0235
 1188POPI    C117905  15.485  16.649   6.752 -0.1378  0.0415 -0.2896
 1188POPI    C217906  15.746  16.420   6.554  0.0276  0.0196 -0.0503
 1188POPI    C317907  15.875  16.734   6.766 -0.1748  0.2005 -0.1905
 1188POPI   PO417908  15.221  16.565   6.863  0.1924  0.2121  0.2439
 1188POPI   GL117909  15.261  16.484   7.339  0.1026 -0.3334 -0.3191
 1188POPI   GL217910  15.322  16.848   7.323  0.0188  0.1642 -0.0391
 1188POPI   C1A17911  15.310  16.401   7.744 -0.1056  0.5187  0.3938
 1188POPI   D2A17912  15.086  16.241   8.166  0.3584  0.0097  0.0998
 1188POPI   C3A17913  15.123  16.033   8.531  0.1185 -0.0534 -0.1236
 1188POPI   C4A17914  14.996  15.985   8.920 -0.0484  0.1613 -0.1927
 1188POPI   C1B17915  15.253  16.986   7.730  0.0660  0.0626  0.0219
 1188POPI   C2B17916  15.197  16.704   8.115 -0.1297 -0.4093 -0.0108
 1188POPI   C3B17917  14.982  17.130   8.320  0.1564  0.4666  0.2480
 1188POPI   C4B17918  14.955  17.508   8.585 -0.0170 -0.1366  0.1639
 1189POPI    C117919   5.172  16.518   5.861  0.0174 -0.0924 -0.0021
 1189POPI    C217920   5.180  16.118   5.878 -0.0885 -0.1000 -0.1220
 1189POPI    C317921   5.328  16.308   5.558  0.0659 -0.0382 -0.0147
 1189POPI   PO417922   5.168  16.563   6.151  0.0209  0.0579  0.1080
 1189POPI   GL117923   4.954  16.684   6.471 -0.0080 -0.2179 -0.0416
 1189POPI   GL217924   5.021  17.016   6.462 -0.0582  0.0454 -0.0038
 1189POPI   C1A17925   4.909  16.628   6.837 -0.0641  0.1913  0.2349
 1189POPI   D2A17926   4.886  16.631   7.315  0.0191 -0.1038  0.0571
 1189POPI   C3A17927   4.954  16.593   7.744 -0.0325  0.0268 -0.2627
 1189POPI   C4A17928   4.899  16.593   8.057  0.2241  0.3133 -0.1008
 1189POPI   C1B17929   5.011  17.107   6.925 -0.1999 -0.1336 -0.2393
 1189POPI   C2B17930   5.078  17.173   7.420  0.4373 -0.1057 -0.1440
 1189POPI   C3B17931   5.049  17.104   7.875  0.1817 -0.1632 -0.1714
 1189POPI   C4B17932   4.891  17.105   8.273  0.1197  0.0072 -0.0640
 1190POPI    C117933   3.228  10.989   5.463 -0.0294  0.0551  0.0356
 1190POPI    C217934   2.922  11.150   5.262  0.0922  0.1146 -0.1041
 1190POPI    C317935   3.272  11.090   5.078  0.1219 -0.0847  0.0150
 1190POPI   PO417936   3.110  11.028   5.739 -0.0300 -0.2117  0.2790
 1190POPI   GL117937   3.177  11.153   6.203 -0.3269  0.1177  0.0415
 1190POPI   GL217938   2.849  11.142   6.146 -0.2073  0.1196  0.0992
 1190POPI   C1A17939   3.097  11.038   6.637 -0.2407  0.1852  0.1368
 1190POPI   D2A17940   3.222  10.961   6.959  0.3254 -0.1492 -0.0248
 1190POPI   C3A17941   3.160  11.030   7.435 -0.0771 -0.1465  0.1138
 1190POPI   C4A17942   3.094  10.955   7.947  0.2374  0.0409  0.1915
 1190POPI   C1B17943   2.673  11.227   6.466  0.2343  0.4223 -0.1951
 1190POPI   C2B17944   2.712  11.347   6.927 -0.0689  0.0498  0.3402
 1190POPI   C3B17945   2.743  11.428   7.297 -0.1746  0.0181  0.0879
 1190POPI   C4B17946   2.836  11.344   7.723  0.0368 -0.1171  0.1117
 1191POPI    C117947   4.668   7.369   5.758  0.1119  0.1084  0.0928
 1191POPI    C217948   5.041   7.312   5.624  0.0677  0.0418 -0.0027
 1191POPI    C317949   4.732   7.141   5.436 -0.0128  0.1100  0.0664
 1191POPI   PO417950   4.628   7.330   5.953  0.1529  0.0123  0.0364
 1191POPI   GL117951   4.326   7.267   6.203  0.0598 -0.0123  0.1172
 1191POPI   GL217952   4.135   7.051   6.238 -0.1070  0.2298  0.0237
 1191POPI   C1A17953   4.142   7.404   6.650 -0.0619  0.0331 -0.1554
 1191POPI   D2A17954   4.074   7.410   7.071  0.0118  0.1766 -0.1220
 1191POPI   C3A17955   3.854   7.398   7.542 -0.2892  0.4994 -0.0881
 1191POPI   C4A17956   3.829   7.514   7.955  0.0938 -0.0020 -0.0131
 1191POPI   C1B17957   4.045   6.862   6.632  0.0956  0.4129 -0.1552
 1191POPI   C2B17958   3.993   6.839   7.087 -0.0160 -0.1046  0.2025
 1191POPI   C3B17959   3.831   6.899   7.518  0.0339  0.1419 -0.0372
 1191POPI   C4B17960   3.714   7.028   7.952 -0.0118  0.0605 -0.2951
 1192POPI    C117961   1.874   3.486   5.731  0.0303  0.1257 -0.0418
 1192POPI    C217962   1.902   3.321   5.367 -0.0701 -0.0027  0.0078
 1192POPI    C317963   2.070   3.677   5.439 -0.1283  0.0660 -0.1894
 1192POPI   PO417964   1.934   3.230   5.885  0.1719  0.1291  0.1110
 1192POPI   GL117965   2.163   3.073   6.209  0.0937 -0.0540 -0.3230
 1192POPI   GL217966   2.235   3.273   6.551 -0.2281  0.0351  0.0138
 1192POPI   C1A17967   1.816   2.852   6.405  0.1690  0.2562  0.0569
 1192POPI   D2A17968   1.717   2.647   6.855 -0.2062 -0.3817 -0.2168
 1192POPI   C3A17969   1.787   2.621   7.306 -0.0575 -0.2294  0.3865
 1192POPI   C4A17970   1.742   2.738   7.707  0.4328 -0.3417 -0.1419
 1192POPI   C1B17971   2.263   3.392   6.997  0.2086  0.0938  0.0771
 1192POPI   C2B17972   2.492   3.314   7.352  0.3887 -0.0443 -0.0569
 1192POPI   C3B17973   2.439   3.348   7.783 -0.1838 -0.0502  0.0016
 1192POPI   C4B17974   2.325   3.370   8.168 -0.0632 -0.0775 -0.1980
 1193POPI    C117975  16.559  14.757   6.450  0.1259  0.4286  0.1863
 1193POPI    C217976  16.533  14.691   6.056 -0.1592  0.0809  0.2582
 1193POPI    C317977  16.868  14.597   6.254  0.0566  0.4348  0.0713
 1193POPI   PO417978  16.276  14.683   6.510 -0.0003 -0.0899 -0.1083
 1193POPI   GL117979  16.037  14.709   6.948  0.0775 -0.0391  0.1641
 1193POPI   GL217980  16.275  14.498   6.997 -0.0978  0.2216  0.0231
 1193POPI   C1A17981  15.759  14.806   7.325  0.0078 -0.4612  0.0000
 1193POPI   D2A17982  15.364  15.039   7.620  0.0626  0.0457  0.0232
 1193POPI   C3A17983  15.105  14.888   7.887 -0.2661  0.1888 -0.0981
 1193POPI   C4A17984  14.912  14.857   8.311  0.0112 -0.1998 -0.3553
 1193POPI   C1B17985  16.262  14.791   7.380 -0.0237  0.2694 -0.0807
 1193POPI   C2B17986  16.392  14.869   7.721 -0.1871  0.2427 -0.2442
 1193POPI   C3B17987  16.468  14.550   8.123  0.0484  0.1728  0.3001
 1193POPI   C4B17988  16.283  14.452   8.554  0.1352  0.2171  0.2549
 1194POPI    C117989  17.134  10.330   5.716  0.0733 -0.1328 -0.1714
 1194POPI    C217990  16.902  10.656   5.700  0.3973  0.1048 -0.1403
 1194POPI    C317991  16.904  10.396   5.396 -0.1756 -0.0930  0.0127
 1194POPI   PO417992  17.034  10.250   6.011 -0.0032  0.1054  0.1855
 1194POPI   GL117993  17.234  10.007   6.361 -0.1470 -0.1080 -0.0963
 1194POPI   GL217994  17.003   9.820   6.371  0.1720 -0.0642 -0.0049
 1194POPI   C1A17995  17.462  10.108   6.692 -0.3378  0.1976  0.0486
 1194POPI   D2A17996  17.437  10.213   7.000  0.1358 -0.0683 -0.2816
 1194POPI   C3A17997  17.371  10.137   7.383 -0.1135  0.0567  0.1993
 1194POPI   C4A17998  17.421  10.152   7.833 -0.0248  0.0388 -0.1256
 1194POPI   C1B17999  16.951   9.997   6.796 -0.0834 -0.1444  0.0641
 1194POPI   C2B18000  16.890   9.987   7.301 -0.1167  0.0293  0.1392
 1194POPI   C3B18001  16.936  10.036   7.705  0.1108  0.0994  0.3896
 1194POPI   C4B18002  16.843  10.016   8.129  0.3161  0.1411 -0.0255
 1195POPI    C118003  13.292   2.056   5.910 -0.0851  0.1970 -0.2487
 1195POPI    C218004  12.987   2.216   6.114 -0.0731 -0.1428  0.0450
 1195POPI    C318005  12.990   2.231   5.714 -0.2527  0.2531  0.0540
 1195POPI   PO418006  13.428   1.940   6.253 -0.0245  0.2221 -0.0203
 1195POPI   GL118007  13.585   1.703   6.590  0.1189  0.2349 -0.2027
 1195POPI   GL218008  13.295   1.542   6.687  0.0922  0.3073  0.0704
 1195POPI   C1A18009  13.786   1.807   7.013 -0.1137  0.1278 -0.5713
 1195POPI   D2A18010  13.697   1.717   7.433  0.1764  0.2151 -0.2284
 1195POPI   C3A18011  13.651   1.929   7.870 -0.3308 -0.0546  0.2203
 1195POPI   C4A18012  13.841   1.919   8.293  0.4591 -0.2031  0.5416
 1195POPI   C1B18013  13.326   1.542   7.086 -0.2861 -0.1204  0.0518
 1195POPI   C2B18014  13.209   1.565   7.459 -0.1508  0.2924  0.2378
 1195POPI   C3B18015  13.102   1.724   7.872  0.0840  0.0428 -0.1005
 1195POPI   C4B18016  13.010   1.726   8.261 -0.2682  0.0459  0.0685
 1196POPI    C118017   1.603   6.858   5.734 -0.0815  0.0775  0.1601
 1196POPI    C218018   1.663   7.197   5.937 -0.2049  0.1635  0.0546
 1196POPI    C318019   1.560   7.210   5.551 -0.1580  0.0043  0.0358
 1196POPI   PO418020   1.581   6.685   5.965  0.1212 -0.0455  0.1815
 1196POPI   GL118021   1.276   6.616   6.286 -0.3268 -0.0820 -0.1711
 1196POPI   GL218022   1.179   6.282   6.314 -0.2668 -0.2336 -0.0455
 1196POPI   C1A18023   1.159   6.789   6.743  0.1948  0.0250 -0.4674
 1196POPI   D2A18024   1.163   6.927   7.143 -0.0208  0.0566  0.0847
 1196POPI   C3A18025   1.077   6.725   7.517 -0.0314 -0.5351  0.1745
 1196POPI   C4A18026   1.086   6.768   7.987  0.2529 -0.0508 -0.0596
 1196POPI   C1B18027   1.010   6.266   6.770  0.0239 -0.2461 -0.1470
 1196POPI   C2B18028   1.038   6.283   7.300  0.0183  0.0253  0.2761
 1196POPI   C3B18029   0.921   6.273   7.751 -0.1553 -0.1366 -0.1506
 1196POPI   C4B18030   1.109   6.331   8.167 -0.1331 -0.1831 -0.0458
 1197POPI    C118031   7.351  14.427   5.666  0.0711 -0.1077  0.0932
 1197POPI    C218032   7.418  14.146   5.389 -0.2721 -0.0293 -0.0756
 1197POPI    C318033   7.361  14.526   5.278  0.1690  0.1095  0.1501
 1197POPI   PO418034   7.290  14.305   5.871  0.1404 -0.0275 -0.0281
 1197POPI   GL118035   7.477  14.235   6.249  0.0649 -0.0486 -0.0491
 1197POPI   GL218036   7.659  14.535   6.267 -0.0328 -0.1450  0.1047
 1197POPI   C1A18037   7.486  14.195   6.683 -0.0219 -0.0807  0.1089
 1197POPI   D2A18038   7.365  14.278   7.082 -0.0361 -0.0653  0.1044
 1197POPI   C3A18039   7.304  14.092   7.568 -0.1992  0.0266 -0.1517
 1197POPI   C4A18040   7.298  14.160   7.974 -0.0376  0.1732 -0.0258
 1197POPI   C1B18041   7.531  14.721   6.584  0.0374  0.1031 -0.1621
 1197POPI   C2B18042   7.444  14.742   6.977  0.2202 -0.1068 -0.2278
 1197POPI   C3B18043   7.445  14.634   7.471  0.0082 -0.0106  0.1163
 1197POPI   C4B18044   7.317  14.672   7.914 -0.0363 -0.2207 -0.2824
 1198DPPI    C118045  11.861  12.581   6.085  0.0712  0.0103 -0.2257
 1198DPPI    C218046  11.857  12.973   6.163  0.0848 -0.0272 -0.0310
 1198DPPI    C318047  11.585  12.816   5.915 -0.0048  0.0841 -0.0041
 1198DPPI   PO418048  11.897  12.434   6.304 -0.0684  0.0940 -0.2130
 1198DPPI   GL118049  11.641  12.132   6.555 -0.1557  0.0192  0.0274
 1198DPPI   GL218050  11.753  12.320   6.782  0.2062 -0.0807  0.0414
 1198DPPI   C1A18051  11.635  11.864   6.992 -0.1069  0.0740  0.0629
 1198DPPI   C2A18052  11.597  11.920   7.428 -0.2297 -0.0960  0.0189
 1198DPPI   C3A18053  11.661  12.203   7.831  0.3255  0.1756 -0.1339
 1198DPPI   C4A18054  11.298  12.537   7.986  0.1452 -0.3807  0.0027
 1198DPPI   C1B18055  11.717  12.367   7.227 -0.0192 -0.0678  0.0717
 1198DPPI   C2B18056  11.388  12.575   7.478 -0.0149 -0.1174  0.0415
 1198DPPI   C3B18057  11.224  12.917   7.581 -0.0439  0.2787 -0.0197
 1198DPPI   C4B18058  11.202  13.257   7.761  0.0555 -0.1120  0.0000
 1199DPPI    C118059   9.597   3.311   6.034 -0.0384 -0.0959  0.1335
 1199DPPI    C218060   9.714   3.112   5.708 -0.3163  0.0619 -0.0665
 1199DPPI    C318061   9.893   3.455   5.808 -0.0732 -0.1054  0.0818
 1199DPPI   PO418062   9.632   3.153   6.218  0.0219  0.1059  0.1875
 1199DPPI   GL118063   9.719   3.199   6.632 -0.3070  0.0388 -0.3406
 1199DPPI   GL218064   9.593   3.485   6.580  0.1688 -0.2563 -0.2294
 1199DPPI   C1A18065   9.724   3.305   7.130  0.1773  0.0554 -0.1337
 1199DPPI   C2A18066   9.789   3.336   7.586 -0.0944 -0.3568  0.0183
 1199DPPI   C3A18067   9.683   3.366   7.995 -0.0404 -0.1085 -0.2504
 1199DPPI   C4A18068   9.811   3.323   8.336 -0.2670 -0.4847 -0.2557
 1199DPPI   C1B18069   9.370   3.665   6.927 -0.3301 -0.3410 -0.0358
 1199DPPI   C2B18070   9.376   3.644   7.374 -0.1573 -0.0432 -0.0062
 1199DPPI   C3B18071   9.317   3.680   7.787  0.0191  0.2901 -0.1476
 1199DPPI   C4B18072   9.378   3.649   8.296  0.0173  0.2903  0.2073
 1200DPPI    C118073   0.857   0.871   5.666  0.1109  0.2518 -0.0100
 1200DPPI    C218074   1.060   0.906   5.323  0.1984 -0.2889 -0.0214
 1200DPPI    C318075   0.738   0.668   5.342 -0.0756  0.0865  0.1588
 1200DPPI   PO418076   1.101   0.839   5.874 -0.0416 -0.2629 -0.0419
 1200DPPI   GL118077   1.171   0.857   6.247 -0.0131  0.1452 -0.2004
 1200DPPI   GL218078   1.319   0.566   6.431  0.1292  0.0165  0.0994
 1200DPPI   C1A18079   1.043   0.889   6.781 -0.2840  0.2870 -0.3425
 1200DPPI   C2A18080   1.138   0.918   7.231 -0.2104  0.2348 -0.2573
 1200DPPI   C3A18081   1.070   0.977   7.703  0.0868 -0.2017  0.1016
 1200DPPI   C4A18082   1.023   1.033   8.136  0.1806  0.3481  0.1180
 1200DPPI   C1B18083   1.405   0.571   6.852  0.2633  0.1662  0.0304
 1200DPPI   C2B18084   1.568   0.616   7.304  0.2292  0.2681  0.0463
 1200DPPI   C3B18085   1.544   0.748   7.694  0.0123 -0.2803  0.0745
 1200DPPI   C4B18086   1.525   0.766   8.094  0.1460 -0.1783  0.0927
 1201DPPI    C118087  15.926   0.307   5.964 -0.1217 -0.1567 -0.1489
 1201DPPI    C218088  16.202   0.553   5.812 -0.1544  0.1630  0.2904
 1201DPPI    C318089  15.838   0.537   5.649 -0.0899  0.2551  0.1346
 1201DPPI   PO418090  15.847   0.377   6.158  0.1297  0.1942 -0.0691
 1201DPPI   GL118091  15.700   0.630   6.507 -0.2521  0.0133 -0.2319
 1201DPPI   GL218092  15.531   0.398   6.593 -0.0669  0.1846 -0.0194
 1201DPPI   C1A18093  15.852   0.662   6.864 -0.1814 -0.0668 -0.1339
 1201DPPI   C2A18094  15.850   0.678   7.302  0.0569 -0.1113 -0.2009
 1201DPPI   C3A18095  15.880   0.949   7.565  0.3027  0.0705  0.0803
 1201DPPI   C4A18096  15.841   0.919   8.020 -0.0870 -0.2257  0.0323
 1201DPPI   C1B18097  15.454   0.507   7.068  0.1394 -0.1313  0.0795
 1201DPPI   C2B18098  15.442   0.514   7.451  0.2874  0.2653 -0.0619
 1201DPPI   C3B18099  15.368   0.276   7.812 -0.0039  0.2204 -0.2050
 1201DPPI   C4B18100  15.180  -0.129   7.988 -0.1439 -0.2287  0.0614
 1202DPPI    C118101   4.046  17.365   5.564 -0.3939  0.0466  0.1142
 1202DPPI    C218102   3.905  17.244   5.210  0.0862 -0.0885 -0.0383
 1202DPPI    C318103   3.937  17.634   5.289 -0.0472 -0.0578 -0.1325
 1202DPPI   PO418104   3.921  17.183   5.774 -0.0477  0.2901  0.1006
 1202DPPI   GL118105   3.900  17.122   6.187 -0.2233  0.2092 -0.1624
 1202DPPI   GL218106   3.717  16.961   6.321 -0.0675  0.1178  0.0325
 1202DPPI   C1A18107   4.088  17.197   6.512 -0.0827  0.2040  0.3507
 1202DPPI   C2A18108   4.117  17.125   7.008  0.0639  0.3204 -0.0476
 1202DPPI   C3A18109   4.086  17.261   7.451 -0.1417  0.1942  0.2386
 1202DPPI   C4A18110   4.075  17.142   7.751 -0.0427  0.0804 -0.3708
 1202DPPI   C1B18111   3.615  17.034   6.752  0.0180 -0.1381 -0.1021
 1202DPPI   C2B18112   3.663  17.058   7.188 -0.2117 -0.0027 -0.2063
 1202DPPI   C3B18113   3.617  17.006   7.540  0.0145  0.0856 -0.0702
 1202DPPI   C4B18114   3.578  16.934   7.975 -0.0709  0.1259  0.0681
 1203DPPI    C118115   3.482   5.224   5.861  0.1229  0.2838 -0.0323
 1203DPPI    C218116   3.252   4.905   5.791 -0.0510  0.3398  0.2669
 1203DPPI    C318117   3.509   5.031   5.511  0.1099 -0.1345  0.1916
 1203DPPI   PO418118   3.459   5.169   6.113  0.2414 -0.0317  0.0235
 1203DPPI   GL118119   3.759   5.055   6.339 -0.2008  0.0593  0.0648
 1203DPPI   GL218120   3.637   4.849   6.450 -0.3341 -0.0414  0.0634
 1203DPPI   C1A18121   3.712   5.326   6.727 -0.1551 -0.0188  0.1379
 1203DPPI   C2A18122   3.621   5.297   7.115  0.0429 -0.0223  0.2825
 1203DPPI   C3A18123   3.564   5.301   7.511  0.1130 -0.0159 -0.0655
 1203DPPI   C4A18124   3.531   5.286   7.912 -0.1613  0.3533 -0.0709
 1203DPPI   C1B18125   3.570   4.816   6.836  0.4022  0.0487  0.1528
 1203DPPI   C2B18126   3.505   4.827   7.157 -0.1870  0.0316 -0.2346
 1203DPPI   C3B18127   3.557   4.844   7.548  0.2260  0.1726 -0.1325
 1203DPPI   C4B18128   3.499   4.702   7.923  0.0367  0.1166 -0.1704
 1204DPPI    C118129  14.088   4.638   5.925 -0.1126  0.0276  0.0831
 1204DPPI    C218130  14.484   4.676   5.890 -0.1269  0.0918 -0.0128
 1204DPPI    C318131  14.309   4.329   5.800 -0.1193  0.1380 -0.2090
 1204DPPI   PO418132  13.991   4.743   6.251  0.1431  0.2739  0.2781
 1204DPPI   GL118133  14.119   4.797   6.653  0.2429 -0.0986 -0.0597
 1204DPPI   GL218134  14.413   4.692   6.717  0.0675 -0.6880  0.0373
 1204DPPI   C1A18135  13.975   4.517   7.077  0.1106  0.0552 -0.1515
 1204DPPI   C2A18136  13.999   4.402   7.442 -0.3212  0.0412 -0.0129
 1204DPPI   C3A18137  14.099   4.555   7.800  0.2786  0.1789 -0.3838
 1204DPPI   C4A18138  14.205   4.474   8.239  0.0446  0.2375 -0.0267
 1204DPPI   C1B18139  14.461   4.619   7.201  0.1530  0.0063  0.0092
 1204DPPI   C2B18140  14.579   4.777   7.573 -0.0401 -0.2395 -0.0401
 1204DPPI   C3B18141  14.588   4.756   7.889  0.0147  0.2081  0.1081
 1204DPPI   C4B18142  14.593   4.824   8.279 -0.0501 -0.1844 -0.2456
 1205DPPI    C118143   5.788  10.957   5.720 -0.0339 -0.0703  0.0814
 1205DPPI    C218144   5.928  10.671   5.478  0.0505  0.0794 -0.0483
 1205DPPI    C318145   5.736  10.987   5.325  0.2479  0.2565  0.0645
 1205DPPI   PO418146   5.752  10.873   5.933 -0.0899 -0.0979 -0.2015
 1205DPPI   GL118147   5.533  10.873   6.329  0.1834 -0.1213  0.3923
 1205DPPI   GL218148   5.467  10.595   6.461 -0.2218 -0.0470  0.0259
 1205DPPI   C1A18149   5.538  11.073   6.726  0.0242 -0.0496  0.1413
 1205DPPI   C2A18150   5.327  10.960   7.132 -0.0335  0.3194 -0.0074
 1205DPPI   C3A18151   5.326  10.837   7.544 -0.1269  0.2085  0.0885
 1205DPPI   C4A18152   5.474  10.821   7.884  0.1416 -0.4345  0.0790
 1205DPPI   C1B18153   5.308  10.565   6.833  0.1772  0.2279 -0.0752
 1205DPPI   C2B18154   5.255  10.391   7.214 -0.1928 -0.1765 -0.0750
 1205DPPI   C3B18155   5.399  10.318   7.675  0.1607  0.2229  0.0414
 1205DPPI   C4B18156   5.374  10.399   8.164 -0.0213 -0.3239  0.3672
 1206DPPI    C118157  12.035   7.391   5.790 -0.2342 -0.0875  0.2512
 1206DPPI    C218158  12.113   7.721   5.578  0.1722 -0.3669 -0.0507
 1206DPPI    C318159  11.757   7.542   5.545 -0.0674  0.0551  0.1473
 1206DPPI   PO418160  12.079   7.463   6.044  0.0966 -0.0119 -0.0643
 1206DPPI   GL118161  11.818   7.551   6.318  0.1262 -0.1254  0.1574
 1206DPPI   GL218162  11.562   7.398   6.418 -0.0489  0.1883  0.2046
 1206DPPI   C1A18163  11.842   7.653   6.750  0.0683 -0.0886  0.3610
 1206DPPI   C2A18164  11.832   7.702   7.092 -0.2492 -0.2105  0.1926
 1206DPPI   C3A18165  11.849   7.610   7.502 -0.2465 -0.0789 -0.2061
 1206DPPI   C4A18166  11.824   7.448   7.909 -0.1333 -0.1040  0.1178
 1206DPPI   C1B18167  11.375   7.486   6.817 -0.2014 -0.0067 -0.0171
 1206DPPI   C2B18168  11.357   7.521   7.289  0.0468 -0.0770  0.2240
 1206DPPI   C3B18169  11.236   7.367   7.645 -0.1880  0.2918  0.1223
 1206DPPI   C4B18170  11.330   7.318   8.024 -0.2263 -0.0957  0.2669
 1207DPPI    C118171  12.703  13.175   6.627  0.1115 -0.3595 -0.0495
 1207DPPI    C218172  12.476  12.850   6.679 -0.0749 -0.2186  0.0302
 1207DPPI    C318173  12.350  13.147   6.442  0.0283 -0.1406  0.0720
 1207DPPI   PO418174  12.916  13.104   6.606  0.2694 -0.2262  0.3366
 1207DPPI   GL118175  13.102  12.994   6.934 -0.0639  0.0342  0.0853
 1207DPPI   GL218176  13.297  12.974   7.244 -0.0258 -0.0060  0.2250
 1207DPPI   C1A18177  12.702  12.836   7.172 -0.2945  0.1182 -0.1867
 1207DPPI   C2A18178  12.670  12.753   7.574  0.0223 -0.1067  0.1647
 1207DPPI   C3A18179  12.646  12.786   8.015 -0.4540  0.0269 -0.0023
 1207DPPI   C4A18180  12.912  12.811   8.345  0.1309 -0.0296 -0.1155
 1207DPPI   C1B18181  13.124  12.944   7.600  0.3813  0.2392 -0.0348
 1207DPPI   C2B18182  13.180  12.937   7.951  0.1025 -0.0306  0.0166
 1207DPPI   C3B18183  13.467  12.946   8.350  0.2028 -0.0577  0.2849
 1207DPPI   C4B18184  13.290  12.943   8.777  0.4286  0.2433 -0.2820
 1208DPPI    C118185  16.617   9.293   5.746  0.0278  0.4369 -0.3375
 1208DPPI    C218186  16.493   8.918   5.679  0.3018  0.2510  0.1440
 1208DPPI    C318187  16.690   9.118   5.394  0.0583  0.0727 -0.1547
 1208DPPI   PO418188  16.698   9.208   6.054 -0.1225 -0.1885 -0.2155
 1208DPPI   GL118189  16.616   9.004   6.476  0.3122 -0.1472 -0.0565
 1208DPPI   GL218190  16.370   8.966   6.694 -0.2116  0.3180  0.2359
 1208DPPI   C1A18191  16.847   8.945   6.865  0.0663  0.1249 -0.0230
 1208DPPI   C2A18192  16.753   8.929   7.308 -0.2750 -0.4863 -0.3792
 1208DPPI   C3A18193  16.586   9.008   7.672 -0.1063 -0.0872  0.2275
 1208DPPI   C4A18194  16.589   8.885   8.031  0.0869 -0.0569 -0.1100
 1208DPPI   C1B18195  16.228   8.727   6.966  0.2409  0.2192  0.1090
 1208DPPI   C2B18196  16.181   8.774   7.404 -0.1590  0.1624  0.0972
 1208DPPI   C3B18197  16.098   8.718   7.868 -0.1665 -0.0598  0.0492
 1208DPPI   C4B18198  16.236   8.680   8.302  0.0605 -0.3684  0.0978
 1209DPPI    C118199  15.556  15.239   6.696  0.1990 -0.0731  0.1428
 1209DPPI    C218200  15.570  14.847   6.774  0.0975 -0.1548 -0.2279
 1209DPPI    C318201  15.900  15.039   6.653  0.1439 -0.1265 -0.0596
 1209DPPI   PO418202  15.410  15.289   6.779 -0.0167  0.2511 -0.1029
 1209DPPI   GL118203  15.200  15.121   7.062 -0.4592 -0.3588 -0.0197
 1209DPPI   GL218204  15.321  15.402   7.265 -0.2249 -0.2056  0.0351
 1209DPPI   C1A18205  15.051  14.898   7.315  0.1896  0.1235  0.0140
 1209DPPI   C2A18206  14.912  14.536   7.543 -0.0394 -0.1084  0.0876
 1209DPPI   C3A18207  14.944  14.403   7.992  0.0053  0.1476 -0.3160
 1209DPPI   C4A18208  15.121  14.404   8.357 -0.3203  0.0301  0.0152
 1209DPPI   C1B18209  15.722  15.305   7.341 -0.2389  0.0168  0.0328
 1209DPPI   C2B18210  15.868  15.122   7.747 -0.0741  0.2547 -0.0398
 1209DPPI   C3B18211  16.251  15.286   8.016 -0.1600 -0.0938  0.5033
 1209DPPI   C4B18212  16.440  15.092   8.283 -0.0678  0.1932  0.0623
 1210DPPI    C118213  14.962  17.502   6.258 -0.1071 -0.0161  0.2033
 1210DPPI    C218214  14.714  17.811   6.312 -0.2281 -0.1012  0.1383
 1210DPPI    C318215  14.625  17.527   6.044  0.1129  0.0510 -0.1447
 1210DPPI   PO418216  14.974  17.404   6.513 -0.2468 -0.0249 -0.4241
 1210DPPI   GL118217  15.214  17.621   6.853 -0.0809  0.0933 -0.0567
 1210DPPI   GL218218  15.064  17.855   6.702  0.1052  0.0705 -0.2259
 1210DPPI   C1A18219  15.357  17.482   7.387  0.1516 -0.2236  0.3202
 1210DPPI   C2A18220  15.586  17.385   7.728  0.3108 -0.2989 -0.2507
 1210DPPI   C3A18221  15.659  17.520   8.131 -0.1045  0.0545 -0.0670
 1210DPPI   C4A18222  15.824  17.675   8.580 -0.0699 -0.0669 -0.1643
 1210DPPI   C1B18223  14.896  17.839   7.151 -0.0462 -0.1112  0.1285
 1210DPPI   C2B18224  14.927  17.854   7.636 -0.3378  0.1313 -0.2317
 1210DPPI   C3B18225  14.965  17.914   8.081  0.3982  0.0323 -0.2211
 1210DPPI   C4B18226  15.260  17.857   8.527  0.0129 -0.2080 -0.0619
 1211DPPI    C118227  10.191  13.028   6.106 -0.0939  0.0413 -0.0058
 1211DPPI    C218228  10.028  12.759   5.858  0.2025 -0.0783 -0.0748
 1211DPPI    C318229  10.324  12.996   5.730  0.4291 -0.2113  0.1903
 1211DPPI   PO418230  10.230  12.950   6.283 -0.2479  0.0773 -0.2137
 1211DPPI   GL118231  10.059  13.088   6.674  0.1601  0.3267 -0.3540
 1211DPPI   GL218232  10.020  13.357   6.848 -0.0846  0.1342  0.0038
 1211DPPI   C1A18233   9.704  12.995   6.948 -0.2419  0.0738  0.4042
 1211DPPI   C2A18234   9.577  12.986   7.372 -0.3147  0.2293 -0.1109
 1211DPPI   C3A18235   9.487  12.901   7.811  0.1029 -0.1055  0.2217
 1211DPPI   C4A18236   9.391  12.871   8.249  0.0116  0.0719  0.1698
 1211DPPI   C1B18237   9.906  13.332   7.283  0.2539 -0.0966  0.0388
 1211DPPI   C2B18238   9.876  13.183   7.779 -0.1323 -0.2771 -0.1124
 1211DPPI   C3B18239   9.799  13.331   8.278 -0.2199  0.3035 -0.1765
 1211DPPI   C4B18240   9.687  13.120   8.655  0.1203  0.0734  0.1122
 1212DPPI    C118241  14.736   5.431   6.221  0.1939  0.4496  0.0505
 1212DPPI    C218242  14.390   5.614   6.144 -0.1361 -0.1280  0.1004
 1212DPPI    C318243  14.573   5.406   5.856  0.1474  0.1288  0.0901
 1212DPPI   PO418244  14.804   5.461   6.390  0.0819 -0.3193 -0.0781
 1212DPPI   GL118245  14.938   5.485   6.813 -0.0390 -0.2106 -0.1833
 1212DPPI   GL218246  15.259   5.623   6.780  0.2306  0.0739  0.0060
 1212DPPI   C1A18247  15.180   5.450   7.280 -0.1090 -0.1796  0.0314
 1212DPPI   C2A18248  15.166   5.456   7.724 -0.0717 -0.1554 -0.1399
 1212DPPI   C3A18249  15.215   5.360   8.091 -0.1562  0.0883  0.1101
 1212DPPI   C4A18250  15.188   5.512   8.528  0.1645 -0.2862 -0.0820
 1212DPPI   C1B18251  15.401   5.858   7.087  0.1173  0.3848 -0.3162
 1212DPPI   C2B18252  15.357   5.970   7.512  0.0378  0.1500  0.0717
 1212DPPI   C3B18253  15.302   5.904   8.001 -0.0405 -0.0054 -0.2522
 1212DPPI   C4B18254  15.223   6.059   8.430  0.2911  0.0948  0.0450
 1213DPPI    C118255  12.227   0.152   5.770 -0.0957  0.1809  0.0922
 1213DPPI    C218256  12.300   0.424   5.486  0.1870  0.0612  0.0466
 1213DPPI    C318257  12.059   0.114   5.409  0.0557  0.1685  0.0221
 1213DPPI   PO418258  12.187   0.339   6.068  0.0336 -0.2317 -0.1191
 1213DPPI   GL118259  11.972   0.353   6.428  0.0119 -0.0034 -0.1830
 1213DPPI   GL218260  11.762   0.581   6.579 -0.0013  0.0922 -0.1113
 1213DPPI   C1A18261  11.997   0.213   6.894  0.2777  0.2307  0.2355
 1213DPPI   C2A18262  12.127   0.187   7.322 -0.1948  0.2157 -0.0462
 1213DPPI   C3A18263  12.097   0.329   7.699 -0.2555 -0.0688 -0.2146
 1213DPPI   C4A18264  11.966   0.263   8.160 -0.3886 -0.0932 -0.0174
 1213DPPI   C1B18265  11.627   0.555   7.016 -0.0929  0.0850 -0.0252
 1213DPPI   C2B18266  11.658   0.588   7.400 -0.3807  0.3162  0.0666
 1213DPPI   C3B18267  11.647   0.627   7.798 -0.2743  0.3915  0.0961
 1213DPPI   C4B18268  11.560   0.783   8.183  0.1464  0.4020  0.0866
 1214DPPI    C118269   7.650  10.873   5.553 -0.0082  0.0200  0.0011
 1214DPPI    C218270   7.331  11.061   5.704 -0.0097 -0.0674  0.1071
 1214DPPI    C318271   7.360  11.003   5.310 -0.1120 -0.0354  0.0947
 1214DPPI   PO418272   7.753  10.819   5.649 -0.1339  0.0318 -0.1636
 1214DPPI   GL118273   7.800  10.893   6.147 -0.3461  0.0505 -0.3281
 1214DPPI   GL218274   7.495  11.109   6.178 -0.0844  0.2959  0.1343
 1214DPPI   C1A18275   7.724  10.941   6.588 -0.1570 -0.1636 -0.1385
 1214DPPI   C2A18276   7.675  10.878   7.051 -0.1028  0.1843 -0.2380
 1214DPPI   C3A18277   7.788  10.844   7.503 -0.1516  0.0445  0.2034
 1214DPPI   C4A18278   7.744  10.769   7.974 -0.2179  0.0408 -0.3282
 1214DPPI   C1B18279   7.337  11.195   6.555  0.5836 -0.1369 -0.2191
 1214DPPI   C2B18280   7.346  11.261   6.904  0.0323  0.2026  0.2634
 1214DPPI   C3B18281   7.337  11.151   7.270  0.2819 -0.0516  0.2918
 1214DPPI   C4B18282   7.392  11.210   7.705  0.1181 -0.1027 -0.3308
 1215DPPI    C118283   8.615  16.547   5.737  0.1494 -0.3051  0.2041
 1215DPPI    C218284   8.315  16.288   5.685 -0.1467  0.0511  0.0909
 1215DPPI    C318285   8.526  16.415   5.370  0.0896 -0.1541  0.1633
 1215DPPI   PO418286   8.501  16.768   5.968  0.1049  0.2056  0.0467
 1215DPPI   GL118287   8.701  16.779   6.312 -0.2975 -0.0782  0.4577
 1215DPPI   GL218288   8.786  17.146   6.320  0.0655 -0.0865  0.1497
 1215DPPI   C1A18289   8.585  16.738   6.729  0.1652 -0.0484  0.0199
 1215DPPI   C2A18290   8.584  16.554   7.153 -0.3160  0.0680  0.1257
 1215DPPI   C3A18291   8.507  16.528   7.574  0.0683 -0.2371 -0.0127
 1215DPPI   C4A18292   8.498  16.566   8.046 -0.3055  0.1040  0.0997
 1215DPPI   C1B18293   8.674  17.180   6.826 -0.2291  0.1517 -0.1245
 1215DPPI   C2B18294   8.594  17.057   7.313 -0.1650  0.0980  0.0087
 1215DPPI   C3B18295   8.575  17.224   7.720  0.0052  0.0468 -0.0570
 1215DPPI   C4B18296   8.651  17.089   8.122  0.0722 -0.0161  0.0356
 1216DPPI    C118297  14.691  10.474   6.239 -0.0054 -0.2563  0.1997
 1216DPPI    C218298  14.934  10.523   5.925 -0.1206  0.4419  0.2034
 1216DPPI    C318299  14.553  10.417   5.868 -0.0049  0.0356  0.1523
 1216DPPI   PO418300  14.821  10.377   6.393  0.0453 -0.0731 -0.1742
 1216DPPI   GL118301  15.045  10.602   6.743 -0.0001 -0.2562 -0.1344
 1216DPPI   GL218302  14.756  10.778   6.637 -0.0344 -0.3429 -0.2289
 1216DPPI   C1A18303  15.103  10.770   7.241  0.0118 -0.0781 -0.1150
 1216DPPI   C2A18304  15.120  10.660   7.636  0.4338 -0.1299  0.1536
 1216DPPI   C3A18305  15.202  10.750   8.147  0.1806  0.3042  0.0148
 1216DPPI   C4A18306  15.144  10.734   8.548 -0.4674  0.1818  0.1400
 1216DPPI   C1B18307  14.651  10.578   7.058  0.1139 -0.0292  0.0964
 1216DPPI   C2B18308  14.660  10.524   7.452 -0.1215  0.0844  0.2938
 1216DPPI   C3B18309  14.621  10.520   7.906  0.0856  0.0780 -0.1554
 1216DPPI   C4B18310  14.708  10.602   8.316  0.1919  0.1341  0.4874
 1217DPPI    C118311  10.451  11.965   5.581 -0.0603 -0.5768 -0.0160
 1217DPPI    C218312  10.848  11.998   5.543 -0.1135 -0.1027 -0.2287
 1217DPPI    C318313  10.625  11.896   5.227 -0.2184  0.2834 -0.2842
 1217DPPI   PO418314  10.463  11.864   5.874 -0.1606  0.0732  0.2212
 1217DPPI   GL118315  10.573  11.889   6.327  0.2946 -0.2597 -0.3818
 1217DPPI   GL218316  10.719  11.597   6.463  0.6326 -0.1422 -0.0860
 1217DPPI   C1A18317  10.698  12.057   6.797 -0.3876  0.1028 -0.1348
 1217DPPI   C2A18318  10.717  11.994   7.238 -0.1399  0.0381 -0.1342
 1217DPPI   C3A18319  10.669  12.067   7.641 -0.0393 -0.5127 -0.0021
 1217DPPI   C4A18320  10.764  12.097   8.027 -0.0018 -0.0284 -0.2037
 1217DPPI   C1B18321  10.592  11.497   6.850 -0.1949  0.3107  0.2752
 1217DPPI   C2B18322  10.677  11.480   7.271 -0.0711 -0.1442 -0.1832
 1217DPPI   C3B18323  10.718  11.469   7.708 -0.1486 -0.0268  0.2696
 1217DPPI   C4B18324  10.919  11.591   8.149  0.0378 -0.0482  0.1459
 1218DPPI    C118325  15.678   8.468   5.849 -0.2112  0.1462 -0.0258
 1218DPPI    C218326  15.761   8.366   5.471 -0.0402 -0.1239  0.0821
 1218DPPI    C318327  15.520   8.676   5.546  0.1760  0.1300 -0.2449
 1218DPPI   PO418328  15.895   8.537   6.033 -0.0847  0.0314 -0.0193
 1218DPPI   GL118329  15.924   8.680   6.553  0.2410 -0.1154  0.0439
 1218DPPI   GL218330  15.725   8.604   6.717 -0.2055  0.2128 -0.2251
 1218DPPI   C1A18331  15.868   9.097   6.852 -0.1051 -0.1193  0.0776
 1218DPPI   C2A18332  15.780   9.088   7.326  0.1830 -0.0768  0.4346
 1218DPPI   C3A18333  15.712   9.044   7.788 -0.4375 -0.2481 -0.1038
 1218DPPI   C4A18334  15.749   8.989   8.175  0.0056  0.1843 -0.1385
 1218DPPI   C1B18335  15.658   8.573   7.173 -0.0182 -0.0894  0.2476
 1218DPPI   C2B18336  15.570   8.507   7.507  0.3085  0.0466  0.2004
 1218DPPI   C3B18337  15.615   8.491   7.977  0.2521 -0.3663 -0.1396
 1218DPPI   C4B18338  15.748   8.581   8.447 -0.1119  0.4985 -0.0809
 1219DPPI    C118339  17.318   1.330   6.152 -0.1807  0.0130 -0.0959
 1219DPPI    C218340  17.551   1.442   5.846  0.1525 -0.3193  0.0277
 1219DPPI    C318341  17.164   1.363   5.785  0.0359  0.3372 -0.1625
 1219DPPI   PO418342  17.497   1.171   6.292  0.0932  0.1284  0.2049
 1219DPPI   GL118343  17.774   1.088   6.530  0.0898 -0.1338  0.1742
 1219DPPI   GL218344  18.094   1.185   6.581  0.1358 -0.0417 -0.0780
 1219DPPI   C1A18345  17.754   0.981   6.950 -0.2545 -0.3228  0.2191
 1219DPPI   C2A18346  17.766   1.117   7.392 -0.2833 -0.0106 -0.1658
 1219DPPI   C3A18347  17.720   1.113   7.805 -0.0790  0.0839  0.3326
 1219DPPI   C4A18348  17.677   1.191   8.242 -0.1022 -0.1952 -0.1292
 1219DPPI   C1B18349  18.257   1.184   7.036  0.0418 -0.0795  0.0908
 1219DPPI   C2B18350  18.269   1.249   7.460  0.1584  0.0807 -0.0938
 1219DPPI   C3B18351  18.253   1.334   7.914 -0.4984 -0.1315  0.1466
 1219DPPI   C4B18352  18.173   1.321   8.347 -0.2506 -0.1123 -0.2868
 1220DPPI    C118353  16.478  13.332   6.003  0.4415  0.1038  0.0969
 1220DPPI    C218354  16.533  12.964   5.855  0.4719 -0.0399  0.4557
 1220DPPI    C318355  16.662  13.283   5.651  0.0989 -0.1974 -0.0466
 1220DPPI   PO418356  16.424  13.293   6.276  0.2267  0.0120 -0.1387
 1220DPPI   GL118357  16.606  13.257   6.708  0.0261  0.1371  0.0520
 1220DPPI   GL218358  16.486  13.615   6.726  0.1379 -0.3657 -0.1783
 1220DPPI   C1A18359  16.690  13.209   7.145 -0.0910  0.0153 -0.3213
 1220DPPI   C2A18360  16.705  13.043   7.551  0.0818 -0.1108 -0.0474
 1220DPPI   C3A18361  16.981  13.045   7.922 -0.1270 -0.0127 -0.0112
 1220DPPI   C4A18362  17.356  13.262   8.144  0.1183 -0.1148 -0.0269
 1220DPPI   C1B18363  16.353  13.574   7.132 -0.0020 -0.0429  0.2430
 1220DPPI   C2B18364  16.492  13.501   7.565 -0.1482 -0.4112 -0.0828
 1220DPPI   C3B18365  16.533  13.539   8.009 -0.1495 -0.1039  0.0230
 1220DPPI   C4B18366  16.675  13.850   8.443 -0.2339  0.4416  0.3146
 1221DPPI    C118367   0.906  13.579   5.764 -0.1349  0.0645 -0.1129
 1221DPPI    C218368   1.166  13.816   5.574  0.1569 -0.1994 -0.0490
 1221DPPI    C318369   0.898  13.605   5.365 -0.0806  0.1532 -0.1085
 1221DPPI   PO418370   0.698  13.723   5.965 -0.0204  0.0102  0.2451
 1221DPPI   GL118371   0.674  13.864   6.331  0.1183  0.1093 -0.1872
 1221DPPI   GL218372   0.945  13.956   6.556  0.3558  0.2448 -0.1299
 1221DPPI   C1A18373   0.328  13.843   6.646  0.1891 -0.0832 -0.0707
 1221DPPI   C2A18374   0.218  13.605   6.944  0.1252  0.1415 -0.0431
 1221DPPI   C3A18375   0.164  13.364   7.307 -0.0147 -0.0242  0.3508
 1221DPPI   C4A18376   0.157  13.163   7.750  0.2087  0.0485 -0.2545
 1221DPPI   C1B18377   0.751  13.857   6.999 -0.0493  0.0639  0.1579
 1221DPPI   C2B18378   0.926  13.967   7.375  0.1558 -0.0246 -0.0622
 1221DPPI   C3B18379   0.697  14.082   7.736 -0.0828 -0.4700 -0.0648
 1221DPPI   C4B18380   0.647  14.101   8.111  0.0332  0.0459  0.0847
 1222DPPI    C118381  14.925  16.967   6.206 -0.2816 -0.0597  0.0250
 1222DPPI    C218382  15.047  16.766   5.883  0.0402 -0.0299  0.1238
 1222DPPI    C318383  14.826  17.097   5.841 -0.0551 -0.1144 -0.0577
 1222DPPI   PO418384  14.818  16.696   6.464  0.2403  0.1196  0.0693
 1222DPPI   GL118385  14.682  16.944   6.869 -0.0890 -0.1946  0.0046
 1222DPPI   GL218386  14.817  16.772   7.197 -0.0314 -0.3069  0.0739
 1222DPPI   C1A18387  14.328  16.953   7.017  0.0810  0.2421 -0.2032
 1222DPPI   C2A18388  14.278  17.002   7.375 -0.1618  0.0632 -0.2020
 1222DPPI   C3A18389  14.149  17.065   7.758  0.1050  0.4493  0.1208
 1222DPPI   C4A18390  14.112  17.276   8.144  0.2737 -0.0059 -0.2552
 1222DPPI   C1B18391  14.707  16.793   7.670  0.0417 -0.4161  0.0633
 1222DPPI   C2B18392  14.572  16.978   8.049  0.1642 -0.3494  0.0547
 1222DPPI   C3B18393  14.500  17.027   8.503 -0.2341  0.2162  0.1531
 1222DPPI   C4B18394  14.178  17.405   8.620 -0.2612  0.2020  0.2124
 1223DPPI    C118395   7.676   8.757   5.685 -0.1371  0.2695  0.0805
 1223DPPI    C218396   8.012   8.619   5.518 -0.2720  0.0560 -0.0194
 1223DPPI    C318397   7.842   8.953   5.378 -0.1188  0.1488  0.0129
 1223DPPI   PO418398   7.789   8.767   5.982  0.0718  0.1673  0.1115
 1223DPPI   GL118399   7.520   8.495   6.304 -0.0202  0.1633  0.0775
 1223DPPI   GL218400   7.879   8.693   6.485  0.1302  0.1361 -0.0248
 1223DPPI   C1A18401   7.302   8.283   6.668 -0.1754  0.0493  0.2710
 1223DPPI   C2A18402   7.334   8.272   7.058  0.3626 -0.0248 -0.0965
 1223DPPI   C3A18403   7.427   8.133   7.568  0.1867  0.0192  0.0395
 1223DPPI   C4A18404   7.245   8.198   8.007 -0.3204  0.0962  0.1376
 1223DPPI   C1B18405   7.809   8.377   6.696 -0.0602  0.2932 -0.0815
 1223DPPI   C2B18406   7.817   8.336   7.133  0.1964  0.1189 -0.0468
 1223DPPI   C3B18407   7.896   8.345   7.605 -0.0291  0.0900 -0.0561
 1223DPPI   C4B18408   7.770   8.348   7.961 -0.1750  0.1260 -0.3556
 1224DPPI    C118409  11.068   6.133   5.967  0.0841  0.0150 -0.0795
 1224DPPI    C218410  11.057   5.819   5.720 -0.0227 -0.0113 -0.0418
 1224DPPI    C318411  10.833   6.141   5.644 -0.0014  0.0091 -0.0178
 1224DPPI   PO418412  11.068   6.041   6.185 -0.3633  0.2824 -0.0839
 1224DPPI   GL118413  10.736   5.954   6.532 -0.3095  0.1114 -0.2758
 1224DPPI   GL218414  10.540   6.189   6.571  0.0360 -0.3234 -0.1171
 1224DPPI   C1A18415  10.901   6.085   6.912 -0.1185  0.3801 -0.4551
 1224DPPI   C2A18416  10.646   6.052   7.298  0.0284 -0.1074  0.0285
 1224DPPI   C3A18417  10.697   6.110   7.743  0.2848 -0.0455  0.1936
 1224DPPI   C4A18418  10.602   6.187   8.080  0.3148 -0.1100  0.0717
 1224DPPI   C1B18419  10.375   6.202   6.958  0.0306 -0.2369  0.0849
 1224DPPI   C2B18420  10.304   6.444   7.357 -0.2130 -0.0954 -0.5657
 1224DPPI   C3B18421  10.223   6.492   7.785  0.0010 -0.2561  0.0811
 1224DPPI   C4B18422  10.065   6.787   8.243  0.1500  0.1379 -0.0977
 1225DPPI    C118423   7.637   4.053   5.650  0.2574 -0.0828 -0.1226
 1225DPPI    C218424   7.308   4.050   5.422  0.0588  0.0138  0.1565
 1225DPPI    C318425   7.662   3.952   5.264 -0.0748  0.0746 -0.1895
 1225DPPI   PO418426   7.521   3.902   5.830 -0.0344  0.1380 -0.1966
 1225DPPI   GL118427   7.346   3.870   6.262  0.0109  0.3822 -0.0958
 1225DPPI   GL218428   7.160   3.884   6.505 -0.1178  0.2419 -0.0372
 1225DPPI   C1A18429   7.625   3.952   6.641  0.0461 -0.1607 -0.0741
 1225DPPI   C2A18430   7.553   3.954   7.085 -0.1104  0.1831  0.1123
 1225DPPI   C3A18431   7.573   3.962   7.552 -0.0288  0.2970 -0.1155
 1225DPPI   C4A18432   7.693   3.963   7.966  0.2460 -0.0847  0.1199
 1225DPPI   C1B18433   7.046   3.807   6.953 -0.1862 -0.0191  0.0637
 1225DPPI   C2B18434   7.067   3.735   7.456 -0.0709 -0.1242  0.1164
 1225DPPI   C3B18435   7.002   3.843   7.883 -0.1744  0.1675  0.1750
 1225DPPI   C4B18436   7.132   3.813   8.228  0.0131 -0.1517  0.2067
 1226DPPI    C118437   8.846  11.940   5.725 -0.0143  0.0933  0.2249
 1226DPPI    C218438   8.598  11.921   5.412 -0.2067  0.2277  0.3669
 1226DPPI    C318439   8.908  11.670   5.437 -0.1145  0.2997  0.0063
 1226DPPI   PO418440   8.640  11.887   5.998  0.1704 -0.1509 -0.2794
 1226DPPI   GL118441   8.607  11.768   6.428  0.1099 -0.2048  0.0558
 1226DPPI   GL218442   8.257  11.642   6.523  0.4910 -0.3198 -0.0816
 1226DPPI   C1A18443   8.786  11.753   6.794 -0.1788  0.0305 -0.3535
 1226DPPI   C2A18444   8.801  11.824   7.205 -0.1050  0.4438  0.1215
 1226DPPI   C3A18445   8.807  11.751   7.688  0.0753  0.2183  0.1491
 1226DPPI   C4A18446   8.897  11.787   8.184 -0.1026  0.0707 -0.2620
 1226DPPI   C1B18447   8.299  11.641   6.950  0.2079 -0.1178  0.0230
 1226DPPI   C2B18448   8.319  11.513   7.276  0.0096  0.0216 -0.3272
 1226DPPI   C3B18449   8.313  11.534   7.653 -0.1888  0.1549 -0.1794
 1226DPPI   C4B18450   8.521  11.396   8.000 -0.1552 -0.0590 -0.4160
 1227DPPI    C118451   1.724   1.045   5.849  0.0564 -0.0391  0.1082
 1227DPPI    C218452   1.498   0.984   5.524 -0.0071  0.0543  0.1344
 1227DPPI    C318453   1.657   1.345   5.592 -0.0987  0.0690  0.2731
 1227DPPI   PO418454   1.958   0.873   5.882 -0.0560 -0.1881  0.1683
 1227DPPI   GL118455   1.918   0.717   6.334 -0.3357  0.0435 -0.2489
 1227DPPI   GL218456   1.727   0.956   6.371  0.4020  0.1219 -0.0527
 1227DPPI   C1A18457   1.870   0.799   6.815  0.4259  0.0445 -0.0497
 1227DPPI   C2A18458   1.960   0.717   7.078  0.2035 -0.1001 -0.1912
 1227DPPI   C3A18459   2.032   0.753   7.490 -0.0683  0.0085 -0.0040
 1227DPPI   C4A18460   2.020   0.859   7.895 -0.0383 -0.1840 -0.0507
 1227DPPI   C1B18461   1.541   1.153   6.647 -0.4875 -0.3298 -0.2636
 1227DPPI   C2B18462   1.553   1.118   7.095 -0.0109  0.0168 -0.0130
 1227DPPI   C3B18463   1.484   1.175   7.414 -0.2782 -0.1817 -0.1170
 1227DPPI   C4B18464   1.660   1.254   7.799 -0.1909 -0.3900 -0.2357
 1228PYPI    C118465  11.906  14.041   6.158  0.1489 -0.0794 -0.0893
 1228PYPI    C218466  12.250  14.229   6.080 -0.1193  0.4203 -0.1074
 1228PYPI    C318467  11.987  14.165   5.786  0.0791 -0.2348 -0.1574
 1228PYPI   PO418468  11.855  14.253   6.430 -0.3515 -0.1591 -0.0341
 1228PYPI   GL118469  11.944  14.264   6.773 -0.1710 -0.0987  0.1360
 1228PYPI   GL218470  12.016  13.961   6.878  0.4306  0.1653  0.2730
 1228PYPI   C1A18471  11.885  14.374   7.181  0.1019 -0.2681  0.0669
 1228PYPI   C2A18472  11.956  14.378   7.653  0.0624  0.3851 -0.2896
 1228PYPI   D3A18473  11.986  14.299   8.098 -0.2257  0.0243  0.0688
 1228PYPI   C4A18474  11.873  14.336   8.445 -0.0366 -0.2521 -0.1655
 1228PYPI   C1B18475  11.978  13.958   7.293 -0.0960 -0.1031 -0.0983
 1228PYPI   C2B18476  11.846  13.843   7.744 -0.1116 -0.3986  0.1949
 1228PYPI   C3B18477  11.727  13.800   8.223 -0.1995 -0.1582  0.4340
 1228PYPI   C4B18478  12.124  13.756   8.497 -0.4056 -0.0954 -0.1089
 1229PYPI    C118479  12.900  13.995   6.390  0.0365  0.1801  0.0345
 1229PYPI    C218480  13.078  14.118   6.054 -0.1426  0.2605 -0.0315
 1229PYPI    C318481  12.692  14.014   6.050 -0.0719 -0.0141  0.0886
 1229PYPI   PO418482  12.950  14.089   6.560 -0.0251  0.0115  0.1891
 1229PYPI   GL118483  13.030  14.139   6.979 -0.1424  0.0472 -0.0195
 1229PYPI   GL218484  13.204  14.539   6.873 -0.1727  0.0900  0.1708
 1229PYPI   C1A18485  13.009  13.834   7.323 -0.0475 -0.0873  0.1598
 1229PYPI   C2A18486  13.145  13.806   7.823 -0.1984  0.1053 -0.0880
 1229PYPI   D3A18487  13.166  13.876   8.157 -0.2012  0.1749  0.4464
 1229PYPI   C4A18488  13.356  13.696   8.538  0.0529 -0.0487  0.2850
 1229PYPI   C1B18489  13.040  14.520   7.339  0.0145  0.0097 -0.1574
 1229PYPI   C2B18490  13.020  14.407   7.710 -0.1438 -0.2821 -0.0084
 1229PYPI   C3B18491  12.980  14.341   8.104  0.1090  0.1810 -0.0917
 1229PYPI   C4B18492  13.172  14.211   8.555 -0.1348 -0.1569  0.0933
 1230PYPI    C118493  13.584   6.015   5.925  0.1151  0.0731 -0.2170
 1230PYPI    C218494  13.284   6.067   5.665  0.0298 -0.1351 -0.1614
 1230PYPI    C318495  13.659   6.027   5.532  0.0192  0.0126 -0.2374
 1230PYPI   PO418496  13.610   6.117   6.131 -0.0199 -0.1080 -0.0856
 1230PYPI   GL118497  13.479   6.171   6.511 -0.2435  0.0895  0.0417
 1230PYPI   GL218498  13.746   6.135   6.630  0.0235  0.0245  0.0140
 1230PYPI   C1A18499  13.286   6.210   6.841 -0.0101 -0.2465 -0.1570
 1230PYPI   C2A18500  13.311   6.215   7.209  0.1354 -0.1706 -0.0557
 1230PYPI   D3A18501  13.432   6.242   7.711 -0.1564  0.1141  0.2518
 1230PYPI   C4A18502  13.257   6.187   8.115  0.4241  0.1470 -0.1062
 1230PYPI   C1B18503  13.775   6.181   7.047 -0.1851 -0.1627  0.0812
 1230PYPI   C2B18504  13.779   6.080   7.416  0.1467  0.0793  0.0433
 1230PYPI   C3B18505  13.771   5.808   7.713  0.0224  0.1971 -0.1037
 1230PYPI   C4B18506  13.697   5.836   8.148 -0.3261  0.0024 -0.2124
 1231PYPI    C118507   5.271  17.508   5.814 -0.1795 -0.2051  0.1901
 1231PYPI    C218508   5.353  17.185   5.592  0.1152 -0.0136  0.0138
 1231PYPI    C318509   5.248  17.528   5.415 -0.3474 -0.0481  0.2063
 1231PYPI   PO418510   5.493  17.601   5.913  0.2369 -0.0158  0.0651
 1231PYPI   GL118511   5.663  17.617   6.308  0.1892  0.0520 -0.0109
 1231PYPI   GL218512   5.640  17.324   6.316  0.1068 -0.0316  0.0054
 1231PYPI   C1A18513   5.599  17.805   6.812 -0.0428 -0.1458 -0.0452
 1231PYPI   C2A18514   5.549  17.921   7.233 -0.2332 -0.0247  0.1646
 1231PYPI   D3A18515   5.548  17.812   7.604  0.0333 -0.3246 -0.2086
 1231PYPI   C4A18516   5.469  17.846   7.981  0.0784 -0.2664  0.0676
 1231PYPI   C1B18517   5.474  17.348   6.696 -0.3173  0.0555 -0.2575
 1231PYPI   C2B18518   5.555  17.328   7.200 -0.0909 -0.1872  0.1280
 1231PYPI   C3B18519   5.506  17.327   7.689 -0.1216  0.0287 -0.0775
 1231PYPI   C4B18520   5.481  17.384   8.184  0.0746 -0.0104  0.4828
 1232PYPI    C118521   4.849   6.421   5.839 -0.0720 -0.0015  0.0146
 1232PYPI    C218522   4.451   6.387   5.810 -0.0700 -0.1361  0.1331
 1232PYPI    C318523   4.656   6.583   5.528 -0.2093 -0.1497  0.0208
 1232PYPI   PO418524   4.886   6.481   6.112 -0.1223 -0.0408  0.0801
 1232PYPI   GL118525   4.990   6.674   6.421  0.6548 -0.2566 -0.0588
 1232PYPI   GL218526   4.903   6.679   6.714  0.0010 -0.3634  0.0290
 1232PYPI   C1A18527   5.306   6.406   6.674 -0.1519  0.2545 -0.0326
 1232PYPI   C2A18528   5.316   6.401   7.109  0.1841 -0.1294 -0.0190
 1232PYPI   D3A18529   5.201   6.320   7.539  0.2789 -0.0174  0.1491
 1232PYPI   C4A18530   5.124   6.466   7.936  0.3092  0.0914 -0.2900
 1232PYPI   C1B18531   4.848   6.668   7.095  0.2380  0.1004  0.2311
 1232PYPI   C2B18532   4.781   6.734   7.577 -0.1545  0.0256  0.0545
 1232PYPI   C3B18533   4.712   6.805   7.977 -0.1002  0.1165 -0.4050
 1232PYPI   C4B18534   4.611   6.961   8.370  0.1928 -0.0345 -0.1394
 1233PYPI    C118535  10.089   4.475   5.811  0.0409 -0.1747  0.0035
 1233PYPI    C218536  10.317   4.747   5.627 -0.4261  0.1344 -0.1371
 1233PYPI    C318537  10.216   4.409   5.438 -0.2593  0.0912 -0.1506
 1233PYPI   PO418538  10.267   4.380   6.011 -0.2368  0.3299  0.0565
 1233PYPI   GL118539  10.318   4.443   6.424  0.2717  0.0435 -0.1250
 1233PYPI   GL218540  10.598   4.540   6.556 -0.0810  0.0189 -0.1993
 1233PYPI   C1A18541  10.122   4.763   6.682  0.1223  0.0521  0.3236
 1233PYPI   C2A18542  10.065   4.852   7.109  0.0266  0.1705 -0.0793
 1233PYPI   D3A18543  10.025   4.858   7.539 -0.1600 -0.2821 -0.0316
 1233PYPI   C4A18544  10.110   4.900   7.903 -0.0540  0.2329  0.3863
 1233PYPI   C1B18545  10.426   4.455   6.963 -0.2360 -0.2839 -0.6043
 1233PYPI   C2B18546  10.403   4.562   7.361  0.0851  0.4554  0.2236
 1233PYPI   C3B18547  10.437   4.542   7.708  0.0620 -0.0575  0.3748
 1233PYPI   C4B18548  10.557   4.690   8.084  0.1015  0.2965 -0.2153
 1234PYPI    C118549  15.482  15.757   6.816 -0.0402  0.1913 -0.0295
 1234PYPI    C218550  15.541  15.748   6.420  0.2884 -0.1537  0.0221
 1234PYPI    C318551  15.784  15.963   6.654  0.2246 -0.1202  0.0577
 1234PYPI   PO418552  15.229  15.853   6.875  0.0810 -0.1049  0.1300
 1234PYPI   GL118553  15.109  16.031   7.231 -0.0791  0.1252  0.0333
 1234PYPI   GL218554  15.098  15.818   7.428 -0.1461  0.2865  0.1476
 1234PYPI   C1A18555  14.859  16.230   7.511 -0.4336 -0.1234  0.1916
 1234PYPI   C2A18556  14.660  16.283   7.879  0.0608 -0.1686 -0.0251
 1234PYPI   D3A18557  14.635  16.517   8.188 -0.0860  0.0312 -0.0370
 1234PYPI   C4A18558  14.868  16.659   8.522 -0.3269 -0.1935  0.1208
 1234PYPI   C1B18559  15.170  15.889   7.806 -0.4038 -0.0556  0.1091
 1234PYPI   C2B18560  15.464  15.844   8.177 -0.2106  0.0652 -0.0299
 1234PYPI   C3B18561  15.729  15.965   8.456  0.2128  0.1304  0.0816
 1234PYPI   C4B18562  15.520  16.022   8.841  0.1138 -0.1365 -0.1566
 1235PYPI    C118563  17.211   7.610   5.776 -0.0856  0.0604 -0.2634
 1235PYPI    C218564  17.373   7.728   5.430  0.1583 -0.1357 -0.2193
 1235PYPI    C318565  17.232   7.356   5.469  0.2491 -0.1551 -0.0685
 1235PYPI   PO418566  17.451   7.634   5.997  0.1368 -0.0970 -0.0061
 1235PYPI   GL118567  17.484   7.880   6.345  0.0013  0.0488 -0.0511
 1235PYPI   GL218568  17.558   8.231   6.404  0.3325 -0.0256 -0.3506
 1235PYPI   C1A18569  17.453   7.852   6.783 -0.0531 -0.1757 -0.1131
 1235PYPI   C2A18570  17.412   7.762   7.307  0.0806 -0.0520  0.1401
 1235PYPI   D3A18571  17.433   7.772   7.701  0.0135 -0.4342  0.1801
 1235PYPI   C4A18572  17.501   7.605   8.084  0.2819 -0.1763  0.1936
 1235PYPI   C1B18573  17.598   8.381   6.810 -0.5348 -0.0764  0.0760
 1235PYPI   C2B18574  17.511   8.293   7.234  0.0640  0.3749  0.1415
 1235PYPI   C3B18575  17.371   8.278   7.691  0.0605  0.0849  0.0787
 1235PYPI   C4B18576  17.375   8.362   8.142  0.0401  0.0463 -0.1703
 1236PYPI    C118577  12.211   9.959   5.761 -0.0223 -0.1296  0.1447
 1236PYPI    C218578  12.043  10.061   5.413  0.0887 -0.3240  0.0324
 1236PYPI    C318579  12.435  10.118   5.470  0.0209 -0.0333  0.2299
 1236PYPI   PO418580  12.116   9.989   5.943  0.1156 -0.0629  0.2736
 1236PYPI   GL118581  12.185  10.193   6.308 -0.1408  0.1758  0.1006
 1236PYPI   GL218582  11.916   9.988   6.479 -0.1348 -0.0743 -0.1698
 1236PYPI   C1A18583  12.321  10.204   6.651  0.1069  0.1458 -0.0221
 1236PYPI   C2A18584  12.345  10.122   7.156 -0.3118  0.1670  0.0178
 1236PYPI   D3A18585  12.236  10.134   7.652  0.0708 -0.2544  0.1512
 1236PYPI   C4A18586  12.357  10.074   8.036 -0.4554 -0.0912  0.0903
 1236PYPI   C1B18587  11.824   9.985   6.983 -0.0087  0.1716  0.0433
 1236PYPI   C2B18588  11.858   9.949   7.333 -0.0231  0.1365  0.0817
 1236PYPI   C3B18589  11.819   9.927   7.746 -0.0515  0.2159  0.2937
 1236PYPI   C4B18590  11.872   9.893   8.158 -0.1451 -0.0716 -0.1833
 1237PYPI    C118591   7.854  11.897   5.702 -0.1356  0.0123 -0.1307
 1237PYPI    C218592   8.230  12.033   5.684 -0.1441  0.0746  0.1215
 1237PYPI    C318593   8.132  11.690   5.504 -0.0212  0.1764 -0.1442
 1237PYPI   PO418594   7.804  11.873   5.938  0.0149 -0.0057 -0.3290
 1237PYPI   GL118595   7.740  11.804   6.298 -0.1085  0.0074 -0.0113
 1237PYPI   GL218596   7.821  11.469   6.290 -0.1302 -0.4402 -0.1703
 1237PYPI   C1A18597   7.963  11.950   6.763 -0.1667 -0.1124  0.0481
 1237PYPI   C2A18598   7.989  11.895   7.276 -0.0260 -0.1060  0.0232
 1237PYPI   D3A18599   7.905  11.926   7.720 -0.0316  0.1019  0.2214
 1237PYPI   C4A18600   8.086  11.655   8.091 -0.1284  0.1834 -0.2467
 1237PYPI   C1B18601   7.792  11.442   6.728 -0.2100 -0.1098  0.1117
 1237PYPI   C2B18602   7.864  11.445   7.115 -0.0167  0.0596 -0.3179
 1237PYPI   C3B18603   7.819  11.422   7.519 -0.0556  0.0923  0.0612
 1237PYPI   C4B18604   7.881  11.266   7.873  0.0375 -0.0812 -0.1431
 1238PYPI    C118605   0.530   1.988   6.015  0.2410 -0.0460 -0.1339
 1238PYPI    C218606   0.306   2.225   5.783  0.1808 -0.1299 -0.1620
 1238PYPI    C318607   0.303   1.829   5.727  0.1795 -0.1493 -0.0292
 1238PYPI   PO418608   0.726   2.173   6.094 -0.3398 -0.0290 -0.0937
 1238PYPI   GL118609   0.676   2.431   6.513 -0.1128  0.0160 -0.2940
 1238PYPI   GL218610   0.834   2.204   6.640 -0.0843  0.4673  0.0232
 1238PYPI   C1A18611   0.874   2.705   6.842 -0.0717  0.2956  0.0682
 1238PYPI   C2A18612   1.023   2.814   7.209  0.1666  0.2221 -0.0477
 1238PYPI   D3A18613   0.866   2.923   7.577  0.1642 -0.0109 -0.4176
 1238PYPI   C4A18614   0.960   2.813   7.991 -0.1049  0.1761  0.0283
 1238PYPI   C1B18615   0.821   2.273   7.069  0.0181 -0.3124  0.0714
 1238PYPI   C2B18616   0.856   2.307   7.439 -0.1071  0.1026 -0.0022
 1238PYPI   C3B18617   0.889   2.225   7.868  0.1594  0.2137 -0.0385
 1238PYPI   C4B18618   0.947   2.276   8.294 -0.0509 -0.1045 -0.0169
 1239PYPI    C118619   5.724  12.735   5.449 -0.0592  0.0704  0.0438
 1239PYPI    C218620   5.580  12.391   5.302 -0.1172 -0.0789  0.4372
 1239PYPI    C318621   5.405  12.738   5.207 -0.0722 -0.1571  0.0552
 1239PYPI   PO418622   5.787  12.654   5.795 -0.1538 -0.2780 -0.1640
 1239PYPI   GL118623   5.776  12.859   6.299  0.0114 -0.2534  0.1567
 1239PYPI   GL218624   5.729  12.562   6.358 -0.2529 -0.0408 -0.0703
 1239PYPI   C1A18625   5.413  12.898   6.621  0.1364  0.0954  0.2001
 1239PYPI   C2A18626   5.375  12.855   7.085 -0.0010 -0.6148  0.0125
 1239PYPI   D3A18627   5.428  12.866   7.509  0.0758 -0.4667 -0.1376
 1239PYPI   C4A18628   5.261  12.632   7.824 -0.1324  0.0534 -0.0328
 1239PYPI   C1B18629   5.752  12.548   6.862  0.0007  0.0147  0.1596
 1239PYPI   C2B18630   5.797  12.529   7.303  0.0302  0.1304 -0.1557
 1239PYPI   C3B18631   5.779  12.459   7.795  0.2678 -0.2884  0.0166
 1239PYPI   C4B18632   5.725  12.395   8.201 -0.2169 -0.2150  0.2685
 1240PYPI    C118633   6.584  12.832   5.679  0.0415  0.0406  0.1220
 1240PYPI    C218634   6.200  12.781   5.582  0.0241  0.2611  0.0678
 1240PYPI    C318635   6.481  12.554   5.411 -0.0838  0.0744  0.1347
 1240PYPI   PO418636   6.658  12.741   6.000 -0.4121 -0.0507  0.0822
 1240PYPI   GL118637   6.696  12.939   6.378 -0.0351 -0.2243  0.0522
 1240PYPI   GL218638   6.380  12.871   6.454 -0.0527 -0.3075 -0.0063
 1240PYPI   C1A18639   6.761  12.956   6.816  0.1428 -0.2212  0.1825
 1240PYPI   C2A18640   6.758  13.005   7.184  0.1955  0.2165 -0.2659
 1240PYPI   D3A18641   6.726  12.805   7.602 -0.1811  0.0158  0.3379
 1240PYPI   C4A18642   6.685  12.796   7.992  0.0269 -0.0143 -0.1665
 1240PYPI   C1B18643   6.255  12.762   6.948  0.1925  0.1268  0.1278
 1240PYPI   C2B18644   6.285  12.748   7.298 -0.3549  0.0480 -0.0757
 1240PYPI   C3B18645   6.255  12.638   7.641  0.0508  0.1295  0.1294
 1240PYPI   C4B18646   6.162  12.681   8.107  0.0860  0.2783 -0.5188
 1241PYPI    C118647   0.038  16.159   6.221  0.0710 -0.0794 -0.0057
 1241PYPI    C218648   0.067  16.123   5.823  0.0502 -0.0356 -0.0113
 1241PYPI    C318649  -0.007  15.801   6.048 -0.3420  0.0027 -0.0785
 1241PYPI   PO418650   0.266  16.313   6.234 -0.0182  0.0716 -0.1570
 1241PYPI   GL118651   0.182  16.540   6.642 -0.1683  0.0544 -0.1497
 1241PYPI   GL218652   0.336  16.177   6.706 -0.2976  0.0537 -0.4773
 1241PYPI   C1A18653   0.118  16.627   7.024  0.0642  0.1109 -0.1223
 1241PYPI   C2A18654   0.141  17.034   7.312  0.2333  0.0605 -0.2889
 1241PYPI   D3A18655   0.011  17.057   7.692  0.2618 -0.3388 -0.1605
 1241PYPI   C4A18656   0.029  17.225   8.142 -0.1763 -0.3312  0.1709
 1241PYPI   C1B18657   0.264  16.186   7.210  0.0859 -0.0524  0.2514
 1241PYPI   C2B18658   0.271  16.174   7.661 -0.1547 -0.3042 -0.0291
 1241PYPI   C3B18659   0.298  16.008   8.044  0.0785 -0.2102 -0.0936
 1241PYPI   C4B18660   0.181  15.765   8.414 -0.0430  0.0990  0.0857
 1242PYPI    C118661  15.546  10.102   5.807  0.0547  0.0694 -0.0875
 1242PYPI    C218662  15.208  10.236   5.640 -0.1348  0.0063  0.2376
 1242PYPI    C318663  15.517  10.485   5.695 -0.0642  0.0254 -0.2092
 1242PYPI   PO418664  15.548  10.004   6.034  0.0757  0.1529 -0.2737
 1242PYPI   GL118665  15.539  10.049   6.458  0.1017 -0.1101 -0.1234
 1242PYPI   GL218666  15.236  10.125   6.600 -0.2297  0.3782 -0.1058
 1242PYPI   C1A18667  15.538   9.848   6.823  0.0691  0.0404 -0.0876
 1242PYPI   C2A18668  15.479   9.857   7.267 -0.2052  0.2859 -0.3074
 1242PYPI   D3A18669  15.396   9.903   7.651 -0.0702  0.0817 -0.1015
 1242PYPI   C4A18670  15.473   9.946   8.074  0.0573  0.0312  0.4828
 1242PYPI   C1B18671  15.096  10.187   7.056  0.1211 -0.0006  0.1114
 1242PYPI   C2B18672  15.073  10.182   7.420 -0.0119  0.0860  0.0946
 1242PYPI   C3B18673  15.060  10.248   7.830  0.1174 -0.1421  0.2126
 1242PYPI   C4B18674  15.059  10.280   8.139  0.3462 -0.0539  0.0438
 1243PYPI    C118675   7.994  15.110   5.503 -0.0393 -0.0246 -0.0913
 1243PYPI    C218676   7.740  14.820   5.396  0.1210 -0.2365  0.0906
 1243PYPI    C318677   7.820  15.120   5.143 -0.0381 -0.3556 -0.1044
 1243PYPI   PO418678   7.873  15.183   5.812 -0.0802  0.0345  0.0661
 1243PYPI   GL118679   7.973  15.226   6.176  0.0445  0.3035 -0.0201
 1243PYPI   GL218680   7.692  15.124   6.295  0.0102  0.0537  0.2497
 1243PYPI   C1A18681   8.001  15.361   6.543 -0.1169 -0.0514  0.0538
 1243PYPI   C2A18682   8.019  15.354   7.037  0.1071 -0.2263 -0.1116
 1243PYPI   D3A18683   7.973  15.323   7.497  0.0860 -0.1362 -0.2168
 1243PYPI   C4A18684   7.779  15.383   7.824 -0.1177  0.0465  0.1595
 1243PYPI   C1B18685   7.539  15.213   6.795 -0.0351  0.0388 -0.0879
 1243PYPI   C2B18686   7.524  15.109   7.273 -0.0977 -0.1070 -0.0694
 1243PYPI   C3B18687   7.320  15.090   7.631  0.0399  0.0964  0.2079
 1243PYPI   C4B18688   7.346  15.200   8.041  0.1354 -0.2496 -0.1664
 1244PYPI    C118689   5.294  12.517   5.686  0.3884 -0.0725  0.1597
 1244PYPI    C218690   5.366  12.744   6.007  0.2763 -0.0214  0.1490
 1244PYPI    C318691   5.270  12.915   5.658  0.2859 -0.0813  0.1169
 1244PYPI   PO418692   5.094  12.320   5.877  0.2845 -0.0867  0.0523
 1244PYPI   GL118693   4.954  12.224   6.267  0.2041  0.0629 -0.0477
 1244PYPI   GL218694   5.219  12.286   6.377 -0.1696 -0.0402 -0.1026
 1244PYPI   C1A18695   4.859  12.150   6.690 -0.0898  0.0284 -0.2215
 1244PYPI   C2A18696   4.887  12.154   7.150 -0.0407 -0.0329  0.2403
 1244PYPI   D3A18697   4.667  12.028   7.501  0.1205 -0.0500 -0.2420
 1244PYPI   C4A18698   4.807  12.015   7.915 -0.1588  0.1105 -0.0344
 1244PYPI   C1B18699   5.268  12.437   6.774 -0.2164  0.0331 -0.0175
 1244PYPI   C2B18700   5.279  12.433   7.224  0.1090 -0.0080 -0.1381
 1244PYPI   C3B18701   5.207  12.154   7.570  0.1202 -0.0955 -0.2291
 1244PYPI   C4B18702   5.308  12.126   8.005 -0.0563 -0.1950 -0.0904
 1245PYPI    C118703  13.435  14.156   6.444  0.2083 -0.1678  0.1728
 1245PYPI    C218704  13.379  13.777   6.327 -0.1932 -0.0121 -0.1667
 1245PYPI    C318705  13.592  14.027   6.099 -0.2303  0.0601 -0.1229
 1245PYPI   PO418706  13.437  14.170   6.616  0.1192  0.0601  0.0471
 1245PYPI   GL118707  13.536  14.061   7.027  0.3439 -0.0306  0.2255
 1245PYPI   GL218708  13.584  14.383   7.102  0.2631 -0.3966  0.0576
 1245PYPI   C1A18709  13.358  14.098   7.494  0.2294  0.3420  0.0864
 1245PYPI   C2A18710  13.579  14.131   7.852  0.0656 -0.3723 -0.4524
 1245PYPI   D3A18711  13.640  13.996   8.218 -0.1090 -0.1744 -0.0167
 1245PYPI   C4A18712  13.733  14.296   8.470 -0.0708  0.1951  0.3942
 1245PYPI   C1B18713  13.646  14.615   7.500  0.5310 -0.5463  0.0010
 1245PYPI   C2B18714  13.696  14.671   7.914  0.2801 -0.0642 -0.1255
 1245PYPI   C3B18715  13.837  14.731   8.266 -0.0489  0.0352  0.2024
 1245PYPI   C4B18716  14.043  14.657   8.548  0.0719  0.0195  0.0955
 1246PYPI    C118717   4.202  15.008   6.321 -0.1475 -0.0684 -0.2326
 1246PYPI    C218718   4.127  14.749   6.025 -0.0833  0.2235 -0.5095
 1246PYPI    C318719   3.924  15.094   6.046 -0.2551  0.1026 -0.0731
 1246PYPI   PO418720   4.252  14.856   6.537 -0.0424 -0.0846 -0.1605
 1246PYPI   GL118721   4.390  14.936   7.069  0.0942 -0.3212  0.1726
 1246PYPI   GL218722   4.361  15.059   7.304 -0.1853 -0.0402 -0.1607
 1246PYPI   C1A18723   4.841  15.052   7.203  0.0051  0.1767 -0.1828
 1246PYPI   C2A18724   4.817  14.918   7.539 -0.1275  0.3198  0.1898
 1246PYPI   D3A18725   4.703  15.124   7.871  0.0776 -0.0758  0.0962
 1246PYPI   C4A18726   4.826  15.499   7.859 -0.2916 -0.1789 -0.0219
 1246PYPI   C1B18727   4.289  14.940   7.646  0.0435 -0.3333  0.0708
 1246PYPI   C2B18728   4.337  14.754   8.037 -0.0463  0.0112  0.0016
 1246PYPI   C3B18729   4.139  14.869   8.309 -0.2797 -0.2064 -0.0742
 1246PYPI   C4B18730   4.239  14.650   8.656  0.1092  0.1828  0.1598
 1247PYPI    C118731  14.276   9.142   5.710 -0.0003 -0.1488 -0.2072
 1247PYPI    C218732  14.022   9.321   5.458  0.0828  0.1091 -0.1110
 1247PYPI    C318733  14.395   9.235   5.340  0.0963  0.1556 -0.1032
 1247PYPI   PO418734  14.301   9.260   5.921  0.0820  0.3755  0.1424
 1247PYPI   GL118735  14.324   9.351   6.318  0.1253 -0.1359 -0.0168
 1247PYPI   GL218736  14.519   9.526   6.482  0.1370  0.0621 -0.1960
 1247PYPI   C1A18737  14.005   9.388   6.634  0.2707  0.0435  0.3846
 1247PYPI   C2A18738  14.001   9.392   6.993  0.1464  0.1039 -0.1615
 1247PYPI   D3A18739  13.917   9.301   7.356  0.0106  0.0986 -0.0466
 1247PYPI   C4A18740  14.031   9.274   7.802  0.1728 -0.1634  0.0245
 1247PYPI   C1B18741  14.526   9.646   6.905 -0.1140 -0.1333 -0.2530
 1247PYPI   C2B18742  14.528   9.517   7.344  0.3218 -0.2962  0.2750
 1247PYPI   C3B18743  14.448   9.542   7.801  0.1085  0.2056  0.0343
 1247PYPI   C4B18744  14.467   9.537   8.220 -0.0543 -0.0805  0.0446
 1248ERGO   ROH18745  14.337   5.205   6.746  0.0702 -0.1701  0.0661
 1248ERGO    R118746  14.165   5.195   6.972  0.0674 -0.0490  0.0712
 1248ERGO    R218747  14.146   4.971   7.134 -0.1224 -0.0579  0.0481
 1248ERGO    R318748  14.204   5.149   7.330  0.0450 -0.1279  0.0618
 1248ERGO    R418749  14.124   4.907   7.473  0.1145 -0.1438  0.0479
 1248ERGO    R518750  14.042   5.106   7.501  0.1676 -0.1469  0.1669
 1248ERGO    C118751  14.166   5.036   7.854  0.4096 -0.2597  0.0607
 1248ERGO    C218752  14.196   5.079   8.204 -0.1376  0.0859  0.0435
 1249ERGO   ROH18753   6.019   7.962   6.358  0.0962 -0.1021 -0.0424
 1249ERGO    R118754   5.908   7.801   6.562 -0.1304 -0.0065 -0.0853
 1249ERGO    R218755   6.064   7.666   6.747 -0.3100 -0.2967 -0.1281
 1249ERGO    R318756   5.909   7.798   6.926 -0.1098 -0.1133 -0.0881
 1249ERGO    R418757   6.039   7.588   7.083 -0.3623 -0.2841 -0.1300
 1249ERGO    R518758   5.825   7.627   7.071 -0.3081 -0.0095 -0.0884
 1249ERGO    C118759   5.878   7.667   7.446 -0.2048 -0.1044 -0.0936
 1249ERGO    C218760   5.833   7.597   7.795 -0.0330 -0.1227  0.1719
 1250ERGO   ROH18761   5.230  13.378  11.129 -0.0274  0.0032  0.1757
 1250ERGO    R118762   5.272  13.474  10.867  0.0218 -0.1015  0.1439
 1250ERGO    R218763   5.481  13.387  10.707 -0.0120 -0.2471  0.1753
 1250ERGO    R318764   5.281  13.333  10.531 -0.0330 -0.2167  0.1908
 1250ERGO    R418765   5.518  13.371  10.364 -0.0516 -0.2002  0.1694
 1250ERGO    R518766   5.327  13.474  10.344 -0.0505 -0.1924  0.2056
 1250ERGO    C118767   5.351  13.312   9.999 -0.0945 -0.1443  0.1805
 1250ERGO    C218768   5.222  13.335   9.717  0.1772 -0.0778  0.0356
 1251ERGO   ROH18769  15.563   1.806   6.306  0.1413  0.0707  0.1108
 1251ERGO    R118770  15.457   1.674   6.533  0.1117 -0.0190  0.0451
 1251ERGO    R218771  15.609   1.507   6.693  0.1266  0.0286  0.0792
 1251ERGO    R318772  15.520   1.671   6.891 -0.0353 -0.0480  0.0717
 1251ERGO    R418773  15.643   1.444   7.031  0.3864  0.1744  0.0827
 1251ERGO    R518774  15.441   1.521   7.061  0.2747 -0.1277  0.1533
 1251ERGO    C118775  15.580   1.561   7.414  0.3857  0.1875  0.0777
 1251ERGO    C218776  15.744   1.392   7.769  0.2762 -0.1042 -0.2273
 1252ERGO   ROH18777   0.123  12.954  10.435 -0.2573  0.4198 -0.0270
 1252ERGO    R118778   0.080  13.096  10.194 -0.0856  0.3645 -0.0920
 1252ERGO    R218779   0.268  13.268  10.087  0.0753  0.1833 -0.1082
 1252ERGO    R318780   0.236  13.113   9.866  0.0159  0.1235 -0.0580
 1252ERGO    R418781   0.265  13.386   9.762  0.1251  0.0772 -0.1472
 1252ERGO    R518782   0.103  13.247   9.718  0.0708  0.1275 -0.1030
 1252ERGO    C118783   0.234  13.309   9.365  0.0983 -0.0406 -0.1229
 1252ERGO    C218784   0.240  13.318   9.038 -0.0555  0.1778 -0.0435
 1253ERGO   ROH18785   4.052  14.623   6.953 -0.0235  0.1330  0.0211
 1253ERGO    R118786   4.170  14.446   7.139 -0.0188  0.0062 -0.1008
 1253ERGO    R218787   4.285  14.532   7.376 -0.0814 -0.1604 -0.0074
 1253ERGO    R318788   4.115  14.351   7.486 -0.0623 -0.2893 -0.1852
 1253ERGO    R418789   4.287  14.436   7.707 -0.2451 -0.2837 -0.0412
 1253ERGO    R518790   4.249  14.231   7.644 -0.1010 -0.2800 -0.1443
 1253ERGO    C118791   4.128  14.210   8.005 -0.3226 -0.4765 -0.2279
 1253ERGO    C218792   4.062  14.228   8.357  0.2205  0.0091  0.1376
 1254ERGO   ROH18793  14.877  10.931  10.549  0.1165 -0.0099 -0.0403
 1254ERGO    R118794  15.056  10.878  10.336  0.0807 -0.0812 -0.0528
 1254ERGO    R218795  14.972  10.848  10.075  0.0573  0.0163 -0.0542
 1254ERGO    R318796  15.155  11.043  10.027  0.1764 -0.0871 -0.0268
 1254ERGO    R418797  15.085  10.940   9.761 -0.0920  0.1643 -0.0659
 1254ERGO    R518798  15.286  10.959   9.845 -0.0143 -0.0553 -0.1852
 1254ERGO    C118799  15.323  11.177   9.534 -0.0672  0.1534 -0.0470
 1254ERGO    C218800  15.320  11.344   9.216 -0.0932 -0.0215 -0.1591
 1255ERGO   ROH18801   2.202  10.631  10.380 -0.1879 -0.1187 -0.0058
 1255ERGO    R118802   2.112  10.618  10.112  0.0390 -0.1956 -0.0799
 1255ERGO    R218803   2.037  10.842   9.969 -0.2277 -0.2767 -0.0715
 1255ERGO    R318804   2.220  10.750   9.791  0.0705  0.0764  0.0406
 1255ERGO    R418805   2.011  10.875   9.626 -0.1844 -0.5045 -0.0989
 1255ERGO    R518806   2.088  10.672   9.606  0.3211 -0.3374  0.0256
 1255ERGO    C118807   2.168  10.808   9.259  0.1208 -0.3058 -0.0095
 1255ERGO    C218808   2.230  10.742   9.038  0.1049 -0.0689 -0.4123
 1256ERGO   ROH18809   1.331  14.166  10.683  0.0664  0.1894  0.0058
 1256ERGO    R118810   1.286  14.262  10.421  0.2131  0.1745 -0.0246
 1256ERGO    R218811   1.491  14.300  10.239  0.2589 -0.3414 -0.0858
 1256ERGO    R318812   1.336  14.140  10.082 -0.1222 -0.0853  0.0122
 1256ERGO    R418813   1.507  14.284   9.894 -0.0265 -0.3275 -0.1036
 1256ERGO    R518814   1.290  14.272   9.888 -0.0621  0.0178  0.0620
 1256ERGO    C118815   1.372  14.125   9.546 -0.5503 -0.0789 -0.0219
 1256ERGO    C218816   1.371  14.130   9.255  0.1992 -0.1364 -0.1761
 1257ERGO   ROH18817  10.750   0.327   6.727  0.0890 -0.0819 -0.0583
 1257ERGO    R118818  10.665   0.394   6.989  0.0522 -0.0574 -0.0763
 1257ERGO    R218819  10.528   0.216   7.151  0.1465 -0.0884 -0.0300
 1257ERGO    R318820  10.729   0.272   7.325  0.1165  0.0656 -0.0433
 1257ERGO    R418821  10.489   0.249   7.492  0.1342 -0.0581 -0.0342
 1257ERGO    R518822  10.628   0.416   7.487  0.0295  0.0290 -0.0642
 1257ERGO    C118823  10.655   0.320   7.855  0.0988  0.1042 -0.0491
 1257ERGO    C218824  10.656   0.302   8.087  0.2339 -0.0552 -0.0925
 1258ERGO   ROH18825  15.072   4.481   6.842  0.0956  0.0538  0.0107
 1258ERGO    R118826  14.922   4.421   7.074  0.0034 -0.0803 -0.0824
 1258ERGO    R218827  15.012   4.247   7.268  0.0272 -0.0205 -0.0383
 1258ERGO    R318828  14.964   4.458   7.433 -0.2407 -0.0658 -0.0540
 1258ERGO    R418829  15.016   4.233   7.614  0.1838  0.0415 -0.0368
 1258ERGO    R518830  14.842   4.363   7.616 -0.0237 -0.2298  0.0091
 1258ERGO    C118831  14.973   4.423   7.969  0.0235  0.0350 -0.0508
 1258ERGO    C218832  14.951   4.426   8.341 -0.3621 -0.0262 -0.1168
 1259ERGO   ROH18833  13.168   3.388   6.566 -0.0951 -0.0859 -0.0443
 1259ERGO    R118834  13.111   3.551   6.790 -0.0161 -0.0526 -0.0489
 1259ERGO    R218835  12.917   3.487   6.976 -0.0796  0.0737 -0.0719
 1259ERGO    R318836  13.122   3.516   7.152 -0.0844 -0.0628 -0.0491
 1259ERGO    R418837  12.882   3.521   7.318 -0.0958  0.0829 -0.0743
 1259ERGO    R518838  13.040   3.670   7.315 -0.0041 -0.0195 -0.0519
 1259ERGO    C118839  13.055   3.569   7.682 -0.1097 -0.0399 -0.0543
 1259ERGO    C218840  13.058   3.609   7.966 -0.0643 -0.0696  0.1217
 1260ERGO   ROH18841   0.342   3.633   6.610  0.2135 -0.0766  0.1701
 1260ERGO    R118842   0.467   3.568   6.856  0.0011 -0.0591  0.2845
 1260ERGO    R218843   0.557   3.761   7.032 -0.0378 -0.0465  0.2899
 1260ERGO    R318844   0.401   3.626   7.209 -0.2339  0.0838  0.2193
 1260ERGO    R418845   0.598   3.764   7.375 -0.2862  0.0379  0.3212
 1260ERGO    R518846   0.553   3.551   7.378 -0.3924  0.0602  0.3543
 1260ERGO    C118847   0.476   3.639   7.741 -0.6150  0.2095  0.2732
 1260ERGO    C218848   0.542   3.686   8.122 -0.2540  0.0970 -0.1872
 1261ERGO   ROH18849  16.700   1.166   6.791 -0.1830  0.0076 -0.1031
 1261ERGO    R118850  16.683   1.088   7.063 -0.0232  0.0027 -0.0934
 1261ERGO    R218851  16.903   1.083   7.231  0.0602  0.0804 -0.2004
 1261ERGO    R318852  16.748   1.242   7.386  0.0808  0.0262 -0.1242
 1261ERGO    R418853  16.956   1.142   7.567  0.0001 -0.1910 -0.1414
 1261ERGO    R518854  16.740   1.130   7.598 -0.0160 -0.1312 -0.2074
 1261ERGO    C118855  16.841   1.326   7.909 -0.0159 -0.4000 -0.0356
 1261ERGO    C218856  16.788   1.319   8.342  0.1617  0.0868 -0.0458
 1262ERGO   ROH18857   5.628   0.743   6.377  0.2248 -0.0878  0.0732
 1262ERGO    R118858   5.730   0.831   6.626  0.3487 -0.3647  0.1235
 1262ERGO    R218859   5.591   1.004   6.792  0.7618  0.0934  0.0140
 1262ERGO    R318860   5.631   0.807   6.975  0.0524 -0.0246  0.0685
 1262ERGO    R418861   5.570   1.045   7.134  0.5712  0.1734 -0.0062
 1262ERGO    R518862   5.744   0.916   7.156  0.2058 -0.3222  0.1593
 1262ERGO    C118863   5.595   0.885   7.506 -0.2058  0.1093  0.0331
 1262ERGO    C218864   5.651   0.747   7.797 -0.0105  0.1397 -0.0206
 1263ERGO   ROH18865  13.958  11.243   6.643 -0.0574  0.0289  0.1025
 1263ERGO    R118866  13.828  11.313   6.885 -0.2442 -0.2361  0.0830
 1263ERGO    R218867  13.738  11.123   7.066  0.1507 -0.4315  0.0892
 1263ERGO    R318868  13.889  11.266   7.241 -0.1752 -0.0748  0.0921
 1263ERGO    R418869  13.719  11.099   7.410  0.0794 -0.3310  0.0926
 1263ERGO    R518870  13.741  11.315   7.422 -0.3317 -0.2808  0.0203
 1263ERGO    C118871  13.850  11.219   7.775 -0.2680  0.0625  0.0974
 1263ERGO    C218872  13.875  11.144   8.088 -0.0571 -0.0333  0.0227
 1264ERGO   ROH18873   0.663   0.146   6.374 -0.0600  0.0032  0.0073
 1264ERGO    R118874   0.523   0.175   6.618 -0.1291 -0.2142 -0.0032
 1264ERGO    R218875   0.512  -0.026   6.808  0.2431 -0.2114  0.0387
 1264ERGO    R318876   0.606   0.169   6.972 -0.1230  0.0083 -0.0016
 1264ERGO    R418877   0.509  -0.040   7.153  0.3288 -0.1589  0.0411
 1264ERGO    R518878   0.453   0.171   7.156 -0.0968 -0.2696  0.0201
 1264ERGO    C118879   0.596   0.136   7.508  0.0350  0.0780  0.0046
 1264ERGO    C218880   0.621   0.284   7.855 -0.2363  0.1250  0.1455
 1265ERGO   ROH18881   9.753  16.118   6.474 -0.0729 -0.0986 -0.0089
 1265ERGO    R118882   9.623  16.141   6.724 -0.0682  0.0940 -0.0222
 1265ERGO    R218883   9.503  15.926   6.850 -0.0096  0.1729  0.1784
 1265ERGO    R318884   9.663  16.000   7.057 -0.0165  0.4021  0.1046
 1265ERGO    R418885   9.414  15.908   7.183  0.2046 -0.0403  0.2266
 1265ERGO    R518886   9.512  16.100   7.215 -0.0998  0.1213  0.2061
 1265ERGO    C118887   9.512  15.966   7.572  0.3228  0.0508  0.1852
 1265ERGO    C218888   9.384  15.921   7.899 -0.0469  0.1074  0.3530
 1266ERGO   ROH18889   1.793   6.447   6.355  0.1349 -0.4149 -0.0307
 1266ERGO    R118890   1.682   6.548   6.594  0.2407 -0.1566 -0.0878
 1266ERGO    R218891   1.489   6.412   6.739 -0.0418  0.2113 -0.1033
 1266ERGO    R318892   1.666   6.445   6.943 -0.0372 -0.0411 -0.0636
 1266ERGO    R418893   1.402   6.467   7.069 -0.0442  0.4414 -0.1403
 1266ERGO    R518894   1.565   6.611   7.083  0.2039  0.1708 -0.1322
 1266ERGO    C118895   1.517   6.529   7.452 -0.0413  0.3385 -0.1246
 1266ERGO    C218896   1.498   6.461   7.728  0.0631 -0.0135  0.0523
 1267ERGO   ROH18897  13.027   2.008   6.582  0.1713  0.0967 -0.0410
 1267ERGO    R118898  12.857   1.969   6.806  0.0891 -0.0916 -0.1319
 1267ERGO    R218899  12.945   1.853   7.040  0.0601 -0.1107 -0.1178
 1267ERGO    R318900  12.846   2.080   7.152 -0.1450 -0.2065 -0.1040
 1267ERGO    R418901  12.895   1.899   7.379  0.0810 -0.1285 -0.1134
 1267ERGO    R518902  12.708   2.002   7.332 -0.0245 -0.3243 -0.0728
 1267ERGO    C118903  12.773   2.140   7.681 -0.0995 -0.2289 -0.0979
 1267ERGO    C218904  12.730   2.079   8.017 -0.2739 -0.1473 -0.0616
 1268ERGO   ROH18905   3.371  12.616   6.341 -0.1161 -0.1006  0.2206
 1268ERGO    R118906   3.479  12.500   6.576  0.0173  0.0419  0.2324
 1268ERGO    R218907   3.554  12.650   6.794 -0.1082  0.1550  0.2032
 1268ERGO    R318908   3.388  12.481   6.928  0.0625  0.0146  0.2418
 1268ERGO    R418909   3.528  12.632   7.138  0.1757 -0.0667  0.2172
 1268ERGO    R518910   3.514  12.414   7.121  0.2413 -0.0580  0.0987
 1268ERGO    C118911   3.356  12.464   7.464  0.5012 -0.3276  0.2617
 1268ERGO    C218912   3.453  12.459   7.835 -0.0270  0.3461 -0.0716
 1269ERGO   ROH18913   5.416   6.965   6.585  0.1418 -0.1857  0.0137
 1269ERGO    R118914   5.372   6.849   6.840 -0.0201 -0.1410  0.0078
 1269ERGO    R218915   5.509   6.928   7.066  0.0650 -0.3159  0.0218
 1269ERGO    R318916   5.259   6.962   7.167  0.0960 -0.0093  0.0031
 1269ERGO    R418917   5.434   6.948   7.402  0.0547 -0.3491  0.0206
 1269ERGO    R518918   5.257   6.827   7.365 -0.1137 -0.0898 -0.0516
 1269ERGO    C118919   5.156   6.992   7.693  0.0778 -0.0807  0.0023
 1269ERGO    C218920   5.148   7.005   8.150 -0.0505 -0.1507 -0.0471
 1270ERGO   ROH18921   2.114   1.421   6.639  0.0077 -0.1303 -0.1171
 1270ERGO    R118922   2.014   1.332   6.889  0.0797 -0.1025 -0.0775
 1270ERGO    R218923   2.174   1.213   7.080  0.1732  0.0807 -0.0350
 1270ERGO    R318924   2.074   1.409   7.240  0.0456  0.0775 -0.1107
 1270ERGO    R418925   2.207   1.223   7.424  0.2518  0.2910 -0.0476
 1270ERGO    R518926   2.001   1.293   7.437  0.1961  0.1186 -0.0320
 1270ERGO    C118927   2.132   1.413   7.774  0.1777  0.4104 -0.1261
 1270ERGO    C218928   2.173   1.473   8.151  0.1025 -0.2401  0.1171
 1271ERGO   ROH18929   0.217   9.392   6.224 -0.1525  0.0699 -0.0107
 1271ERGO    R118930   0.194   9.304   6.492 -0.4172  0.1368 -0.0101
 1271ERGO    R218931   0.392   9.346   6.680 -0.2964 -0.4123 -0.0036
 1271ERGO    R318932   0.188   9.459   6.822 -0.0019  0.1711 -0.0128
 1271ERGO    R418933   0.350   9.318   7.022 -0.4319 -0.3759 -0.0159
 1271ERGO    R518934   0.136   9.296   6.989 -0.5168  0.2696 -0.0587
 1271ERGO    C118935   0.135   9.408   7.354 -0.2343  0.1931 -0.0317
 1271ERGO    C218936   0.085   9.298   7.791 -0.0151 -0.0537  0.0439
 1272ERGO   ROH18937  11.487   6.132   6.622  0.4320 -0.0831 -0.1786
 1272ERGO    R118938  11.509   5.965   6.849  0.4045 -0.0412 -0.1444
 1272ERGO    R218939  11.657   6.034   7.071  0.2166  0.0906 -0.0543
 1272ERGO    R318940  11.424   5.986   7.202  0.1632 -0.0553 -0.2003
 1272ERGO    R418941  11.624   6.021   7.415  0.0296 -0.0552 -0.0771
 1272ERGO    R518942  11.488   5.852   7.390  0.1125 -0.1002 -0.2168
 1272ERGO    C118943  11.385   5.968   7.738 -0.1295 -0.2771 -0.2274
 1272ERGO    C218944  11.523   6.028   8.043 -0.0823  0.4268 -0.2406
 1273ERGO   ROH18945  17.101  15.141   8.251  0.0062  0.1197 -0.1625
 1273ERGO    R118946  17.108  14.865   8.189  0.1375  0.0895 -0.0203
 1273ERGO    R218947  16.939  14.750   8.002  0.1602 -0.0961  0.0696
 1273ERGO    R318948  17.173  14.662   7.895  0.1866 -0.0296  0.0722
 1273ERGO    R418949  16.973  14.468   7.806  0.2182  0.0008 -0.0609
 1273ERGO    R518950  17.159  14.424   7.909  0.1998 -0.0371 -0.0464
 1273ERGO    C118951  17.211  14.221   7.590  0.2766  0.1195 -0.1344
 1273ERGO    C218952  17.124  14.196   7.228  0.1413 -0.0677  0.0235
 1274ERGO   ROH18953   7.663  10.354   6.427  0.1023 -0.2885  0.1141
 1274ERGO    R118954   7.710  10.453   6.688  0.1177 -0.1385  0.0545
 1274ERGO    R218955   7.547  10.391   6.902  0.0925  0.0394  0.0845
 1274ERGO    R318956   7.781  10.311   7.016  0.0657  0.0471  0.1477
 1274ERGO    R418957   7.609  10.388   7.242 -0.0235 -0.0247  0.1066
 1274ERGO    R518958   7.811  10.461   7.200 -0.0181  0.0130  0.1911
 1274ERGO    C118959   7.865  10.311   7.546 -0.1160 -0.0547  0.1788
 1274ERGO    C218960   7.698  10.215   7.834 -0.2849 -0.0525  0.5461
 1275ERGO   ROH18961  15.633   8.756  10.887  0.0535  0.0231  0.0335
 1275ERGO    R118962  15.539   8.684  10.629  0.0960 -0.0405  0.0364
 1275ERGO    R218963  15.617   8.818  10.401 -0.0076  0.0183  0.0396
 1275ERGO    R318964  15.687   8.569  10.317  0.1681  0.0678  0.0281
 1275ERGO    R418965  15.607   8.710  10.073  0.1437  0.0561  0.0209
 1275ERGO    R518966  15.529   8.519  10.143  0.2394 -0.0049 -0.0212
 1275ERGO    C118967  15.666   8.414   9.803  0.3967  0.1244 -0.0007
 1275ERGO    C218968  15.674   8.267   9.477 -0.0108  0.0643 -0.0784
 1276ERGO   ROH18969   8.083   7.718   6.325  0.0491 -0.1545  0.0256
 1276ERGO    R118970   8.163   7.591   6.565 -0.1539 -0.1909  0.0763
 1276ERGO    R218971   8.331   7.712   6.749  0.0388 -0.3812  0.0346
 1276ERGO    R318972   8.129   7.656   6.922 -0.0613  0.0041  0.0501
 1276ERGO    R418973   8.373   7.640   7.084 -0.0747 -0.4916  0.0251
 1276ERGO    R518974   8.219   7.486   7.065 -0.3836 -0.1886  0.0291
 1276ERGO    C118975   8.208   7.545   7.442 -0.2348 -0.1941  0.0341
 1276ERGO    C218976   8.046   7.507   7.823  0.1202  0.1283 -0.1196
 1277ERGO   ROH18977   1.106  12.155   6.490  0.2782 -0.0787 -0.0196
 1277ERGO    R118978   1.065  12.249   6.753  0.3047 -0.0155 -0.0376
 1277ERGO    R218979   0.917  12.108   6.940  0.1102  0.1475 -0.0636
 1277ERGO    R318980   1.142  12.134   7.090  0.1007 -0.0710 -0.0084
 1277ERGO    R418981   0.922  12.145   7.284  0.0594  0.2060 -0.0691
 1277ERGO    R518982   1.082  12.291   7.261  0.2270  0.0275 -0.0543
 1277ERGO    C118983   1.137  12.191   7.624  0.0209  0.0348 -0.0204
 1277ERGO    C218984   1.074  12.066   7.977 -0.1075 -0.2250  0.3404
 1278ERGO   ROH18985   0.393  17.481  10.765 -0.2227  0.0179  0.0484
 1278ERGO    R118986   0.448  17.346  10.522 -0.0372 -0.0348  0.1178
 1278ERGO    R218987   0.251  17.283  10.338  0.0645 -0.2816  0.0840
 1278ERGO    R318988   0.415  17.416  10.167 -0.0006 -0.2064  0.0805
 1278ERGO    R418989   0.290  17.206  10.004 -0.0378 -0.1461  0.0406
 1278ERGO    R518990   0.504  17.245  10.025 -0.0362 -0.1424 -0.0161
 1278ERGO    C118991   0.466  17.286   9.648 -0.1585  0.0033  0.0119
 1278ERGO    C218992   0.452  17.309   9.409  0.2541  0.1415  0.0215
 1279ERGO   ROH18993   4.987   2.504   6.363  0.1842 -0.1335 -0.1377
 1279ERGO    R118994   4.930   2.415   6.626 -0.0258 -0.0172 -0.1432
 1279ERGO    R218995   5.128   2.352   6.808 -0.1736 -0.1707 -0.0399
 1279ERGO    R318996   4.996   2.531   6.964 -0.0700 -0.0059 -0.1371
 1279ERGO    R418997   5.093   2.327   7.151 -0.3827 -0.0915 -0.0532
 1279ERGO    R518998   4.888   2.397   7.130 -0.3038  0.1261 -0.1748
 1279ERGO    C118999   4.949   2.481   7.498 -0.4072  0.1094 -0.1522
 1279ERGO    C219000   5.148   2.559   7.812  0.1124  0.0947  0.3643
 1280ERGO   ROH19001   7.855   4.884   6.749 -0.1232 -0.2700 -0.0377
 1280ERGO    R119002   7.791   5.013   6.993 -0.3199 -0.3127 -0.0663
 1280ERGO    R219003   7.656   4.886   7.198  0.0221 -0.5298  0.0223
 1280ERGO    R319004   7.870   4.968   7.345 -0.0978 -0.0101 -0.0714
 1280ERGO    R419005   7.656   4.927   7.541  0.0693 -0.5791  0.0291
 1280ERGO    R519006   7.775   5.108   7.515 -0.3834 -0.2593 -0.0089
 1280ERGO    C119007   7.856   5.028   7.879 -0.0160 -0.1198 -0.0549
 1280ERGO    C219008   7.740   4.976   8.211  0.2784  0.0824 -0.1153
 1281ERGO   ROH19009   5.815  10.107   6.460  0.0830 -0.0211  0.1097
 1281ERGO    R119010   5.875  10.207   6.717 -0.0451 -0.0301  0.1446
 1281ERGO    R219011   5.689  10.215   6.922 -0.1004 -0.1975  0.1063
 1281ERGO    R319012   5.880  10.077   7.057 -0.0366 -0.0962  0.1183
 1281ERGO    R419013   5.699  10.177   7.265 -0.0018 -0.0505  0.1199
 1281ERGO    R519014   5.915  10.205   7.257 -0.0133 -0.0062  0.0543
 1281ERGO    C119015   5.884  10.026   7.592  0.1154  0.1302  0.1390
 1281ERGO    C219016   5.820   9.997   7.849  0.3846 -0.2826  0.1578
 1282ERGO   ROH19017   9.484   6.575   6.511  0.0305 -0.1690  0.1048
 1282ERGO    R119018   9.588   6.587   6.774 -0.0425  0.0163  0.1272
 1282ERGO    R219019   9.508   6.778   6.957 -0.2504  0.0204  0.0396
 1282ERGO    R319020   9.454   6.562   7.112 -0.1062  0.0290  0.1021
 1282ERGO    R419021   9.440   6.790   7.296  0.0660  0.0325  0.1051
 1282ERGO    R519022   9.561   6.610   7.321  0.0883  0.0358  0.0008
 1282ERGO    C119023   9.350   6.594   7.638  0.3856  0.0476  0.2019
 1282ERGO    C219024   9.299   6.531   7.918  0.1014 -0.0247  0.0111
 1283ERGO   ROH19025  14.635  17.484   6.847  0.0212 -0.2969 -0.0718
 1283ERGO    R119026  14.612  17.367   7.104  0.0606 -0.2484 -0.0460
 1283ERGO    R219027  14.824  17.353   7.281  0.0363 -0.0336  0.0032
 1283ERGO    R319028  14.650  17.476   7.449 -0.0985 -0.1269 -0.0661
 1283ERGO    R419029  14.848  17.352   7.626 -0.0118  0.1105  0.0074
 1283ERGO    R519030  14.632  17.327   7.636  0.0070 -0.0776 -0.0159
 1283ERGO    C119031  14.699  17.468   7.984 -0.1662  0.1069 -0.0550
 1283ERGO    C219032  14.558  17.584   8.276 -0.1541 -0.4558 -0.3239
 1284ERGO   ROH19033  16.219   8.126   6.586 -0.1749 -0.1433  0.0215
 1284ERGO    R119034  16.270   8.218   6.848 -0.0341 -0.1498 -0.0036
 1284ERGO    R219035  16.068   8.296   7.020  0.0722  0.0282  0.0376
 1284ERGO    R319036  16.184   8.114   7.186 -0.0258 -0.0397  0.0336
 1284ERGO    R419037  16.024   8.287   7.363  0.1918  0.1490  0.0576
 1284ERGO    R519038  16.237   8.240   7.384  0.1628 -0.0376 -0.0135
 1284ERGO    C119039  16.107   8.112   7.719  0.1692  0.1555  0.0656
 1284ERGO    C219040  15.977   8.188   8.126  0.0564  0.2527  0.4221
 1285ERGO   ROH19041   2.359  10.967   6.195  0.0280  0.0370 -0.0005
 1285ERGO    R119042   2.221  11.010   6.439 -0.0270 -0.2064  0.0144
 1285ERGO    R219043   2.272  10.862   6.667  0.3392 -0.0518  0.0417
 1285ERGO    R319044   2.308  11.107   6.779 -0.1710  0.0640 -0.0224
 1285ERGO    R419045   2.258  10.928   7.006  0.2588 -0.0100  0.0294
 1285ERGO    R519046   2.152  11.113   6.960 -0.1590 -0.2397  0.0051
 1285ERGO    C119047   2.284  11.196   7.308 -0.2670  0.1232 -0.0380
 1285ERGO    C219048   2.292  11.257   7.633 -0.1300  0.0370 -0.1871
 1286ERGO   ROH19049   5.051   7.752   6.583 -0.0986 -0.1462 -0.0520
 1286ERGO    R119050   5.094   7.731   6.862 -0.1223 -0.3468 -0.0605
 1286ERGO    R219051   5.064   7.946   7.034  0.3536 -0.3302  0.0210
 1286ERGO    R319052   4.897   7.777   7.164 -0.0186 -0.0273 -0.0354
 1286ERGO    R419053   5.008   7.947   7.375  0.1849 -0.1862 -0.0064
 1286ERGO    R519054   5.009   7.729   7.371 -0.1966 -0.1993  0.0269
 1286ERGO    C119055   4.819   7.788   7.696 -0.2627  0.1820 -0.0752
 1286ERGO    C219056   4.921   7.817   8.097 -0.1865  0.0462 -0.0279
 1287ERGO   ROH19057   4.012   2.672   6.251  0.2097  0.0614  0.0104
 1287ERGO    R119058   4.101   2.732   6.513 -0.0372  0.1622  0.0728
 1287ERGO    R219059   3.931   2.828   6.709 -0.3284 -0.2231  0.0160
 1287ERGO    R319060   4.028   2.616   6.850  0.0181 -0.0808  0.0034
 1287ERGO    R419061   3.991   2.827   7.050 -0.2581 -0.1239  0.0051
 1287ERGO    R519062   4.174   2.714   7.012 -0.0913  0.1443 -0.0278
 1287ERGO    C119063   4.118   2.627   7.379  0.1080  0.0675 -0.0130
 1287ERGO    C219064   4.080   2.578   7.700 -0.1102  0.1046 -0.0530
 1288ERGO   ROH19065   2.877  14.409   6.481 -0.2150  0.2621  0.3337
 1288ERGO    R119066   2.792  14.383   6.750 -0.1238  0.0112  0.3412
 1288ERGO    R219067   2.772  14.138   6.876  0.0297 -0.1014  0.1581
 1288ERGO    R319068   2.933  14.256   7.060  0.0292 -0.1674  0.2005
 1288ERGO    R419069   2.719  14.134   7.218 -0.0876 -0.0319  0.1412
 1288ERGO    R519070   2.783  14.342   7.226  0.0206 -0.0674  0.1389
 1288ERGO    C119071   2.840  14.242   7.589 -0.1564 -0.0532  0.1713
 1288ERGO    C219072   2.831  14.129   7.880  0.0025 -0.0989 -0.0969
 1289ERGO   ROH19073  11.162   7.063   6.645 -0.0388 -0.0344  0.0739
 1289ERGO    R119074  11.164   6.911   6.884 -0.0561 -0.0068  0.0915
 1289ERGO    R219075  11.370   6.924   7.068 -0.0103 -0.0779  0.0453
 1289ERGO    R319076  11.169   6.980   7.241  0.0519  0.0336  0.0828
 1289ERGO    R419077  11.386   6.878   7.410  0.0972  0.0973  0.0654
 1289ERGO    R519078  11.181   6.805   7.404  0.0866  0.1157  0.1702
 1289ERGO    C119079  11.206   6.903   7.772  0.2184  0.3041  0.1124
 1289ERGO    C219080  11.175   6.846   7.951  0.1224  0.1995 -0.0578
 1290ERGO   ROH19081   9.130   0.756   8.337 -0.0153  0.0069  0.0512
 1290ERGO    R119082   9.236   0.874   8.103  0.0208 -0.0596  0.0335
 1290ERGO    R219083   9.374   0.729   7.912  0.0377 -0.1170  0.0881
 1290ERGO    R319084   9.189   0.836   7.744  0.0642 -0.1509  0.0373
 1290ERGO    R419085   9.389   0.716   7.567  0.2959  0.1527  0.0852
 1290ERGO    R519086   9.317   0.921   7.560  0.1237  0.0975  0.1900
 1290ERGO    C119087   9.224   0.809   7.208  0.4710  0.2779  0.0358
 1290ERGO    C219088   9.264   0.688   6.936  0.0201 -0.0083  0.1368
 1291ERGO   ROH19089  12.746   7.468   6.692 -0.0500  0.0233 -0.0330
 1291ERGO    R119090  12.854   7.452   6.953 -0.0482  0.1050 -0.0283
 1291ERGO    R219091  12.770   7.615   7.159 -0.1512  0.0705 -0.0402
 1291ERGO    R319092  12.731   7.379   7.287 -0.0162  0.0543 -0.0281
 1291ERGO    R419093  12.757   7.576   7.503 -0.2389  0.0956 -0.0407
 1291ERGO    R519094  12.871   7.392   7.481 -0.0927  0.1800  0.0182
 1291ERGO    C119095  12.713   7.331   7.822 -0.1632  0.0951 -0.0296
 1291ERGO    C219096  12.564   7.334   8.212  0.0387  0.2926  0.2688
 1292ERGO   ROH19097  11.835  10.551   6.549 -0.0010  0.3031 -0.0513
 1292ERGO    R119098  11.823  10.440   6.810 -0.0208  0.1474 -0.1178
 1292ERGO    R219099  12.032  10.461   6.990 -0.0549  0.0811 -0.0744
 1292ERGO    R319100  11.839  10.565   7.151 -0.0985 -0.0518 -0.0389
 1292ERGO    R419101  12.031  10.441   7.335  0.1421  0.2618 -0.0611
 1292ERGO    R519102  11.816  10.405   7.327  0.1734  0.0097  0.0608
 1292ERGO    C119103  11.850  10.527   7.687  0.2158  0.2423 -0.0201
 1292ERGO    C219104  11.937  10.416   8.024  0.0678 -0.0253 -0.1459
 1293ERGO   ROH19105   4.746   4.229   6.657  0.0773  0.0055  0.1680
 1293ERGO    R119106   4.906   4.304   6.878  0.0234 -0.0122  0.2135
 1293ERGO    R219107   4.838   4.511   7.048  0.0432  0.0550  0.1416
 1293ERGO    R319108   4.867   4.320   7.240 -0.1106  0.0840  0.1950
 1293ERGO    R419109   4.820   4.568   7.388 -0.0572  0.1351  0.1231
 1293ERGO    R519110   4.986   4.431   7.416 -0.1279  0.0688  0.2149
 1293ERGO    C119111   4.836   4.423   7.766 -0.2602  0.2089  0.1624
 1293ERGO    C219112   4.809   4.394   8.139  0.0565  0.0218  0.2234
 1294ERGO   ROH19113   0.078   4.073   6.683 -0.0715  0.2138 -0.1275
 1294ERGO    R119114   0.155   3.946   6.925 -0.0612  0.1571 -0.1569
 1294ERGO    R219115   0.280   4.082   7.131 -0.0047  0.1042 -0.1376
 1294ERGO    R319116   0.075   3.979   7.278 -0.0125  0.1176 -0.1458
 1294ERGO    R419117   0.279   4.051   7.476 -0.0294  0.0838 -0.1424
 1294ERGO    R519118   0.182   3.857   7.453 -0.0409  0.1044 -0.1503
 1294ERGO    C119119   0.086   3.937   7.813 -0.0511  0.0845 -0.1528
 1294ERGO    C219120   0.234   4.060   8.125 -0.2958 -0.0461  0.2870
 1295ERGO   ROH19121  11.725   4.007   6.620 -0.2496  0.1724  0.1956
 1295ERGO    R119122  11.722   4.109   6.884 -0.2612  0.0861  0.2284
 1295ERGO    R219123  11.535   4.029   7.072 -0.1399 -0.1329  0.2558
 1295ERGO    R319124  11.756   3.973   7.220 -0.0494  0.0086  0.1775
 1295ERGO    R419125  11.561   4.070   7.414 -0.1483 -0.3836  0.2886
 1295ERGO    R519126  11.763   4.145   7.386 -0.2367 -0.1148  0.3199
 1295ERGO    C119127  11.783   4.041   7.752 -0.0684 -0.3967  0.2342
 1295ERGO    C219128  11.812   4.037   8.099  0.1519  0.4758  0.0162
 1296ERGO   ROH19129   3.186  11.631   6.278  0.0521 -0.0410 -0.2116
 1296ERGO    R119130   3.182  11.489   6.524  0.4770 -0.0323 -0.1921
 1296ERGO    R219131   3.381  11.515   6.714  0.3462  0.7148 -0.1278
 1296ERGO    R319132   3.171  11.574   6.877  0.0558  0.0012 -0.2081
 1296ERGO    R419133   3.387  11.498   7.060  0.2221  0.6199 -0.1294
 1296ERGO    R519134   3.187  11.414   7.054  0.4723 -0.0235 -0.2576
 1296ERGO    C119135   3.194  11.543   7.413 -0.1227 -0.1052 -0.2059
 1296ERGO    C219136   3.287  11.506   7.724 -0.0855 -0.0816  0.0145
 1297ERGO   ROH19137  12.426  14.499   6.770 -0.0620 -0.0659 -0.1008
 1297ERGO    R119138  12.484  14.468   7.045  0.1310 -0.0124 -0.1338
 1297ERGO    R219139  12.336  14.304   7.211  0.1840  0.0978  0.0227
 1297ERGO    R319140  12.579  14.196   7.266  0.1804  0.0097 -0.1267
 1297ERGO    R419141  12.421  14.155   7.511  0.2940  0.0263 -0.0434
 1297ERGO    R519142  12.617  14.251   7.497  0.3212 -0.0343 -0.1360
 1297ERGO    C119143  12.699  13.967   7.738  0.3547 -0.0981 -0.2221
 1297ERGO    C219144  12.632  13.869   8.099  0.1049 -0.1011  0.1493
 1298ERGO   ROH19145   3.039  16.106   6.535 -0.3013 -0.2612  0.0462
 1298ERGO    R119146   2.878  16.050   6.760 -0.2438  0.2071  0.2162
 1298ERGO    R219147   2.932  15.842   6.934 -0.6733  0.0184  0.1374
 1298ERGO    R319148   2.922  16.038   7.122  0.1157  0.0570  0.1714
 1298ERGO    R419149   2.926  15.788   7.275 -0.6997 -0.0078  0.1328
 1298ERGO    R519150   2.780  15.950   7.293 -0.1364  0.5312  0.2257
 1298ERGO    C119151   2.914  15.942   7.650  0.0257  0.0132  0.1621
 1298ERGO    C219152   3.013  15.846   7.840 -0.3760 -0.1199  0.0947
 1299ERGO   ROH19153  13.876  16.807   6.784  0.1041  0.0264  0.0093
 1299ERGO    R119154  13.761  16.728   7.030 -0.1538  0.1195 -0.0800
 1299ERGO    R219155  13.913  16.635   7.242 -0.4166 -0.2373 -0.0529
 1299ERGO    R319156  13.784  16.832   7.378 -0.1388 -0.0712 -0.0195
 1299ERGO    R419157  13.854  16.635   7.583 -0.6117 -0.3459 -0.0833
 1299ERGO    R519158  13.656  16.717   7.544 -0.4554  0.0477 -0.1613
 1299ERGO    C119159  13.699  16.821   7.909 -0.4644 -0.2531 -0.0697
 1299ERGO    C219160  13.571  16.960   8.222  0.1250  0.4179 -0.0145
 1300ERGO   ROH19161  12.785  13.339   7.094 -0.1973  0.0974  0.0602
 1300ERGO    R119162  12.855  13.284   7.363 -0.0401  0.0128  0.0042
 1300ERGO    R219163  12.831  13.472   7.564  0.0146 -0.0665  0.0948
 1300ERGO    R319164  12.685  13.276   7.685  0.1282 -0.1542  0.0885
 1300ERGO    R419165  12.743  13.468   7.899 -0.2264  0.0035  0.0336
 1300ERGO    R519166  12.784  13.254   7.902 -0.0101  0.0514  0.1690
 1300ERGO    C119167  12.556  13.283   8.207 -0.2600 -0.0380 -0.0079
 1300ERGO    C219168  12.380  13.213   8.504 -0.1451 -0.1769  0.0097
 1301ERGO   ROH19169  16.443   9.736   7.099 -0.1741  0.0223  0.0945
 1301ERGO    R119170  16.400   9.868   7.346  0.1344  0.1030  0.1081
 1301ERGO    R219171  16.240   9.762   7.545 -0.0096  0.3947  0.1419
 1301ERGO    R319172  16.462   9.798   7.698  0.0998 -0.0144  0.0939
 1301ERGO    R419173  16.259   9.697   7.884 -0.0575  0.3123  0.1301
 1301ERGO    R519174  16.378   9.878   7.907  0.2773  0.1139  0.1264
 1301ERGO    C119175  16.478   9.692   8.225  0.0172 -0.1196  0.0782
 1301ERGO    C219176  16.347   9.778   8.667  0.0781 -0.1228  0.2961
 1302ERGO   ROH19177   0.872  11.095   6.311 -0.0047  0.2171 -0.0164
 1302ERGO    R119178   0.931  11.175   6.576 -0.1756  0.2144  0.0221
 1302ERGO    R219179   0.738  11.186   6.775 -0.2404 -0.0624 -0.0258
 1302ERGO    R319180   0.913  11.025   6.907 -0.0961  0.1110 -0.0226
 1302ERGO    R419181   0.779  11.178   7.118 -0.2930 -0.0705 -0.0198
 1302ERGO    R519182   0.993  11.161   7.087 -0.2757  0.1664  0.0136
 1302ERGO    C119183   0.966  11.024   7.442 -0.1883  0.0876 -0.0132
 1302ERGO    C219184   0.853  11.060   7.758  0.0249  0.1938 -0.0173
 1303ERGO   ROH19185   8.693  11.208   6.634 -0.1759  0.0679 -0.0043
 1303ERGO    R119186   8.693  11.302   6.901 -0.1851 -0.0353  0.0333
 1303ERGO    R219187   8.594  11.152   7.111 -0.1968 -0.1187 -0.0232
 1303ERGO    R319188   8.840  11.197   7.217 -0.1979 -0.1635 -0.0045
 1303ERGO    R419189   8.659  11.185   7.449 -0.2486  0.1408 -0.0375
 1303ERGO    R519190   8.798  11.346   7.401 -0.1510  0.0175 -0.1446
 1303ERGO    C119191   8.928  11.247   7.745 -0.2798  0.2499 -0.0282
 1303ERGO    C219192   8.974  11.244   8.104  0.1928  0.1694 -0.3472
 1304ERGO   ROH19193   7.406   8.932   6.611 -0.2894  0.2123  0.0084
 1304ERGO    R119194   7.395   8.778   6.848 -0.3905  0.1461 -0.0368
 1304ERGO    R219195   7.606   8.762   7.026 -0.3173 -0.2076 -0.1348
 1304ERGO    R319196   7.419   8.841   7.206 -0.1296  0.0024 -0.0285
 1304ERGO    R419197   7.606   8.678   7.361 -0.1410 -0.0533 -0.0954
 1304ERGO    R519198   7.390   8.651   7.349 -0.1627  0.0934  0.0767
 1304ERGO    C119199   7.429   8.702   7.725  0.1377  0.2336  0.0274
 1304ERGO    C219200   7.409   8.684   8.005 -0.0774  0.1794 -0.2306
 1305ERGO   ROH19201   2.761  17.017   6.613  0.1859 -0.0526 -0.1115
 1305ERGO    R119202   2.669  17.107   6.866  0.1108 -0.0733 -0.1317
 1305ERGO    R219203   2.558  16.937   7.053  0.2478 -0.1242 -0.0987
 1305ERGO    R319204   2.750  17.042   7.215  0.1611  0.0661 -0.1161
 1305ERGO    R419205   2.555  16.921   7.398  0.2750 -0.0976 -0.0966
 1305ERGO    R519206   2.628  17.127   7.403  0.0890 -0.0270 -0.1185
 1305ERGO    C119207   2.732  17.010   7.751  0.2094  0.0968 -0.1118
 1305ERGO    C219208   2.484  16.895   8.002 -0.0913  0.0177  0.1220
 1306ERGO   ROH19209   4.184   5.254   6.557  0.1044 -0.0836  0.0107
 1306ERGO    R119210   4.259   5.373   6.803  0.1359 -0.2275  0.0718
 1306ERGO    R219211   4.112   5.575   6.922  0.3307 -0.0638  0.0395
 1306ERGO    R319212   4.114   5.407   7.135  0.0140 -0.1136  0.0079
 1306ERGO    R419213   4.070   5.672   7.251  0.2781 -0.0796  0.0374
 1306ERGO    R519214   4.225   5.531   7.308  0.0777 -0.2832  0.0909
 1306ERGO    C119215   4.047   5.571   7.642 -0.0498 -0.1355  0.0066
 1306ERGO    C219216   4.016   5.498   8.009 -0.0547 -0.2751  0.0231
 1307ERGO   ROH19217  12.664  15.369   6.872  0.0876 -0.0519  0.0744
 1307ERGO    R119218  12.432  15.398   7.033  0.0238 -0.2716  0.0274
 1307ERGO    R219219  12.343  15.198   7.203  0.2541 -0.3137  0.1144
 1307ERGO    R319220  12.357  15.397   7.389 -0.0173 -0.1994  0.0163
 1307ERGO    R419221  12.174  15.201   7.505  0.1744 -0.3216  0.0698
 1307ERGO    R519222  12.135  15.412   7.477 -0.0504 -0.3874 -0.0500
 1307ERGO    C119223  12.089  15.388   7.855 -0.1269 -0.2190 -0.0483
 1307ERGO    C219224  12.140  15.280   8.128 -0.2718 -0.0823  0.2126
 1308ERGO   ROH19225  10.006  17.103   6.579 -0.3240  0.2147  0.0665
 1308ERGO    R119226   9.905  17.163   6.836 -0.1390  0.2045  0.1416
 1308ERGO    R219227   9.856  16.968   7.026 -0.1988  0.1773  0.0912
 1308ERGO    R319228  10.018  17.123   7.180  0.0084 -0.0127  0.0721
 1308ERGO    R419229   9.886  16.942   7.369 -0.3888  0.2936  0.1189
 1308ERGO    R519230   9.892  17.160   7.381 -0.0230  0.3036  0.0062
 1308ERGO    C119231  10.055  17.072   7.714 -0.3050  0.1830  0.1171
 1308ERGO    C219232  10.099  17.099   8.046  0.1128  0.1814  0.0611
 1309ERGO   ROH19233  16.958  10.516   6.428 -0.0873 -0.2058 -0.1349
 1309ERGO    R119234  17.077  10.489   6.684 -0.0706  0.0032 -0.1189
 1309ERGO    R219235  17.057  10.684   6.879 -0.3210  0.0309 -0.1713
 1309ERGO    R319236  16.962  10.478   7.029 -0.0826 -0.0481 -0.1241
 1309ERGO    R419237  17.019  10.692   7.222 -0.1128 -0.0172 -0.1456
 1309ERGO    R519238  17.092  10.487   7.230  0.0389  0.0319 -0.2035
 1309ERGO    C119239  16.908  10.503   7.563  0.2322 -0.1195 -0.0863
 1309ERGO    C219240  16.955  10.537   7.825  0.2057  0.0217  0.0473
 1310ERGO   ROH19241  15.157   7.797   6.580  0.1068 -0.0416 -0.1336
 1310ERGO    R119242  15.248   7.789   6.848  0.1514  0.1121 -0.1439
 1310ERGO    R219243  15.175   7.979   7.035 -0.1904 -0.0297 -0.1276
 1310ERGO    R319244  15.095   7.762   7.177  0.2310 -0.1957 -0.1288
 1310ERGO    R419245  15.174   7.960   7.380 -0.2656  0.0141 -0.1246
 1310ERGO    R519246  15.246   7.755   7.363  0.1922  0.1593 -0.0745
 1310ERGO    C119247  15.098   7.744   7.714  0.0860 -0.1163 -0.1240
 1310ERGO    C219248  14.983   7.825   7.967  0.1714  0.1221 -0.0731
 1311ERGO   ROH19249   7.132   7.132   6.239  0.1802 -0.1377 -0.0050
 1311ERGO    R119250   7.260   7.095   6.488  0.0078 -0.0629  0.0963
 1311ERGO    R219251   7.251   7.283   6.689 -0.0668  0.0325  0.0054
 1311ERGO    R319252   7.159   7.074   6.837 -0.2258  0.1268  0.0419
 1311ERGO    R419253   7.242   7.275   7.035  0.1001  0.0260  0.0100
 1311ERGO    R519254   7.306   7.066   7.026 -0.1369 -0.0466 -0.0333
 1311ERGO    C119255   7.151   7.075   7.375  0.0480  0.1108  0.0470
 1311ERGO    C219256   7.109   7.174   7.792 -0.2386  0.0619  0.0977
 1312ERGO   ROH19257  17.366   4.204   6.998  0.2675 -0.0709  0.0165
 1312ERGO    R119258  17.356   4.336   7.248  0.0139 -0.0081 -0.0248
 1312ERGO    R219259  17.164   4.280   7.439  0.0031 -0.1766 -0.0878
 1312ERGO    R319260  17.380   4.242   7.599 -0.0138  0.1229  0.0138
 1312ERGO    R419261  17.168   4.332   7.780 -0.2673 -0.2742 -0.0672
 1312ERGO    R519262  17.367   4.419   7.760 -0.3892  0.0584  0.0652
 1312ERGO    C119263  17.373   4.326   8.130 -0.4407 -0.0498  0.0400
 1312ERGO    C219264  17.200   4.438   8.474  0.0519  0.0444  0.2514
 1313ERGO   ROH19265   1.531   7.532   6.325  0.0543 -0.2135  0.1161
 1313ERGO    R119266   1.554   7.742   6.513  0.0265 -0.1567  0.0550
 1313ERGO    R219267   1.334   7.857   6.636  0.0150 -0.1599  0.0269
 1313ERGO    R319268   1.469   7.794   6.863  0.0312 -0.0681  0.0448
 1313ERGO    R419269   1.212   7.901   6.956 -0.1255 -0.3760  0.0064
 1313ERGO    R519270   1.411   7.968   7.017 -0.2085 -0.1653  0.0748
 1313ERGO    C119271   1.268   7.868   7.356 -0.1920 -0.4157  0.0114
 1313ERGO    C219272   1.276   7.839   7.665  0.0971 -0.2112 -0.2503
 1314ERGO   ROH19273  11.977  16.706   6.631 -0.2397  0.0358 -0.0134
 1314ERGO    R119274  11.861  16.754   6.884 -0.2432 -0.1234  0.0164
 1314ERGO    R219275  11.818  16.553   7.069  0.0656 -0.1883  0.0225
 1314ERGO    R319276  11.961  16.717   7.232 -0.1075 -0.0026 -0.0083
 1314ERGO    R419277  11.747  16.611   7.402  0.0323 -0.2444  0.0250
 1314ERGO    R519278  11.796  16.821   7.371 -0.2189 -0.1849  0.0005
 1314ERGO    C119279  11.840  16.798   7.750 -0.1494 -0.1028 -0.0023
 1314ERGO    C219280  11.734  16.849   8.057  0.2328  0.0419 -0.3069
 1315ERGO   ROH19281  13.426   2.225   6.729 -0.0890  0.1734 -0.0347
 1315ERGO    R119282  13.275   2.179   6.964  0.0986 -0.1983  0.0214
 1315ERGO    R219283  13.375   2.039   7.181  0.6003  0.1932  0.0629
 1315ERGO    R319284  13.304   2.263   7.316 -0.0678  0.0540 -0.0230
 1315ERGO    R419285  13.335   2.059   7.523  0.7966  0.2590  0.0834
 1315ERGO    R519286  13.161   2.184   7.491  0.3215 -0.3432  0.1342
 1315ERGO    C119287  13.245   2.280   7.850  0.2838  0.1666  0.0148
 1315ERGO    C219288  13.145   2.300   8.136 -0.2857  0.5097 -0.0385
 1316ERGO   ROH19289  10.610   4.103   6.739  0.0700 -0.0108 -0.0088
 1316ERGO    R119290  10.700   4.036   6.999 -0.0038  0.0170  0.0256
 1316ERGO    R219291  10.904   4.172   7.126  0.1392 -0.1318 -0.0326
 1316ERGO    R319292  10.719   4.201   7.323  0.1600  0.1525 -0.0524
 1316ERGO    R419293  10.975   4.180   7.464  0.1207 -0.2144 -0.0280
 1316ERGO    R519294  10.797   4.059   7.499 -0.0629  0.0471 -0.0369
 1316ERGO    C119295  10.842   4.212   7.846  0.1297  0.0044 -0.0440
 1316ERGO    C219296  10.920   4.207   8.153  0.0343  0.0131 -0.1477
 1317ERGO   ROH19297  13.408   6.671   6.701  0.0833  0.2032  0.0305
 1317ERGO    R119298  13.502   6.618   6.963  0.1264  0.1470  0.0037
 1317ERGO    R219299  13.610   6.815   7.125 -0.0591  0.1597  0.1137
 1317ERGO    R319300  13.421   6.728   7.300  0.0160 -0.1118  0.0636
 1317ERGO    R419301  13.642   6.818   7.469 -0.1778  0.2696  0.1245
 1317ERGO    R519302  13.546   6.623   7.476  0.1267  0.1130  0.1231
 1317ERGO    C119303  13.483   6.738   7.834 -0.1764  0.0786  0.0837
 1317ERGO    C219304  13.397   6.710   8.206 -0.1292  0.0756 -0.0790
 1318ERGO   ROH19305   4.779   2.094   6.326 -0.0264  0.0161  0.0095
 1318ERGO    R119306   4.752   1.950   6.568 -0.0746  0.0537  0.0268
 1318ERGO    R219307   4.962   1.912   6.743 -0.0666 -0.0656 -0.0075
 1318ERGO    R319308   4.790   2.020   6.923  0.0344  0.0601  0.0140
 1318ERGO    R419309   4.998   1.891   7.086 -0.2443 -0.4411 -0.0065
 1318ERGO    R519310   4.783   1.860   7.101 -0.3099 -0.0962 -0.1323
 1318ERGO    C119311   4.858   1.981   7.455 -0.2530 -0.5418  0.0143
 1318ERGO    C219312   5.004   2.022   7.746 -0.1520 -0.0730 -0.1216
 1319ERGO   ROH19313   3.926   1.333   6.170 -0.1012  0.0169  0.0876
 1319ERGO    R119314   4.054   1.201   6.385 -0.0050 -0.0183  0.0100
 1319ERGO    R219315   4.239   1.326   6.547 -0.0306 -0.0044  0.0323
 1319ERGO    R319316   4.075   1.242   6.746  0.0389 -0.1612  0.0236
 1319ERGO    R419317   4.328   1.304   6.881 -0.1073  0.3441  0.0789
 1319ERGO    R519318   4.217   1.117   6.892  0.2006  0.1627  0.1507
 1319ERGO    C119319   4.224   1.212   7.262 -0.0866  0.3997  0.0979
 1319ERGO    C219320   4.294   1.249   7.513  0.0338 -0.0222 -0.0706
 1320ERGO   ROH19321  10.981  16.940   6.569  0.0378 -0.0809  0.0743
 1320ERGO    R119322  10.862  16.987   6.821  0.0352 -0.1320  0.0830
 1320ERGO    R219323  10.852  16.795   7.020  0.2186 -0.1059  0.1199
 1320ERGO    R319324  10.970  16.990   7.169  0.0843  0.0171  0.0671
 1320ERGO    R419325  10.856  16.805   7.365  0.2225 -0.0149  0.1173
 1320ERGO    R519326  10.822  17.020   7.354  0.0682 -0.0409  0.0633
 1320ERGO    C119327  10.968  16.994   7.706  0.0987  0.1536  0.0662
 1320ERGO    C219328  10.962  16.985   8.075  0.0781  0.0018 -0.0168
 1321ERGO   ROH19329  14.064   0.910   6.925 -0.0025 -0.2064  0.1522
 1321ERGO    R119330  14.029   0.850   7.200  0.0263 -0.1121  0.1772
 1321ERGO    R219331  14.224   0.901   7.389  0.0063  0.0544  0.1586
 1321ERGO    R319332  14.022   1.036   7.512 -0.0569  0.0130  0.1000
 1321ERGO    R419333  14.213   0.978   7.726 -0.1040  0.0800  0.1495
 1321ERGO    R519334  14.000   0.930   7.725 -0.0872  0.0283  0.1006
 1321ERGO    C119335  14.017   1.149   8.037 -0.2277  0.0559  0.0892
 1321ERGO    C219336  14.234   1.117   8.231 -0.0302  0.0426  0.0851
 1322ERGO   ROH19337  17.097  14.281   6.696  0.1838 -0.1193  0.1716
 1322ERGO    R119338  16.923  14.502   6.726  0.0006 -0.2541  0.1321
 1322ERGO    R219339  16.767  14.539   6.951  0.1640 -0.2076  0.2453
 1322ERGO    R319340  16.889  14.781   6.957 -0.0511 -0.0860 -0.0780
 1322ERGO    R419341  16.635  14.825   7.094  0.0322 -0.1939  0.0972
 1322ERGO    R519342  16.712  14.939   6.926 -0.2171 -0.2733 -0.0703
 1322ERGO    C119343  16.673  15.219   7.182 -0.2464 -0.0720 -0.2925
 1322ERGO    C219344  16.710  15.481   7.391 -0.0009 -0.0129 -0.4509
 1323ERGO   ROH19345  15.549  16.226   6.999 -0.1498 -0.0068  0.0123
 1323ERGO    R119346  15.745  16.310   7.186 -0.1064  0.1424 -0.0983
 1323ERGO    R219347  15.794  16.576   7.240 -0.3823  0.1803 -0.0206
 1323ERGO    R319348  15.749  16.499   7.497 -0.0985  0.0115 -0.0182
 1323ERGO    R419349  15.767  16.791   7.510 -0.2983  0.0200  0.1177
 1323ERGO    R519350  15.882  16.649   7.628 -0.0882  0.0378 -0.0577
 1323ERGO    C119351  15.709  16.843   7.908  0.0171 -0.2317  0.2004
 1323ERGO    C219352  15.559  17.034   8.145  0.0186 -0.2074 -0.2175
 1324ERGO   ROH19353  16.261  11.356   6.540 -0.0472 -0.2724  0.2003
 1324ERGO    R119354  16.174  11.358   6.809  0.0175 -0.1595  0.2216
 1324ERGO    R219355  16.121  11.127   6.950 -0.0800 -0.0990  0.2895
 1324ERGO    R319356  16.296  11.234   7.128  0.0246 -0.1544  0.2204
 1324ERGO    R419357  16.092  11.102   7.293  0.0314 -0.0586  0.3019
 1324ERGO    R519358  16.158  11.310   7.308  0.1190 -0.0847  0.2629
 1324ERGO    C119359  16.239  11.189   7.661  0.1944 -0.0870  0.2442
 1324ERGO    C219360  16.295  11.180   7.960 -0.3076  0.1736 -0.2561
 1325ERGO   ROH19361  10.195  15.237   6.428  0.0269  0.0092 -0.0562
 1325ERGO    R119362  10.275  15.164   6.690 -0.1122 -0.0539 -0.0306
 1325ERGO    R219363  10.378  15.346   6.870 -0.0964 -0.1198  0.0274
 1325ERGO    R319364  10.179  15.252   7.030 -0.2064 -0.0398 -0.0605
 1325ERGO    R419365  10.366  15.383   7.213 -0.1608 -0.2476  0.0399
 1325ERGO    R519366  10.292  15.179   7.228 -0.3119 -0.1996 -0.0590
 1325ERGO    C119367  10.172  15.316   7.563 -0.3016 -0.2469 -0.0354
 1325ERGO    C219368  10.156  15.298   7.923 -0.2333  0.2699  0.1946
 1326ERGO   ROH19369  10.510   8.191   6.343 -0.0462  0.2180 -0.0326
 1326ERGO    R119370  10.454   8.139   6.616 -0.1462  0.2533 -0.0457
 1326ERGO    R219371  10.594   7.953   6.764 -0.2860  0.1787 -0.0039
 1326ERGO    R319372  10.633   8.163   6.932 -0.2154  0.1613  0.0009
 1326ERGO    R419373  10.581   7.935   7.109 -0.2382  0.1618 -0.0035
 1326ERGO    R519374  10.477   8.127   7.110 -0.1967  0.1848  0.0221
 1326ERGO    C119375  10.611   8.123   7.467 -0.1441  0.1357  0.0013
 1326ERGO    C219376  10.507   7.995   7.746  0.1571  0.0495 -0.1081
 1327ERGO   ROH19377   1.509  16.254   6.848  0.0204 -0.4498 -0.0825
 1327ERGO    R119378   1.588  16.148   7.098  0.1454 -0.1592  0.0052
 1327ERGO    R219379   1.787  16.262   7.253 -0.0085  0.2188 -0.0668
 1327ERGO    R319380   1.593  16.262   7.444 -0.0220  0.1138 -0.0793
 1327ERGO    R419381   1.844  16.285   7.593 -0.0260 -0.0745 -0.0418
 1327ERGO    R519382   1.688  16.137   7.624 -0.0678 -0.0600 -0.1738
 1327ERGO    C119383   1.697  16.298   7.970 -0.0487 -0.3436 -0.0391
 1327ERGO    C219384   1.716  16.288   8.256  0.4576 -0.1345 -0.0738
 1328ERGO   ROH19385   8.357   9.216   6.459  0.3444  0.1606 -0.1070
 1328ERGO    R119386   8.480   9.256   6.711  0.0996  0.2363  0.0035
 1328ERGO    R219387   8.349   9.375   6.923 -0.2101  0.0317 -0.0634
 1328ERGO    R319388   8.422   9.149   7.054 -0.0526  0.0765 -0.0719
 1328ERGO    R419389   8.363   9.342   7.267 -0.2433  0.0044 -0.0647
 1328ERGO    R519390   8.547   9.226   7.243 -0.1489  0.1542 -0.0425
 1328ERGO    C119391   8.440   9.109   7.590 -0.1150  0.0307 -0.0736
 1328ERGO    C219392   8.425   9.052   7.916  0.1412  0.4315  0.0374
 1329ERGO   ROH19393   6.805   2.498   6.201  0.6215  0.0843 -0.0920
 1329ERGO    R119394   6.944   2.588   6.430  0.3668  0.2518  0.0017
 1329ERGO    R219395   6.875   2.819   6.565 -0.0739  0.1134  0.0325
 1329ERGO    R319396   6.864   2.652   6.779  0.0867  0.0354 -0.0196
 1329ERGO    R419397   6.886   2.920   6.896 -0.2509  0.0270  0.0656
 1329ERGO    R519398   7.014   2.749   6.938 -0.0557  0.1656  0.0355
 1329ERGO    C119399   6.883   2.821   7.289 -0.2032 -0.0964  0.0360
 1329ERGO    C219400   6.964   2.824   7.597 -0.0909 -0.2386 -0.0475
 1330ERGO   ROH19401  12.977  10.468  10.685 -0.1419  0.1094 -0.1135
 1330ERGO    R119402  12.866  10.431  10.427  0.0647  0.1446 -0.2082
 1330ERGO    R219403  12.874  10.628  10.233  0.2035  0.1765 -0.1673
 1330ERGO    R319404  12.990  10.431  10.085  0.3346  0.2119 -0.1146
 1330ERGO    R419405  12.796  10.555   9.904  0.0520 -0.1331 -0.0674
 1330ERGO    R519406  12.811  10.344   9.952  0.3369 -0.0901  0.0678
 1330ERGO    C119407  12.860  10.328   9.574  0.0867 -0.2800  0.0404
 1330ERGO    C219408  12.851  10.237   9.194  0.1771  0.0391 -0.4320
 1331ERGO   ROH19409   8.488   8.774   6.469  0.0913 -0.2684  0.0087
 1331ERGO    R119410   8.408   8.831   6.734  0.1266 -0.2277  0.0099
 1331ERGO    R219411   8.226   8.674   6.871  0.1444 -0.2026  0.0539
 1331ERGO    R319412   8.424   8.662   7.057  0.1649 -0.1777  0.0354
 1331ERGO    R419413   8.177   8.627   7.210  0.1829 -0.3016  0.0471
 1331ERGO    R519414   8.333   8.774   7.248  0.1371 -0.2531  0.0700
 1331ERGO    C119415   8.334   8.589   7.581  0.2245 -0.3360  0.0257
 1331ERGO    C219416   8.236   8.480   7.917 -0.1600  0.0806 -0.3179
 1332ERGO   ROH19417   3.730   3.946   6.713  0.0336  0.2500 -0.0169
 1332ERGO    R119418   3.800   3.876   6.978 -0.1094  0.0188 -0.0353
 1332ERGO    R219419   3.967   4.033   7.134  0.0181 -0.2433  0.1070
 1332ERGO    R319420   3.759   4.023   7.309 -0.0454 -0.1288  0.0375
 1332ERGO    R419421   3.998   3.999   7.476 -0.1102  0.1087  0.1568
 1332ERGO    R519422   3.828   3.864   7.474 -0.0656  0.0580  0.2255
 1332ERGO    C119423   3.822   3.970   7.840 -0.2446  0.4212  0.1204
 1332ERGO    C219424   3.935   3.956   8.171 -0.0607 -0.0682  0.1924
 1333ERGO   ROH19425  14.008  15.660   7.033  0.0234 -0.4592 -0.0945
 1333ERGO    R119426  13.886  15.589   7.279  0.0970 -0.3082 -0.0126
 1333ERGO    R219427  13.987  15.669   7.523  0.1173 -0.0758 -0.0923
 1333ERGO    R319428  13.735  15.765   7.559  0.0899 -0.1371 -0.1230
 1333ERGO    R419429  13.862  15.787   7.823  0.1291  0.1218 -0.1638
 1333ERGO    R519430  13.673  15.688   7.777  0.1574  0.0171 -0.0491
 1333ERGO    C119431  13.552  15.945   8.031  0.1103  0.1793 -0.2342
 1333ERGO    C219432  13.240  16.131   8.325 -0.1500 -0.3091  0.1408
 1334ERGO   ROH19433  15.617  10.554   6.567  0.0523  0.2661  0.0526
 1334ERGO    R119434  15.521  10.537   6.832  0.0087  0.1115  0.0262
 1334ERGO    R219435  15.594  10.333   7.004  0.0698  0.0817 -0.0497
 1334ERGO    R319436  15.666  10.539   7.167 -0.0628  0.0435  0.0609
 1334ERGO    R419437  15.579  10.323   7.349  0.3066 -0.2270 -0.0435
 1334ERGO    R519438  15.506  10.530   7.346  0.0539 -0.2969  0.1664
 1334ERGO    C119439  15.638  10.510   7.703  0.3200 -0.4426  0.0641
 1334ERGO    C219440  15.535  10.391   7.909  0.2186  0.0446 -0.0097
 1335ERGO   ROH19441   9.732   4.488   6.737  0.0512  0.1186 -0.0569
 1335ERGO    R119442   9.611   4.657   6.929 -0.1579 -0.1292  0.0348
 1335ERGO    R219443   9.456   4.559   7.137  0.1005 -0.4457  0.0889
 1335ERGO    R319444   9.629   4.703   7.290 -0.0723 -0.1767  0.0362
 1335ERGO    R419445   9.458   4.564   7.483  0.0350 -0.2312  0.0873
 1335ERGO    R519446   9.497   4.778   7.475 -0.1805 -0.1964 -0.0345
 1335ERGO    C119447   9.621   4.702   7.827 -0.1652  0.1462  0.0369
 1335ERGO    C219448   9.634   4.778   8.110  0.0561  0.1399 -0.0724
 1336ERGO   ROH19449   0.742   5.159   6.528 -0.0907  0.0105 -0.0420
 1336ERGO    R119450   0.872   5.271   6.754 -0.1585  0.2609 -0.1232
 1336ERGO    R219451   0.740   5.430   6.938 -0.3613 -0.0095 -0.0233
 1336ERGO    R319452   0.839   5.250   7.115  0.1259  0.1672 -0.1013
 1336ERGO    R419453   0.713   5.456   7.281 -0.2810 -0.1517 -0.0065
 1336ERGO    R519454   0.917   5.383   7.298 -0.1008  0.3078 -0.1060
 1336ERGO    C119455   0.790   5.301   7.648  0.2232 -0.0686 -0.0698
 1336ERGO    C219456   0.853   5.200   7.869 -0.1310 -0.3298 -0.0186
 1337ERGO   ROH19457  16.682   1.868   6.518 -0.2950 -0.1600  0.2532
 1337ERGO    R119458  16.878   1.921   6.715 -0.2347 -0.0415  0.1618
 1337ERGO    R219459  16.912   2.171   6.829 -0.2816 -0.0065  0.0925
 1337ERGO    R319460  16.881   2.033   7.061 -0.1324  0.0362  0.1357
 1337ERGO    R419461  17.001   2.288   7.142 -0.2638  0.1321  0.0366
 1337ERGO    R519462  17.075   2.089   7.190 -0.1295  0.1896  0.0674
 1337ERGO    C119463  17.024   2.227   7.542 -0.1134  0.2530  0.0445
 1337ERGO    C219464  17.046   2.281   7.907  0.0564 -0.0247 -0.2471
 1338ERGO   ROH19465  16.175  12.900   6.505 -0.1881 -0.1952  0.0672
 1338ERGO    R119466  16.284  12.725   6.699  0.1106 -0.1144 -0.0206
 1338ERGO    R219467  16.500  12.795   6.858 -0.0528  0.2108  0.0769
 1338ERGO    R319468  16.331  12.728   7.060  0.0164 -0.2505 -0.0083
 1338ERGO    R419469  16.597  12.725   7.182 -0.0185  0.3033  0.0861
 1338ERGO    R519470  16.451  12.564   7.186  0.3401 -0.0327 -0.0285
 1338ERGO    C119471  16.495  12.621   7.560  0.0665 -0.0759  0.0114
 1338ERGO    C219472  16.508  12.443   7.941  0.0980 -0.1136  0.0674
 1339ERGO   ROH19473  13.372   5.666   6.458 -0.2046 -0.1193 -0.1155
 1339ERGO    R119474  13.391   5.606   6.734 -0.1802 -0.0329 -0.0991
 1339ERGO    R219475  13.531   5.766   6.911  0.0156 -0.0928 -0.2004
 1339ERGO    R319476  13.296   5.767   7.047  0.0537  0.1726 -0.1298
 1339ERGO    R419477  13.501   5.737   7.254  0.0801 -0.1245 -0.1962
 1339ERGO    R519478  13.327   5.608   7.223 -0.0916  0.0947 -0.1721
 1339ERGO    C119479  13.261   5.722   7.581  0.1533  0.1061 -0.1275
 1339ERGO    C219480  13.283   5.736   7.931 -0.2163 -0.1105  0.1562
 1340ERGO   ROH19481  13.028  11.413  10.648  0.1321 -0.0248  0.1235
 1340ERGO    R119482  13.081  11.505  10.386  0.0931 -0.0051  0.1217
 1340ERGO    R219483  13.309  11.433  10.246  0.1024  0.0486  0.1006
 1340ERGO    R319484  13.129  11.355  10.058  0.1029  0.0126  0.1165
 1340ERGO    R419485  13.391  11.305   9.936  0.0934  0.1966  0.0368
 1340ERGO    R519486  13.228  11.421   9.850  0.0128  0.1332  0.1154
 1340ERGO    C119487  13.270  11.157   9.578  0.0885  0.2490  0.0146
 1340ERGO    C219488  13.356  10.953   9.332 -0.0911 -0.0135  0.1023
 1341ERGO   ROH19489  10.574   1.846   6.652 -0.1481 -0.2791  0.0800
 1341ERGO    R119490  10.611   2.032   6.863 -0.1202 -0.0693 -0.1079
 1341ERGO    R219491  10.407   2.107   7.032 -0.0332 -0.1074  0.0052
 1341ERGO    R319492  10.582   2.030   7.225  0.2052  0.2119 -0.0734
 1341ERGO    R419493  10.368   2.171   7.369 -0.0267 -0.2000  0.0245
 1341ERGO    R519494  10.582   2.213   7.381 -0.0869  0.2155 -0.0639
 1341ERGO    C119495  10.509   2.136   7.747  0.2009  0.0459 -0.0380
 1341ERGO    C219496  10.498   2.187   8.151 -0.0746 -0.1895  0.0172
 1342ERGO   ROH19497  10.559   1.463   6.805  0.2145  0.2762 -0.0455
 1342ERGO    R119498  10.549   1.611   7.046  0.0504  0.2702 -0.0478
 1342ERGO    R219499  10.315   1.647   7.188  0.0060  0.0168 -0.0491
 1342ERGO    R319500  10.461   1.546   7.393  0.1184  0.1786 -0.0477
 1342ERGO    R419501  10.255   1.710   7.523  0.0131  0.0512 -0.0544
 1342ERGO    R519502  10.470   1.724   7.553  0.0077  0.2245 -0.0924
 1342ERGO    C119503  10.357   1.650   7.910  0.1227  0.2231 -0.0563
 1342ERGO    C219504  10.327   1.598   8.223  0.3498  0.0338  0.0061
 1343ERGO   ROH19505   2.378   3.790   6.576 -0.1348  0.0695  0.0221
 1343ERGO    R119506   2.514   3.843   6.819 -0.0300 -0.1705  0.0190
 1343ERGO    R219507   2.423   4.027   7.004  0.3263  0.0389 -0.0003
 1343ERGO    R319508   2.440   3.816   7.174 -0.0945  0.0128  0.0195
 1343ERGO    R419509   2.465   4.052   7.346  0.1566 -0.0225  0.0260
 1343ERGO    R519510   2.603   3.883   7.336 -0.0898 -0.2308  0.1166
 1343ERGO    C119511   2.507   3.868   7.705 -0.3372 -0.0829  0.0599
 1343ERGO    C219512   2.549   3.801   7.975  0.2853  0.0208  0.0134
 1344ERGO   ROH19513   5.745  11.924   6.307  0.1624 -0.0810  0.0747
 1344ERGO    R119514   5.764  12.039   6.565  0.1037 -0.1131  0.0939
 1344ERGO    R219515   5.547  12.061   6.734  0.0470 -0.0636  0.0185
 1344ERGO    R319516   5.710  11.929   6.908 -0.0555 -0.1325  0.0625
 1344ERGO    R419517   5.482  12.016   7.071  0.0547  0.1743  0.0535
 1344ERGO    R519518   5.693  12.053   7.112  0.0973 -0.0099  0.0005
 1344ERGO    C119519   5.597  11.865   7.429 -0.0371  0.2481  0.1151
 1344ERGO    C219520   5.683  11.895   7.696 -0.1136  0.1779  0.1541
 1345ERGO   ROH19521   6.966  16.799   6.586  0.0657 -0.0023  0.0903
 1345ERGO    R119522   6.845  16.900   6.821  0.0458 -0.0069  0.0829
 1345ERGO    R219523   6.767  16.737   7.030  0.0063 -0.0153  0.0660
 1345ERGO    R319524   6.923  16.905   7.177  0.0053 -0.0376  0.0914
 1345ERGO    R419525   6.759  16.764   7.375  0.0420 -0.0981  0.0731
 1345ERGO    R519526   6.780  16.980   7.353  0.0198 -0.0937  0.1245
 1345ERGO    C119527   6.900  16.938   7.713  0.0618 -0.1676  0.1011
 1345ERGO    C219528   6.771  16.899   8.072  0.2714 -0.2186  0.1541
 1346ERGO   ROH19529   5.509  14.845   6.482 -0.2287  0.2908  0.0478
 1346ERGO    R119530   5.671  14.851   6.714 -0.1822  0.0420  0.0250
 1346ERGO    R219531   5.633  15.034   6.918  0.0749  0.0493  0.0706
 1346ERGO    R319532   5.622  14.811   7.072 -0.1769  0.0270  0.0240
 1346ERGO    R419533   5.656  15.030   7.263  0.1267 -0.0517  0.0661
 1346ERGO    R519534   5.779  14.852   7.248 -0.0953 -0.2041  0.0080
 1346ERGO    C119535   5.659  14.818   7.608 -0.0796 -0.1315  0.0199
 1346ERGO    C219536   5.662  14.822   7.994  0.1352  0.1069 -0.0882
 1347ERGO   ROH19537  12.792  17.309   6.702  0.1070 -0.2917  0.1518
 1347ERGO    R119538  12.953  17.309   6.935  0.0352 -0.2272  0.2015
 1347ERGO    R219539  13.032  17.543   7.061  0.0545 -0.1902  0.1186
 1347ERGO    R319540  12.921  17.423   7.279 -0.0415 -0.0626  0.1411
 1347ERGO    R419541  12.990  17.693   7.370  0.0847 -0.0659  0.0631
 1347ERGO    R519542  13.048  17.506   7.464 -0.0263 -0.0672  0.1340
 1347ERGO    C119543  12.861  17.669   7.753  0.0121  0.1265  0.0519
 1347ERGO    C219544  12.869  17.667   8.041  0.1551 -0.0355 -0.1276
 1348ERGO   ROH19545   1.443   3.964   6.489  0.1803 -0.1659  0.1159
 1348ERGO    R119546   1.541   3.936   6.753  0.1723 -0.0405  0.1324
 1348ERGO    R219547   1.643   4.149   6.897  0.0070  0.0629  0.0980
 1348ERGO    R319548   1.458   4.071   7.081  0.0423 -0.0280  0.0957
 1348ERGO    R419549   1.680   4.178   7.240 -0.0231  0.1152  0.0971
 1348ERGO    R519550   1.587   3.982   7.262  0.0879  0.0616  0.1095
 1348ERGO    C119551   1.528   4.121   7.612 -0.0075  0.0602  0.0943
 1348ERGO    C219552   1.525   3.997   7.866  0.0920  0.0040 -0.4655
 1349W        W19553   3.702  13.009  14.365 -0.2341  0.0311 -0.1954
 1350W        W19554   4.622  12.174   2.309  0.0661  0.0529  0.0901
 1351W        W19555  10.446  13.918   1.042 -0.1994  0.1688  0.1169
 1352W        W19556  17.395   4.139  15.649  0.0148  0.3598 -0.0026
 1353W        W19557  16.222   2.478  16.863 -0.1916 -0.0691 -0.0216
 1354W        W19558   2.577  13.287   2.522  0.2062  0.0519  0.1240
 1355W        W19559   1.201   0.046   5.298  0.0922 -0.1494  0.0416
 1356W        W19560  16.172  13.947   0.348  0.1054 -0.1084  0.1862
 1357W        W19561   7.619   5.111   0.507  0.0207 -0.2331  0.3262
 1358W        W19562   0.261   9.724  14.929 -0.0632  0.0669  0.0838
 1359W        W19563   3.128   4.675  14.824  0.3624  0.3634 -0.0375
 1360W        W19564   0.756   9.633  13.072 -0.0986 -0.0852 -0.1795
 1361W        W19565  14.636   5.725  12.750 -0.1430  0.1313  0.1723
 1362W        W19566   7.906   5.741   3.712 -0.1416 -0.2014 -0.1419
 1363W        W19567   4.771  14.461   1.710  0.1222  0.2286 -0.2537
 1364W        W19568  15.996   9.516   4.902  0.2119 -0.3405  0.0913
 1365W        W19569  14.312   0.347   2.941  0.1347  0.0211 -0.2377
 1366W        W19570   5.858  16.826  15.837 -0.1586 -0.2810  0.1416
 1367W        W19571  13.774   1.235  16.630  0.2752 -0.1898 -0.2079
 1368W        W19572   8.295   1.055  15.326  0.3162 -0.0749 -0.0183
 1369W        W19573  12.375   1.548  14.872 -0.1955 -0.0760  0.0463
 1370W        W19574   7.775   8.327  15.790 -0.0149  0.0475  0.0290
 1371W        W19575   2.636   0.042   0.854 -0.2802  0.1392  0.0907
 1372W        W19576  13.107  11.360  15.705 -0.1622  0.1248 -0.1993
 1373W        W19577   9.989   5.690   3.966  0.0845 -0.0662 -0.0248
 1374W        W19578  12.405   0.671  15.505 -0.0724 -0.0370  0.0153
 1375W        W19579  12.450  15.424   5.292 -0.2041 -0.0273 -0.3920
 1376W        W19580   5.600   1.994   0.559  0.1323  0.0665  0.2111
 1377W        W19581  14.932   3.410   0.900  0.0593 -0.1724  0.0048
 1378W        W19582  16.027   1.352   2.790 -0.2445  0.2079 -0.2821
 1379W        W19583   7.075   4.673   3.259 -0.1798 -0.2824 -0.0314
 1380W        W19584  17.406  12.602  15.629  0.1749 -0.3783 -0.0987
 1381W        W19585  13.187   7.761  11.268 -0.0510  0.0862 -0.1218
 1382W        W19586  10.414  13.427  12.160  0.2064 -0.0819  0.1352
 1383W        W19587   0.289  13.289   2.253 -0.0003 -0.0888  0.2061
 1384W        W19588   1.434  10.387  17.095 -0.5339 -0.0092  0.0254
 1385W        W19589  15.118   2.327   1.720  0.1147 -0.2641 -0.0196
 1386W        W19590   9.116  15.798  15.886 -0.0165  0.2004 -0.0512
 1387W        W19591  15.081  12.423  12.190  0.1100 -0.1079 -0.0649
 1388W        W19592   7.086  12.773  13.747 -0.0111  0.2036 -0.0274
 1389W        W19593   5.067   2.053  16.028 -0.0972  0.1220 -0.0647
 1390W        W19594  10.906  12.222  16.861  0.2675 -0.0011  0.0885
 1391W        W19595  15.692   2.610   0.988 -0.1200 -0.1689  0.2697
 1392W        W19596   7.868  12.282   1.329 -0.2916  0.1551 -0.2186
 1393W        W19597  11.520   6.945  13.329 -0.0688 -0.0622 -0.0524
 1394W        W19598   5.328  17.106   2.428 -0.1463 -0.1085 -0.0468
 1395W        W19599   9.577  12.766  13.468  0.2545  0.0244 -0.1344
 1396W        W19600   8.646   5.006   1.406  0.2871  0.0266 -0.1260
 1397W        W19601   7.304   1.825  16.199 -0.0722  0.3699 -0.0581
 1398W        W19602   2.281   0.811   4.417 -0.2889 -0.0561 -0.2623
 1399W        W19603   3.645  11.024   3.008  0.0043  0.2201 -0.0148
 1400W        W19604   0.916  15.348   2.723 -0.1495  0.1690  0.1730
 1401W        W19605  15.624   6.746  16.427  0.0708  0.1241 -0.0757
 1402W        W19606  15.067  17.099   1.049 -0.2402 -0.0797  0.0369
 1403W        W19607   1.173  11.900   4.165 -0.3033 -0.4214  0.1071
 1404W        W19608  15.102  14.489   2.727  0.2073 -0.1747 -0.2934
 1405W        W19609   7.726  16.062  15.609 -0.1364 -0.1792  0.0603
 1406W        W19610  13.131   3.993   4.982 -0.4406 -0.1709 -0.0313
 1407W        W19611  16.720   2.005   3.374  0.0879  0.0782 -0.2755
 1408W        W19612   6.522   3.387  14.108  0.2213  0.1964 -0.2090
 1409W        W19613   8.266   2.758   4.104 -0.1646  0.2452 -0.2433
 1410W        W19614   0.540   1.706  16.781  0.1791  0.0042 -0.0791
 1411W        W19615   7.780   9.732  13.539 -0.0728 -0.1616 -0.0426
 1412W        W19616   4.556   5.764  12.670  0.0140 -0.0632 -0.0264
 1413W        W19617  10.310   4.437  14.823 -0.2053  0.1685  0.0666
 1414W        W19618   1.317   0.852  12.875 -0.4457  0.0449 -0.2274
 1415W        W19619  12.787  13.934   4.667  0.0219  0.2217 -0.0769
 1416W        W19620  13.144   6.731  14.783 -0.1505  0.2013 -0.0751
 1417W        W19621   9.862   8.543  14.481 -0.2781 -0.2171 -0.1029
 1418W        W19622   3.962   2.164   3.366  0.0214 -0.0302 -0.2739
 1419W        W19623  13.374  13.240   2.865  0.0191 -0.3539 -0.0004
 1420W        W19624   7.894   5.914  17.037  0.0223 -0.2477  0.0194
 1421W        W19625   1.928   3.880   2.738 -0.1439 -0.1602  0.0575
 1422W        W19626  13.601   4.771  14.023 -0.1225  0.2944 -0.3337
 1423W        W19627   9.710   6.751   3.223  0.0804  0.0193 -0.0712
 1424W        W19628   5.850   8.000   3.108 -0.1338  0.1387  0.2571
 1425W        W19629   1.897   1.937  14.806 -0.2880  0.0362 -0.2184
 1426W        W19630  13.629   6.859  15.561 -0.2702  0.1654  0.1738
 1427W        W19631   7.423   3.250   2.191  0.0103  0.1201 -0.2034
 1428W        W19632  13.978  17.043  14.206 -0.4448 -0.1193 -0.1309
 1429W        W19633  16.792  12.751  13.319 -0.1413  0.0406  0.1527
 1430W        W19634   5.912   3.974  15.178  0.3058 -0.2088 -0.3813
 1431W        W19635  11.295  17.111  12.646  0.0233  0.2321  0.0016
 1432W        W19636  11.385  10.538  14.513  0.1344 -0.1580  0.0959
 1433W        W19637  11.681  11.255  15.298  0.0746 -0.0390 -0.0399
 1434W        W19638  12.872  15.394   2.941  0.0853  0.0360  0.1853
 1435W        W19639   0.844  11.322  11.812 -0.0205 -0.2999  0.0151
 1436W        W19640  12.657   7.053  15.031  0.1018  0.1658  0.3662
 1437W        W19641   3.530   5.697  15.779  0.0842  0.3686  0.1574
 1438W        W19642  13.743  16.817   1.650  0.0675 -0.0131 -0.0432
 1439W        W19643  15.765   7.857   0.396  0.0826 -0.3763  0.3321
 1440W        W19644  13.474  11.906   0.918  0.1926  0.0539 -0.0157
 1441W        W19645  16.990   2.818   4.415  0.4026 -0.0840 -0.0357
 1442W        W19646  10.723  13.404  17.096 -0.2958 -0.1055 -0.2548
 1443W        W19647   4.796  10.324   1.859  0.0470  0.1801 -0.0330
 1444W        W19648   0.940   0.481  13.609  0.3019  0.1390  0.0228
 1445W        W19649  17.204  15.622  13.933 -0.0201  0.1217  0.0210
 1446W        W19650   2.090   5.028   2.030  0.1802  0.2188 -0.0722
 1447W        W19651  10.817   4.778  12.190  0.0949 -0.0785  0.0322
 1448W        W19652  15.714   3.020  12.670 -0.0138  0.0123  0.2284
 1449W        W19653   8.643   5.070  12.490 -0.1223  0.2027 -0.0747
 1450W        W19654  16.841  12.868   4.604  0.0716 -0.1555  0.1470
 1451W        W19655  15.860   7.831   3.896  0.0281  0.0408  0.0352
 1452W        W19656   0.012  13.556   3.441 -0.0291 -0.1684  0.1075
 1453W        W19657  17.268   8.861   3.199  0.0678  0.0909 -0.0680
 1454W        W19658   1.143  16.133  14.607  0.0209  0.2456 -0.0853
 1455W        W19659  15.707  15.818   5.465 -0.0710  0.2186  0.2575
 1456W        W19660  12.612   7.875   0.544  0.1564 -0.3522 -0.2413
 1457W        W19661   7.457   4.842   5.099  0.1656 -0.1044 -0.1793
 1458W        W19662  11.435  10.756   3.285 -0.3116  0.4079 -0.1978
 1459W        W19663  10.021  16.094   4.557 -0.1033 -0.3222 -0.0409
 1460W        W19664  13.747  14.841   4.214  0.0418  0.0987 -0.0224
 1461W        W19665  12.812   0.612   2.094 -0.0892 -0.1829  0.0578
 1462W        W19666  12.093  15.405   3.576 -0.0261 -0.1959  0.2358
 1463W        W19667  12.565   9.033  12.120  0.1090 -0.1934  0.2506
 1464W        W19668  11.092   8.650   5.247  0.0068 -0.0392  0.3093
 1465W        W19669   7.205   8.810   2.381 -0.3254  0.0985 -0.0526
 1466W        W19670  16.540   2.054  16.354  0.3611  0.2446 -0.0512
 1467W        W19671   0.668  16.108   5.068 -0.0409 -0.1332 -0.2341
 1468W        W19672   3.500  11.940  16.119  0.0012  0.1768  0.0505
 1469W        W19673   7.129  11.222   1.499  0.0581  0.3360 -0.0333
 1470W        W19674   2.817   1.775   0.058  0.4900 -0.0847  0.1457
 1471W        W19675  12.781  16.320   6.070  0.0667  0.2711 -0.0542
 1472W        W19676  14.917  11.962   1.173  0.0281  0.0596 -0.1806
 1473W        W19677   0.580   8.619  14.081  0.0555 -0.1143  0.0187
 1474W        W19678   5.409  13.753   3.229  0.2423  0.2022  0.1220
 1475W        W19679   7.854   5.144  12.642  0.2945 -0.3466  0.0321
 1476W        W19680   6.772   4.690  12.435  0.1637 -0.4288  0.1968
 1477W        W19681  15.434  15.645   4.979  0.0773 -0.1138  0.0822
 1478W        W19682  15.241  16.760  16.632  0.1243  0.0958  0.1439
 1479W        W19683  13.912  13.979   1.076 -0.2327  0.4013  0.3765
 1480W        W19684  14.276  15.494  15.309  0.0065 -0.2484  0.1984
 1481W        W19685  12.786   7.618  12.520  0.1754  0.0938  0.0658
 1482W        W19686  10.760   1.693   5.222 -0.1048  0.0405  0.1913
 1483W        W19687  10.705   2.310  15.331  0.1041  0.0481 -0.0329
 1484W        W19688   9.707  13.151  15.737  0.2226  0.2437  0.0545
 1485W        W19689   2.597  14.501   2.622 -0.0751 -0.1015  0.0408
 1486W        W19690   7.574   0.945   0.717 -0.3702  0.2883 -0.1296
 1487W        W19691  14.034   7.150   3.990  0.0661 -0.0539  0.0233
 1488W        W19692   0.008   6.186  16.735  0.1154 -0.0654 -0.2576
 1489W        W19693   5.342   2.254   0.087 -0.1350 -0.1005 -0.1562
 1490W        W19694  13.613   2.211  12.950 -0.1113 -0.2322 -0.1866
 1491W        W19695   8.213   7.319  14.536 -0.2444  0.0595 -0.3893
 1492W        W19696   0.365   2.900  13.784 -0.1018 -0.0827  0.2140
 1493W        W19697  11.685   5.738   6.357  0.0538  0.3291 -0.0724
 1494W        W19698   6.429   6.398   5.252 -0.1571 -0.0716 -0.1764
 1495W        W19699  16.853   2.251   4.209  0.0786 -0.1166  0.0168
 1496W        W19700   3.880  13.494  14.397  0.1512 -0.1338  0.1211
 1497W        W19701  16.192  13.493  16.410  0.1016  0.3406  0.0046
 1498W        W19702   5.665   2.281   3.993 -0.0478 -0.1944  0.3249
 1499W        W19703  16.749  15.231  16.626 -0.0550 -0.0560  0.0635
 1500W        W19704   5.445  10.064   5.084 -0.2079  0.0755  0.1370
 1501W        W19705   2.889   3.112   2.442 -0.1645 -0.0085  0.1037
 1502W        W19706   2.460   6.865  13.201  0.0540 -0.0091 -0.0452
 1503W        W19707  13.420   6.729  13.908 -0.1914  0.0413 -0.1434
 1504W        W19708   6.191   7.632  12.873 -0.4369  0.2359  0.1021
 1505W        W19709  13.443   2.789   5.216 -0.3633  0.0916 -0.1816
 1506W        W19710   0.760  11.815  15.419 -0.0302  0.2340  0.2798
 1507W        W19711   4.667   1.993  13.835  0.2692 -0.1232 -0.0126
 1508W        W19712   4.777   8.596   3.543 -0.3305  0.1786  0.3644
 1509W        W19713   4.793   0.995   1.439 -0.1531  0.0065  0.1609
 1510W        W19714   7.111   4.408  15.117  0.1648 -0.0096 -0.1399
 1511W        W19715  12.683   6.126  12.812 -0.0200  0.0308 -0.1975
 1512W        W19716   9.048  12.414   3.267  0.1602  0.0120  0.3189
 1513W        W19717   4.854   5.674   1.543 -0.3031  0.0539  0.1889
 1514W        W19718  13.657   8.264  15.170 -0.0808  0.1792  0.0046
 1515W        W19719  15.977   7.168  14.455  0.0447  0.1256 -0.2827
 1516W        W19720  12.417   5.701  13.559 -0.2452 -0.1600  0.0428
 1517W        W19721  11.030   7.387   5.071  0.1930  0.2059 -0.3850
 1518W        W19722  10.646   4.008   1.734  0.1617 -0.0138 -0.0510
 1519W        W19723   9.713   6.902   5.026  0.1919  0.1189 -0.0080
 1520W        W19724   6.370  15.091   4.383 -0.4341 -0.0803  0.0076
 1521W        W19725  17.388   9.198   3.817 -0.2349 -0.0089  0.1409
 1522W        W19726   4.110   9.997  12.806 -0.0773  0.2780 -0.0793
 1523W        W19727  13.432   4.624   5.534  0.1864  0.1384  0.0078
 1524W        W19728   3.584   6.068   2.113  0.3075 -0.1358 -0.5265
 1525W        W19729  11.451   7.888   0.162 -0.2176 -0.2026 -0.0283
 1526W        W19730   2.404  10.489  15.934 -0.0660 -0.0015  0.3146
 1527W        W19731   7.062   3.256   2.564  0.1447  0.0104  0.0492
 1528W        W19732  15.486   1.918   5.480 -0.2861 -0.0109  0.1476
 1529W        W19733  16.940   7.147  16.527  0.1866  0.1647  0.0553
 1530W        W19734   0.930   4.133  13.326 -0.0974 -0.2030 -0.1936
 1531W        W19735  16.073  12.693  15.803 -0.1541 -0.2289  0.1682
 1532W        W19736   0.731   0.063  14.177  0.1027 -0.0907  0.0513
 1533W        W19737  12.798  13.413  14.839  0.2409 -0.1118  0.0475
 1534W        W19738   3.647   6.686   2.092 -0.1277  0.0667  0.1622
 1535W        W19739   6.817   5.510  17.179 -0.3364  0.0292 -0.1955
 1536W        W19740   7.470   0.227   3.681 -0.1479  0.0661 -0.3583
 1537W        W19741  14.091  15.400   3.925  0.2688 -0.0255 -0.2168
 1538W        W19742   7.702   6.257  16.665  0.5386  0.0400 -0.1902
 1539W        W19743   2.402   9.339   4.359  0.1151  0.0978 -0.0545
 1540W        W19744  10.120  13.466  13.184  0.0934 -0.3261 -0.0280
 1541W        W19745   5.690   6.160   3.304  0.1236 -0.0448 -0.0506
 1542W        W19746  14.007  13.156  12.881  0.1945 -0.0409  0.0440
 1543W        W19747  16.886   5.862   4.012  0.3220 -0.0522 -0.5404
 1544W        W19748  14.880   3.303  15.294  0.1782  0.0329 -0.0597
 1545W        W19749   6.770  10.123  14.477  0.1461 -0.1816  0.2998
 1546W        W19750  15.240   6.905   4.976  0.2236  0.0272 -0.0549
 1547W        W19751   2.646   7.581  17.169  0.0166 -0.1460 -0.1823
 1548W        W19752   7.982  17.151   3.390 -0.1798  0.0284  0.0046
 1549W        W19753  10.013  16.174  12.393 -0.1974  0.1325 -0.1406
 1550W        W19754  13.008   3.669   3.745  0.0404 -0.0678 -0.0897
 1551W        W19755   4.223   1.613  14.883 -0.2411 -0.0139  0.0110
 1552W        W19756  12.601   1.011   2.294  0.0717 -0.2297 -0.1634
 1553W        W19757   3.249   1.802   3.512 -0.0422 -0.0585 -0.1143
 1554W        W19758  12.046  16.911  15.037 -0.2129 -0.1724 -0.4157
 1555W        W19759   1.916  13.111   0.472 -0.0917 -0.0857 -0.0543
 1556W        W19760  14.401   5.113   2.902 -0.0575  0.1981 -0.2904
 1557W        W19761   4.083  13.072  16.817 -0.0108 -0.0907  0.2133
 1558W        W19762  15.255   5.103  14.899 -0.2122  0.1507 -0.0569
 1559W        W19763   7.011   5.810   0.650 -0.1924 -0.1553 -0.0827
 1560W        W19764  15.236   1.789   5.930 -0.2796 -0.0441 -0.0484
 1561W        W19765  11.882  12.823  14.058 -0.0476 -0.2584 -0.0762
 1562W        W19766  14.336   2.535   4.729  0.1971 -0.0612 -0.3653
 1563W        W19767  12.039   6.169  13.272  0.1578  0.1163 -0.1364
 1564W        W19768  12.824   6.470  17.076  0.1372 -0.0738  0.3396
 1565W        W19769  11.010  17.547  15.911  0.2630  0.0663 -0.2828
 1566W        W19770   1.582   4.809  15.781  0.1845 -0.1949 -0.1306
 1567W        W19771  15.162  15.232  13.186  0.3358 -0.0523 -0.1566
 1568W        W19772   1.022   0.173   0.932 -0.0125  0.1991  0.1345
 1569W        W19773  15.028  10.002   2.922  0.0746  0.3602 -0.2764
 1570W        W19774   6.957  15.357  16.976 -0.1591  0.4196  0.1000
 1571W        W19775  12.393  12.369   2.835 -0.0623 -0.0081 -0.0623
 1572W        W19776   4.580   3.317  17.040  0.1575  0.0083  0.0527
 1573W        W19777   6.709  12.110   0.091 -0.1458 -0.0347 -0.1760
 1574W        W19778  16.521   0.998   2.418 -0.5339 -0.1511 -0.0317
 1575W        W19779  12.425  15.846   3.504 -0.4134 -0.0929 -0.3949
 1576W        W19780  14.580   8.133  13.687 -0.4909 -0.0692  0.1500
 1577W        W19781  13.552  16.893   5.442 -0.0286  0.0521  0.0023
 1578W        W19782   1.460   1.905  16.236  0.2044  0.0387  0.1938
 1579W        W19783  17.219   6.607  13.433  0.0094  0.1621  0.0273
 1580W        W19784   5.368  14.930   0.993  0.1522  0.4965 -0.0135
 1581W        W19785  14.670   9.146   3.933 -0.1593  0.1867  0.1485
 1582W        W19786  15.164   0.817   4.231  0.0565  0.0471 -0.5728
 1583W        W19787   7.318   4.354   2.346 -0.0365  0.1144 -0.0702
 1584W        W19788   0.598   4.543  14.974 -0.0807 -0.0873  0.1715
 1585W        W19789   9.733  13.074  12.589 -0.3008  0.3443 -0.1254
 1586W        W19790   6.359   0.558  13.847 -0.0059  0.2390 -0.1089
 1587W        W19791  16.897   8.783   1.684  0.1137  0.0640  0.1457
 1588W        W19792   0.318   5.061  12.746  0.3155  0.0325 -0.1574
 1589W        W19793  11.790  12.583   3.233 -0.0496 -0.1366 -0.4210
 1590W        W19794  13.452   0.883   5.164 -0.0618 -0.1167  0.2835
 1591W        W19795   9.525   6.006   4.878 -0.1585 -0.0591  0.2173
 1592W        W19796   4.898   0.729  15.597  0.3295  0.3617 -0.3686
 1593W        W19797   7.561  10.386   2.792 -0.2360  0.4153 -0.0502
 1594W        W19798   6.477  10.323  16.348  0.0212  0.0571 -0.0128
 1595W        W19799   8.556   5.404   0.288 -0.1014 -0.1644  0.1273
 1596W        W19800   1.432  14.143   6.458  0.3620 -0.0723 -0.2129
 1597W        W19801  11.120   9.631  15.138 -0.1364 -0.0679  0.1008
 1598W        W19802  13.368  16.978   4.684 -0.2451  0.2158  0.0243
 1599W        W19803  12.216  16.732  16.982 -0.0814  0.0021  0.0153
 1600W        W19804  15.834   0.014   5.497 -0.0357 -0.2343  0.1346
 1601W        W19805  17.446   0.386  16.385 -0.1326 -0.0181  0.2638
 1602W        W19806  10.891  13.644   4.548 -0.1814 -0.0010  0.5183
 1603W        W19807  17.268  15.969  17.005 -0.1232 -0.0015  0.0525
 1604W        W19808   7.784   6.275  15.302 -0.0425  0.0349  0.1634
 1605W        W19809   2.378  13.817   4.405 -0.1248  0.0786  0.2396
 1606W        W19810  14.438  10.677   0.105  0.0046  0.0565 -0.0503
 1607W        W19811   2.609   7.197  15.114 -0.4507 -0.0003 -0.0580
 1608W        W19812   4.201   7.665  15.399  0.0506  0.0650  0.2143
 1609W        W19813   4.186  15.581  15.989  0.0512 -0.1081  0.0518
 1610W        W19814   5.571  11.243   4.253  0.2101 -0.1506  0.2936
 1611W        W19815  10.808  10.591  17.065 -0.0472  0.1692 -0.0784
 1612W        W19816   3.345  13.881  15.068  0.4093  0.2663  0.1746
 1613W        W19817  16.545  15.799   0.946 -0.1205 -0.1705 -0.1474
 1614W        W19818  15.336  11.342   2.192 -0.3139 -0.1967  0.1042
 1615W        W19819  16.938  15.869  13.468  0.4564  0.4128 -0.1969
 1616W        W19820  16.591  17.244   2.523  0.0292 -0.2566  0.0965
 1617W        W19821  13.275  14.321   5.546  0.1194  0.1746 -0.1009
 1618W        W19822   8.975   5.294   0.075  0.1194  0.2707  0.0032
 1619W        W19823   3.397   3.095  12.311  0.1268 -0.0537 -0.3199
 1620W        W19824  10.450   3.894  12.968 -0.3330  0.0278  0.0460
 1621W        W19825   1.933   7.273  14.043 -0.1506  0.1371  0.0858
 1622W        W19826   5.707   4.486   3.441  0.1426 -0.3870  0.2112
 1623W        W19827  15.452   7.508  15.616  0.2145  0.2047  0.2198
 1624W        W19828  11.693   1.694   1.064 -0.0418 -0.2076 -0.2407
 1625W        W19829  15.810  12.677   6.275 -0.0803  0.1810  0.0813
 1626W        W19830  12.860   5.423   4.081  0.1340  0.2513 -0.0940
 1627W        W19831   4.431  15.060  15.580  0.2400  0.0123 -0.5397
 1628W        W19832  12.829   0.346  15.462  0.1560  0.2004 -0.3341
 1629W        W19833   0.707   8.746  15.914  0.1720 -0.0390 -0.1263
 1630W        W19834   2.022   7.979  16.230  0.1497  0.2761 -0.1701
 1631W        W19835   8.674  12.940  16.397 -0.0756 -0.2096 -0.2753
 1632W        W19836  13.527  13.847   5.602 -0.3466  0.0711 -0.1825
 1633W        W19837   9.000  17.434   3.050 -0.0461  0.0181 -0.1168
 1634W        W19838   1.001   9.235  15.770  0.0733 -0.1710 -0.2218
 1635W        W19839  15.763   7.150  15.489 -0.0502  0.0972  0.1294
 1636W        W19840   9.197   3.711   4.044  0.0314 -0.3025  0.0067
 1637W        W19841   0.376  16.838   3.929  0.1471 -0.1957 -0.0210
 1638W        W19842  13.174   6.924   5.433  0.1230  0.2036  0.0524
 1639W        W19843   2.585  17.529   3.839 -0.0613 -0.0846  0.0007
 1640W        W19844   7.827   8.203   0.544 -0.0169 -0.1377 -0.1046
 1641W        W19845   5.011  14.958   4.055 -0.3218  0.0768 -0.0937
 1642W        W19846  12.651  17.147   2.353  0.4880 -0.1093  0.0435
 1643W        W19847   9.583   8.051  13.666 -0.3331 -0.0855  0.1450
 1644W        W19848   9.209  12.981   3.981 -0.0369 -0.0482  0.1031
 1645W        W19849  10.168  10.711   4.857  0.1859 -0.0868  0.0210
 1646W        W19850   4.828   4.894  13.637  0.0252 -0.3504  0.1233
 1647W        W19851  14.478  10.908   0.674  0.1833  0.0996 -0.1017
 1648W        W19852  13.124  10.573   3.959  0.3698 -0.0035  0.3341
 1649W        W19853  17.008  10.486   0.299  0.2709  0.1496 -0.1577
 1650W        W19854   2.079  12.031  16.585 -0.0671 -0.0027  0.1381
 1651W        W19855   6.605   8.511   4.319  0.0396  0.2087  0.2768
 1652W        W19856   5.206   6.268   1.043 -0.0881  0.1880  0.0493
 1653W        W19857   4.497  11.795   0.912  0.0505  0.1870 -0.3168
 1654W        W19858   3.320  10.581   5.201  0.0076 -0.0650  0.0478
 1655W        W19859  10.039   3.167  12.360  0.1521 -0.2145 -0.5863
 1656W        W19860  13.713  12.514   2.114  0.1659 -0.4296 -0.1270
 1657W        W19861  14.667   3.393  16.620 -0.1943 -0.1165  0.5097
 1658W        W19862   4.647   9.074   5.086  0.0364  0.1755  0.3220
 1659W        W19863  16.452  11.352   5.255  0.0572  0.1087  0.3154
 1660W        W19864  17.498  11.416   1.732  0.1301 -0.1545  0.2758
 1661W        W19865   9.577  12.215  15.262 -0.3074  0.0901 -0.0317
 1662W        W19866   6.594   3.080   2.753  0.0689  0.1432  0.0835
 1663W        W19867  12.066  16.544   1.761 -0.2901  0.1610 -0.2291
 1664W        W19868   4.751  12.213   0.004 -0.0187  0.1085  0.2894
 1665W        W19869   4.418  13.746  14.386 -0.2367  0.0725  0.0189
 1666W        W19870  16.434   2.834  14.734 -0.2306 -0.2092  0.0068
 1667W        W19871  12.075  12.864  12.344  0.2480 -0.3911 -0.2258
 1668W        W19872   7.450  17.446   5.550 -0.1293  0.2733 -0.0389
 1669W        W19873  11.759  17.456  12.708  0.1975 -0.0429 -0.1511
 1670W        W19874  17.113   2.627  14.507  0.2555  0.1386 -0.0376
 1671W        W19875  15.272  16.418  13.115  0.2073  0.0554 -0.1023
 1672W        W19876  15.140  15.105   4.865  0.0551 -0.1034 -0.2274
 1673W        W19877   7.306   8.382  16.289 -0.1876  0.1638 -0.0551
 1674W        W19878   3.176   1.736   1.731  0.0919  0.0088  0.2057
 1675W        W19879  14.062   0.076   5.405 -0.3278 -0.1511 -0.0911
 1676W        W19880  11.883   5.038  12.616 -0.1021 -0.2940 -0.3842
 1677W        W19881   7.024   4.042  15.485 -0.0774  0.0701 -0.1514
 1678W        W19882  13.452   6.533   4.240 -0.1070 -0.1314 -0.0339
 1679W        W19883  13.545   0.366  16.207  0.1097  0.0749  0.3137
 1680W        W19884   4.321  10.147  17.210  0.1299 -0.0147  0.3388
 1681W        W19885   1.009   4.212  14.748 -0.3223 -0.1948  0.0388
 1682W        W19886   7.375   1.195  16.539  0.2103  0.2037 -0.1035
 1683W        W19887   5.948   4.635   0.525 -0.2755  0.0960  0.3306
 1684W        W19888   9.176   2.339   4.228 -0.0213 -0.0808  0.2570
 1685W        W19889  17.311   3.013   0.550  0.2521  0.1254 -0.2138
 1686W        W19890  15.329   4.276  13.857  0.4034  0.1137  0.1862
 1687W        W19891   6.155  15.984   0.327 -0.0051 -0.0476  0.0792
 1688W        W19892  15.861   2.745  14.654  0.0062 -0.0615 -0.0474
 1689W        W19893   2.462   9.652  14.506  0.1799 -0.0702 -0.1316
 1690W        W19894   8.860  13.022   0.473 -0.0913  0.1301  0.2033
 1691W        W19895  11.116   4.767   5.409 -0.3291  0.0210 -0.0618
 1692W        W19896  11.733  13.087   2.991 -0.3616  0.1991  0.1222
 1693W        W19897   5.511   4.117   3.087 -0.1887  0.0832 -0.0658
 1694W        W19898   8.768   4.765   0.038  0.2732 -0.1720 -0.3192
 1695W        W19899   0.305  11.251  12.428 -0.0016  0.2417 -0.3116
 1696W        W19900  14.825   0.542  14.405 -0.0949 -0.3433 -0.1942
 1697W        W19901   8.170  11.027  13.321 -0.1908  0.0894  0.0063
 1698W        W19902   9.192  16.738  14.615  0.2545  0.0605 -0.1391
 1699W        W19903   7.395   6.395   4.399  0.2134  0.3546 -0.2245
 1700W        W19904  14.411   8.331   1.046 -0.0890  0.4189  0.1820
 1701W        W19905   0.170  16.389   4.233  0.1743 -0.0666 -0.3497
 1702W        W19906   1.488   4.306  16.664 -0.0454  0.4117 -0.5558
 1703W        W19907   0.039  12.767  12.224 -0.4356  0.1758  0.3707
 1704W        W19908   6.770  14.314   3.728  0.2368  0.1307  0.0454
 1705W        W19909  11.600  12.542   1.765 -0.0114 -0.2793 -0.1932
 1706W        W19910   9.281  16.187   1.489 -0.3699 -0.0162  0.1008
 1707W        W19911  12.919  12.979   5.233  0.2581 -0.0765 -0.3254
 1708W        W19912   3.807  17.292  15.996 -0.1380 -0.2096 -0.2667
 1709W        W19913   3.420   6.332  13.641  0.1049 -0.3790 -0.0481
 1710W        W19914   4.410   0.349   4.954 -0.1545  0.0796  0.2265
 1711W        W19915   9.509   1.541  15.517 -0.0665  0.2524 -0.1308
 1712W        W19916   8.500  14.655  13.048  0.1599 -0.0468  0.2464
 1713W        W19917   2.407   1.540  15.638  0.1817  0.4029  0.1757
 1714W        W19918   4.813  15.310  13.384  0.2816  0.1755 -0.1803
 1715W        W19919   1.693   7.112  14.907 -0.1478  0.0214 -0.4468
 1716W        W19920  12.254   6.755   3.853  0.0249  0.0253 -0.2293
 1717W        W19921  17.031   4.131  12.399  0.0751  0.0763  0.0473
 1718W        W19922  10.278   2.977  12.760  0.1088  0.0557 -0.0902
 1719W        W19923   1.352   2.121  14.827 -0.1281 -0.1303  0.1449
 1720W        W19924   8.261   0.925  15.843 -0.1631 -0.0976  0.0205
 1721W        W19925   6.040  13.437  15.987 -0.1362 -0.0472  0.2140
 1722W        W19926   8.516   5.032  13.807 -0.0430  0.1023 -0.0942
 1723W        W19927   3.401   2.700   3.653  0.0664 -0.0783 -0.0411
 1724W        W19928  16.227   1.734   4.126  0.1205  0.4932 -0.0434
 1725W        W19929  13.014  14.626   0.120 -0.0696  0.0327  0.0635
 1726W        W19930   5.857   3.264   4.911  0.0523  0.0628 -0.0010
 1727W        W19931   7.095   6.824  17.221 -0.1799  0.1091 -0.3010
 1728W        W19932   4.405  12.739   3.887  0.2895  0.2759 -0.1038
 1729W        W19933   3.596  16.808  14.490 -0.2632 -0.1050 -0.0670
 1730W        W19934  14.930  10.056   1.216 -0.2152 -0.0435  0.1901
 1731W        W19935   2.022   6.538   3.494 -0.2156  0.0112 -0.0590
 1732W        W19936   7.665  17.331   1.189 -0.2316 -0.0551 -0.0048
 1733W        W19937   9.138   9.176  12.815 -0.2819  0.1471  0.1024
 1734W        W19938  17.421   7.009  12.674  0.0343  0.3023 -0.0542
 1735W        W19939  14.508   8.170  13.090 -0.0257 -0.1235  0.1042
 1736W        W19940   8.082  10.497  15.344 -0.4323  0.2078 -0.0269
 1737W        W19941  13.624   5.477   2.606  0.2347  0.1110 -0.3077
 1738W        W19942  13.959  12.751  14.369 -0.1823  0.0197  0.1203
 1739W        W19943   8.409  15.828  15.161  0.3855  0.2446  0.0977
 1740W        W19944   3.637   3.720   2.387 -0.0663 -0.0425 -0.0369
 1741W        W19945   6.822  14.267  12.286  0.0299 -0.0272  0.0126
 1742W        W19946   7.266   3.005   1.684  0.1319  0.1610 -0.1106
 1743W        W19947   3.916  11.480   1.329 -0.1519 -0.2437  0.1537
 1744W        W19948  14.510  17.530   0.317  0.0803 -0.1446 -0.0467
 1745W        W19949  10.496  11.945   2.931 -0.0489 -0.0051 -0.0250
 1746W        W19950  10.884   9.086   3.387  0.0223  0.1271 -0.1564
 1747W        W19951   9.926  16.196   2.179  0.2508 -0.1167 -0.2485
 1748W        W19952   5.773   0.489  13.015 -0.0689 -0.1915  0.2675
 1749W        W19953  15.471   7.588  16.938  0.0740 -0.2286 -0.3211
 1750W        W19954   8.764   0.835  13.304 -0.3322  0.1435 -0.0533
 1751W        W19955  14.295   0.345  12.654 -0.0559 -0.1829  0.2168
 1752W        W19956   2.095   0.279   3.289  0.0490  0.2206 -0.2079
 1753W        W19957   6.888  15.457   3.788 -0.0795  0.1061 -0.1512
 1754W        W19958   4.807   2.909   0.004  0.2044  0.1251  0.0082
 1755W        W19959   9.760  10.701  12.825 -0.1137 -0.0044 -0.0075
 1756W        W19960  16.408  11.149   0.930  0.1123  0.2609 -0.0042
 1757W        W19961   2.839  14.079   4.361 -0.0513  0.1834  0.2613
 1758W        W19962   5.184   6.121   3.472  0.0368 -0.1044 -0.1348
 1759W        W19963  10.021  16.620   5.729 -0.0578  0.2198  0.1272
 1760W        W19964  11.028   1.794  14.052 -0.0084  0.2541 -0.3836
 1761W        W19965  14.989   0.701  16.170 -0.1491 -0.3572 -0.2699
 1762W        W19966   6.218   1.318  13.415  0.0047 -0.0645 -0.2586
 1763W        W19967  12.379  10.013  15.320  0.2227 -0.2014  0.1618
 1764W        W19968  14.858  10.873  12.767 -0.1832 -0.1413  0.1541
 1765W        W19969   9.458  16.509   0.531  0.0255  0.0251  0.1617
 1766W        W19970  17.379   4.621  14.489  0.0889 -0.3342  0.2725
 1767W        W19971  10.357   8.442   1.952  0.1485  0.2288  0.0362
 1768W        W19972   8.331  14.446   4.477  0.2007  0.0968 -0.1025
 1769W        W19973  12.057   5.275  13.695 -0.1850 -0.1330  0.1021
 1770W        W19974  14.420   9.755   4.038  0.1368  0.0674  0.2048
 1771W        W19975   7.294  10.004   1.564  0.2838 -0.2592 -0.1906
 1772W        W19976   4.588   1.900   4.155  0.2659  0.2027  0.1183
 1773W        W19977   8.067  10.405   4.417  0.0309 -0.1281 -0.1733
 1774W        W19978   8.249   8.117   2.030 -0.1482 -0.6039 -0.0254
 1775W        W19979   5.751   0.108   1.883 -0.0213  0.1395  0.1809
 1776W        W19980  12.238  13.052   1.381 -0.0064 -0.1133  0.0102
 1777W        W19981   1.774  11.183   5.114  0.1794  0.1483 -0.0948
 1778W        W19982  12.793  16.142  16.598  0.2441  0.3869 -0.1242
 1779W        W19983  12.803  17.537   2.646 -0.0681 -0.0824  0.3827
 1780W        W19984  14.143   4.664  17.168 -0.3386 -0.0414  0.0053
 1781W        W19985   3.939  10.359   0.560  0.1340  0.1996 -0.0058
 1782W        W19986   8.842  13.612  15.475  0.2491  0.1510  0.2337
 1783W        W19987   8.011  10.512   2.794  0.2331  0.2295 -0.1960
 1784W        W19988   9.068   7.800  17.188  0.3593 -0.0345  0.0789
 1785W        W19989   5.441   7.083  12.786 -0.0525 -0.2457 -0.1359
 1786W        W19990   0.430  15.021   1.211  0.1939  0.1041 -0.0330
 1787W        W19991  11.572  12.845  12.441  0.0704 -0.0237 -0.1313
 1788W        W19992   7.109   5.320   0.314  0.1359 -0.0442  0.0462
 1789W        W19993   2.658   0.333   5.259  0.0358  0.0993  0.0105
 1790W        W19994  16.596   2.655   4.031 -0.1572  0.1871  0.1023
 1791W        W19995  10.969   5.137  12.797 -0.2512  0.1130  0.0221
 1792W        W19996  16.990   0.932  14.847 -0.1158  0.3019 -0.2097
 1793W        W19997  12.434   6.827  17.072 -0.1452 -0.2317  0.0780
 1794W        W19998  13.631  10.314   2.735  0.4883 -0.0958  0.0365
 1795W        W19999  13.357  13.415  14.968 -0.0544 -0.1362 -0.0485
 1796W        W20000  13.069   8.881  16.820 -0.1503 -0.2969  0.0028
 1797W        W20001   1.529   9.923  16.870  0.0701  0.2098  0.1493
 1798W        W20002   2.352  16.987  14.506  0.1808  0.2434 -0.0641
 1799W        W20003   7.490   2.249   3.850 -0.1926 -0.2775 -0.0267
 1800W        W20004   7.447   9.937   3.232 -0.0575 -0.2267 -0.3300
 1801W        W20005  16.332  12.571   1.182  0.3113  0.0895 -0.1540
 1802W        W20006   3.253   3.935  13.643 -0.0727  0.1668  0.0854
 1803W        W20007   1.312   3.757  15.572 -0.1491 -0.0736  0.0066
 1804W        W20008  15.367   0.234  16.865  0.0421  0.0622 -0.0143
 1805W        W20009  17.249  15.424  16.857  0.0344 -0.3104  0.1330
 1806W        W20010   2.942  15.853  13.629  0.0989 -0.1770  0.1515
 1807W        W20011   2.973  16.292   3.294 -0.2639  0.2551  0.1891
 1808W        W20012  13.036   5.871   4.405  0.2307 -0.0990  0.1180
 1809W        W20013  14.064   9.021  16.543  0.2964 -0.0877  0.2360
 1810W        W20014  13.991   7.000  16.796 -0.0341 -0.0047 -0.0177
 1811W        W20015   5.300   5.921   2.963  0.1957 -0.0387  0.1108
 1812W        W20016   4.008   3.687  13.266  0.1410 -0.1312 -0.3688
 1813W        W20017   5.566  10.485  13.546  0.1379 -0.2241 -0.4058
 1814W        W20018  11.655  12.095  14.139 -0.1072  0.0578 -0.2680
 1815W        W20019  12.656  14.561   3.551 -0.0744  0.0432 -0.2289
 1816W        W20020  11.216   9.643   5.034 -0.1718 -0.0510 -0.1188
 1817W        W20021  16.278  16.826   3.128 -0.0164 -0.0953  0.0069
 1818W        W20022  15.567   2.426  14.354  0.1205  0.0399  0.5069
 1819W        W20023   3.966  13.967  12.415 -0.2924  0.0565  0.1275
 1820W        W20024   3.658   8.851   2.262 -0.2348 -0.2203  0.1858
 1821W        W20025   5.530   7.876  12.643  0.1616 -0.1902  0.0252
 1822W        W20026   5.509  15.114   3.831  0.1446 -0.2105  0.0421
 1823W        W20027  11.264   0.950   3.124  0.1461  0.1765 -0.0081
 1824W        W20028   5.395   0.149   2.349 -0.1431 -0.4167  0.0103
 1825W        W20029  13.854  11.815   5.316 -0.0994  0.2236 -0.1640
 1826W        W20030   4.783  13.186  12.912 -0.0187  0.2294  0.0408
 1827W        W20031   0.363   2.043  15.507 -0.1324 -0.2117 -0.0790
 1828W        W20032   2.374  11.149   0.262  0.0550  0.4945 -0.0258
 1829W        W20033  10.595  14.875  14.258  0.2113  0.1586 -0.1002
 1830W        W20034   2.072   6.866   4.644  0.0904  0.2222 -0.1623
 1831W        W20035   0.296   5.145   2.727 -0.2108  0.3137 -0.2226
 1832W        W20036  14.898  14.913  16.311 -0.5114  0.0318  0.1083
 1833W        W20037   4.215   2.197   4.626  0.0852  0.1135  0.1138
 1834W        W20038  16.029  10.031  17.240 -0.2162 -0.0916 -0.4132
 1835W        W20039  16.831  13.747  11.310  0.2150 -0.0869  0.1748
 1836W        W20040   2.555  14.293  16.415 -0.3118 -0.2074  0.0616
 1837W        W20041  14.673   1.842  14.407  0.3111 -0.0274  0.0433
 1838W        W20042  12.556   4.102   0.400 -0.1034  0.3696 -0.1457
 1839W        W20043   4.591   9.398  17.175  0.2434 -0.1113  0.0950
 1840W        W20044  10.483   1.304   1.524 -0.0112 -0.3477 -0.2125
 1841W        W20045   7.048   2.162  15.822 -0.1098  0.1430  0.1346
 1842W        W20046  14.736  10.028   4.894 -0.0857  0.0732  0.0116
 1843W        W20047  12.038  10.452  15.530  0.2147 -0.1870 -0.0989
 1844W        W20048   1.198   8.940  12.410 -0.0922  0.0464  0.1543
 1845W        W20049   0.206  14.588   4.444 -0.2309 -0.1166 -0.0687
 1846W        W20050   3.985  16.500   4.369 -0.1431  0.0442 -0.4253
 1847W        W20051  10.432   3.166  14.157 -0.1657  0.0664 -0.1024
 1848W        W20052   2.727  10.077   1.205  0.0797 -0.0526 -0.1704
 1849W        W20053   9.151   5.252  13.891  0.0952 -0.4664  0.2074
 1850W        W20054  13.140   3.930  12.521 -0.3360 -0.0122  0.2052
 1851W        W20055   2.091  16.159  15.504  0.2741 -0.4190  0.2272
 1852W        W20056   0.948   8.536  12.598  0.0389 -0.1282 -0.0108
 1853W        W20057   7.300   1.270   5.112 -0.2644 -0.0606  0.2464
 1854W        W20058   7.980   0.481   4.030 -0.0707  0.1016  0.1104
 1855W        W20059  13.120  15.949   2.561 -0.1080  0.2636 -0.1115
 1856W        W20060  13.478  16.627  14.859  0.2588 -0.4274 -0.3154
 1857W        W20061   8.635  10.088  13.584 -0.0749  0.2043 -0.1243
 1858W        W20062   7.859   7.224  13.613  0.5565 -0.0795 -0.2650
 1859W        W20063   9.683  14.486  14.829  0.0861  0.3515 -0.0940
 1860W        W20064   4.409   4.568   2.861  0.1138 -0.0281 -0.1479
 1861W        W20065  15.204  10.938   1.183  0.0813  0.1802  0.4357
 1862W        W20066   7.112   2.991   1.142 -0.1101 -0.1212  0.2898
 1863W        W20067   2.131   1.044  14.071 -0.3860 -0.0546 -0.0922
 1864W        W20068  12.774  10.292  15.061 -0.1326 -0.1504 -0.0804
 1865W        W20069   5.022   4.585  14.440  0.4058  0.0417  0.3758
 1866W        W20070   9.902   3.199  15.905  0.1562 -0.4590 -0.2334
 1867W        W20071  15.672  16.700  12.882 -0.3913 -0.0497  0.0273
 1868W        W20072   1.709  17.409   0.847  0.2236  0.1847  0.1050
 1869W        W20073   9.021  11.094  16.641  0.2103 -0.1050 -0.4017
 1870W        W20074   1.508   9.306   3.265  0.0622  0.3341 -0.1302
 1871W        W20075   1.643   5.260   3.193  0.1944  0.1172 -0.3143
 1872W        W20076  13.322   3.506  12.300  0.0091  0.2239  0.0499
 1873W        W20077   2.480   5.912   1.632 -0.1042  0.1076 -0.1266
 1874W        W20078   0.764   1.012   0.669 -0.0109 -0.0147  0.2171
 1875W        W20079  15.766   2.857   1.749  0.0538 -0.2985  0.0733
 1876W        W20080   3.142   6.845   2.728  0.0730  0.0639 -0.1907
 1877W        W20081  15.102  15.034  12.701  0.1029 -0.1628 -0.3172
 1878W        W20082  10.699   8.645  16.663  0.0783 -0.0263 -0.1475
 1879W        W20083   2.626   9.502   1.934 -0.0739 -0.0721  0.0477
 1880W        W20084   4.301   7.295  12.877  0.2616 -0.4802 -0.1510
 1881W        W20085   9.689   3.269  16.889 -0.3536  0.4920 -0.0299
 1882W        W20086   6.464  14.987  15.080 -0.0259 -0.1565  0.2758
 1883W        W20087  17.087  13.672   5.479 -0.1057 -0.1873 -0.1006
 1884W        W20088  12.417   2.335   3.722 -0.1696  0.0379  0.0084
 1885W        W20089  16.130  17.502   2.525  0.0001 -0.3428  0.0576
 1886W        W20090   9.423  12.190  14.765 -0.2414 -0.0417 -0.1141
 1887W        W20091   8.500   5.361  15.994  0.0359  0.0459  0.1435
 1888W        W20092   4.332   8.360   1.882 -0.0719  0.0182 -0.0037
 1889W        W20093   4.407  10.528  16.840  0.2393  0.2443 -0.1730
 1890W        W20094   0.247  14.494  15.255 -0.5350  0.2118  0.2543
 1891W        W20095   4.596   6.214  17.073  0.2531 -0.0179  0.0378
 1892W        W20096  14.708  16.762  15.807 -0.2019 -0.1216  0.1917
 1893W        W20097   2.647   5.854   4.391 -0.2401  0.1542  0.2083
 1894W        W20098  10.411  16.279   3.266 -0.0247  0.2227 -0.3189
 1895W        W20099  15.961   5.579  12.580 -0.3669 -0.0958  0.0329
 1896W        W20100  10.413  11.211   3.365 -0.4141 -0.4073  0.0931
 1897W        W20101   3.314  13.673  15.615  0.1643 -0.1139  0.0358
 1898W        W20102  16.002   7.108   1.531  0.1806  0.0282 -0.0152
 1899W        W20103   9.427   1.239   1.711  0.0221 -0.0788  0.0722
 1900W        W20104   5.714   4.609  15.061  0.3308  0.2309  0.0906
 1901W        W20105   3.512  11.640   2.179 -0.0982  0.2250  0.0612
 1902W        W20106   3.028   9.598   3.685  0.4862  0.1787  0.0733
 1903W        W20107  12.018   5.074   2.353 -0.0628  0.0111  0.2985
 1904W        W20108   3.714  10.512   5.484 -0.1773 -0.1848  0.2081
 1905W        W20109  14.656   6.374  15.913 -0.2494  0.1187 -0.0747
 1906W        W20110  13.409  12.620  12.704  0.0911  0.1270  0.3473
 1907W        W20111  15.824  16.252   3.574  0.3786  0.2324  0.1048
 1908W        W20112   4.028  16.276   0.952  0.1050  0.0183 -0.0396
 1909W        W20113   5.945   5.679   4.152  0.0863 -0.1143 -0.0001
 1910W        W20114   2.188   2.485   3.792 -0.0943  0.1423  0.4735
 1911W        W20115   5.637   1.494   0.588  0.2570  0.0684  0.0064
 1912W        W20116   1.719  11.288  14.586 -0.0652  0.1332 -0.0057
 1913W        W20117   0.113   6.714  16.283  0.0822  0.1577  0.1019
 1914W        W20118  12.531  16.107   4.028  0.1126  0.0129  0.1219
 1915W        W20119   2.067   7.483  16.278  0.0916 -0.0692  0.1610
 1916W        W20120   9.056  12.371   5.461  0.0068 -0.0325  0.0343
 1917W        W20121  13.476   3.910   3.062  0.1411 -0.2906  0.1393
 1918W        W20122   8.634   1.186   1.365 -0.4081 -0.0968  0.0627
 1919W        W20123  13.300   9.129  12.436 -0.1720 -0.0880  0.2995
 1920W        W20124  10.861  11.166  11.863  0.1442  0.3723  0.1435
 1921W        W20125   0.099  16.899   1.538 -0.0355  0.3239  0.2918
 1922W        W20126   5.899   2.834  13.530 -0.4234 -0.2700 -0.1435
 1923W        W20127  16.953   3.867   4.463  0.4141 -0.1110  0.1070
 1924W        W20128  10.692  11.414   5.036 -0.3796 -0.0407  0.0878
 1925W        W20129   9.428   3.811   0.261 -0.0582 -0.0935  0.0707
 1926W        W20130  13.400   3.046  17.106 -0.4201 -0.2913 -0.3445
 1927W        W20131   8.603   9.831  13.992 -0.1081  0.1231 -0.0738
 1928W        W20132   9.541   3.935   1.914 -0.0697 -0.0858 -0.3018
 1929W        W20133   5.944  10.161  12.559 -0.0524 -0.0223  0.1625
 1930W        W20134   1.255  11.529   1.761 -0.2366 -0.4020  0.2194
 1931W        W20135   8.024   7.982   1.603  0.2418 -0.1028 -0.0179
 1932W        W20136  11.526   0.975  13.143  0.3010  0.0306  0.2077
 1933W        W20137  10.852  14.186  13.733 -0.0568 -0.0828 -0.1684
 1934W        W20138   4.406  14.421   2.189 -0.3963  0.4128 -0.1444
 1935W        W20139   4.474   7.298   4.406  0.0532 -0.0005 -0.1065
 1936W        W20140  10.928  14.913   0.127  0.1838  0.6922  0.0775
 1937W        W20141  11.050   5.923   5.258  0.0465  0.0262  0.3587
 1938W        W20142  16.278  17.201   4.700  0.2309 -0.2645 -0.3036
 1939W        W20143  16.687   7.040   1.615  0.0591 -0.2771 -0.1969
 1940W        W20144   0.056   7.972   3.055 -0.1230 -0.1355 -0.1159
 1941W        W20145  11.588   9.378  13.648  0.1841  0.2378 -0.0347
 1942W        W20146  17.094  11.642  12.573 -0.0293  0.1424 -0.0417
 1943W        W20147  16.798   8.565  16.546 -0.1698 -0.1164  0.0740
 1944W        W20148  10.526   9.771  11.925 -0.2845 -0.1749 -0.0757
 1945W        W20149   2.504   7.197  15.585 -0.0197 -0.1924 -0.0593
 1946W        W20150  16.908   9.076   4.150  0.1912 -0.2472 -0.1686
 1947W        W20151  13.301   1.917   5.346  0.0919  0.0274  0.3481
 1948W        W20152   8.729   8.787  15.984 -0.3245 -0.2169 -0.3194
 1949W        W20153   0.522  13.635   0.862 -0.0681  0.0808  0.0736
 1950W        W20154  11.141   3.240  13.279  0.1953  0.1180  0.3497
 1951W        W20155   2.278  12.517   5.553  0.4291 -0.0758 -0.2204
 1952W        W20156   8.548  17.340   0.584  0.0097 -0.1054 -0.2787
 1953W        W20157   0.574   4.977   1.689 -0.0069 -0.0641  0.2774
 1954W        W20158  15.891  15.887  15.902 -0.1225 -0.1513  0.0103
 1955W        W20159   9.951   3.614   1.968 -0.1950  0.0684 -0.1008
 1956W        W20160  14.769  10.377   5.290  0.1044  0.0414 -0.0074
 1957W        W20161  15.951   7.737  15.667 -0.1532 -0.1168  0.3415
 1958W        W20162  11.082   7.820   0.587 -0.2468  0.1756  0.0401
 1959W        W20163  15.842   2.982   4.381  0.0125 -0.1012 -0.1694
 1960W        W20164   3.893   2.735   3.543 -0.2289  0.3095 -0.2127
 1961W        W20165   1.248   2.046  13.995 -0.4006  0.1515  0.2531
 1962W        W20166  10.201  11.506  14.781  0.1540 -0.1015 -0.2164
 1963W        W20167  15.241  17.032  13.109 -0.0923 -0.2844 -0.1307
 1964W        W20168  13.908   5.063  16.886  0.1234  0.0553  0.0933
 1965W        W20169  16.099   3.399   5.210 -0.2310  0.2397 -0.1236
 1966W        W20170   0.343   0.708  16.424 -0.0594  0.1274  0.0138
 1967W        W20171   7.734  17.259   0.047 -0.1787  0.0404  0.2479
 1968W        W20172  12.455   9.849   0.810  0.4603  0.1283 -0.0108
 1969W        W20173  11.765   7.228   0.561  0.2318 -0.0288  0.3656
 1970W        W20174   1.279  17.524   4.806  0.0770  0.0088  0.1129
 1971W        W20175   8.846   6.768   3.381  0.0295  0.0020 -0.3144
 1972W        W20176  13.671  13.219  14.352  0.0259 -0.4025  0.0841
 1973W        W20177   4.241   3.159  13.474 -0.2597 -0.0622 -0.0391
 1974W        W20178   7.647  11.597   0.727 -0.1909  0.2683  0.1448
 1975W        W20179  11.984  10.965  15.619  0.0360  0.2674 -0.1916
 1976W        W20180   6.505  13.091  15.213 -0.2691  0.0933 -0.0804
 1977W        W20181   3.493  13.386   4.549  0.0040 -0.1536 -0.2367
 1978W        W20182  10.259   2.004  15.131  0.2956 -0.3141 -0.2315
 1979W        W20183  13.194   0.257   3.557  0.1676 -0.0127 -0.0221
 1980W        W20184  10.837   2.688   4.179 -0.1327  0.0943 -0.1699
 1981W        W20185  16.474   8.490  16.122 -0.2135 -0.0377 -0.0025
 1982W        W20186  14.715   8.619   4.049  0.1241 -0.1997 -0.0540
 1983W        W20187  17.544  11.528   0.802 -0.1364 -0.1786 -0.1579
 1984W        W20188  13.393  11.654   5.444  0.1095  0.1180  0.4563
 1985W        W20189  14.276  14.220   3.328 -0.1469  0.1576  0.1468
 1986W        W20190  13.093  11.751  16.466 -0.1233  0.0806  0.2588
 1987W        W20191   5.285   9.788  12.418  0.0861  0.1088 -0.2181
 1988W        W20192  11.691  16.876   3.920  0.3138  0.1412  0.1116
 1989W        W20193   8.947   6.750  16.168  0.1619  0.0269 -0.1096
 1990W        W20194  12.043   4.678  15.263 -0.0204  0.1290 -0.0906
 1991W        W20195   8.780   8.276  12.818 -0.0686  0.2566 -0.2415
 1992W        W20196  14.595   4.687   2.705  0.2833  0.0829 -0.1748
 1993W        W20197   5.326   5.474  12.883 -0.2384 -0.0949 -0.0358
 1994W        W20198   4.825   0.002   1.231  0.1245 -0.0287  0.0455
 1995W        W20199  10.302   7.931   1.763  0.1337 -0.2861 -0.0961
 1996W        W20200  16.882  16.887  16.299 -0.1952 -0.0390 -0.4098
 1997W        W20201  11.125   3.510  15.374  0.1939 -0.0098 -0.0564
 1998W        W20202  13.994  14.113   4.409 -0.1070  0.0836  0.0521
 1999W        W20203  14.220  12.236   6.463 -0.2461  0.0531 -0.2296
 2000W        W20204   7.125   9.049   3.694  0.0866  0.0637 -0.3349
 2001W        W20205  15.156  14.675   0.512 -0.0335 -0.1446  0.3651
 2002W        W20206  16.356   2.980   2.585 -0.0404  0.1125 -0.1451
 2003W        W20207   1.871   6.989   0.975 -0.2052 -0.1657 -0.0212
 2004W        W20208   6.568   9.425   1.363 -0.3290  0.3792  0.1357
 2005W        W20209   8.836  13.338  16.023  0.0015 -0.1875 -0.0559
 2006W        W20210  14.620   6.539   6.191  0.3090 -0.1614  0.0446
 2007W        W20211  16.775  14.855  12.603 -0.4002  0.0390 -0.1606
 2008W        W20212  12.452   2.116   2.057  0.2330 -0.2572  0.0674
 2009W        W20213   0.845   1.229  14.799 -0.3823 -0.3156  0.2489
 2010W        W20214   4.005   8.906   3.192 -0.1919  0.0360 -0.0431
 2011W        W20215  11.237  12.199  15.987 -0.0259 -0.3086 -0.0036
 2012W        W20216   7.490   3.273  16.397 -0.0246 -0.0673 -0.1117
 2013W        W20217  14.817  13.153  15.536  0.2283 -0.4409 -0.0077
 2014W        W20218  16.827   9.355   0.455 -0.1134 -0.1375  0.0001
 2015W        W20219   9.272   3.331   2.038  0.0592 -0.2327  0.0735
 2016W        W20220   4.823   5.931  12.285  0.0513  0.1851  0.0244
 2017W        W20221   5.020  14.081  16.923  0.3480  0.0217  0.1311
 2018W        W20222  12.192  17.509  12.446  0.1642  0.7533  0.5150
 2019W        W20223   2.832   9.297   1.061  0.1123 -0.0708 -0.1574
 2020W        W20224  14.312  14.918  14.969 -0.0500 -0.0258  0.0888
 2021W        W20225   3.265  16.916   2.190  0.0430  0.1096 -0.2290
 2022W        W20226   9.971   5.323  12.592  0.0737 -0.1221 -0.1651
 2023W        W20227  12.284  17.030  16.012 -0.0257 -0.0516 -0.2067
 2024W        W20228  11.270  13.588  14.905 -0.2163 -0.1395 -0.0991
 2025W        W20229   2.498   5.809  12.865  0.5392  0.3796 -0.3828
 2026W        W20230   9.620  12.211   1.793  0.0934 -0.5176  0.2630
 2027W        W20231   0.364   2.259  12.487 -0.1689 -0.1080 -0.2088
 2028W        W20232   1.245   0.154  14.942  0.4341  0.0816 -0.0999
 2029W        W20233   8.683   2.427   3.965  0.1080 -0.1162 -0.0923
 2030W        W20234   2.464   8.906   5.889 -0.1883 -0.0819  0.3733
 2031W        W20235   9.085   5.679   4.962 -0.0259  0.0057  0.0541
 2032W        W20236  14.781  12.520  16.205  0.0936  0.2987 -0.1809
 2033W        W20237  10.037   3.311   1.465 -0.2493  0.3533  0.4790
 2034W        W20238   9.752  12.268   4.006 -0.0289 -0.1091  0.3087
 2035W        W20239   4.581   4.750  14.645 -0.0950 -0.0745  0.1488
 2036W        W20240  14.039  12.738  14.982 -0.1992 -0.1483 -0.0242
 2037W        W20241   6.454   7.039   1.038 -0.0292 -0.0201  0.1722
 2038W        W20242   4.619   7.534   3.172 -0.0965  0.0184 -0.1100
 2039W        W20243  13.378   4.680   1.020  0.0148 -0.1233 -0.0662
 2040W        W20244   1.380   4.432   2.397  0.1687 -0.0493 -0.3305
 2041W        W20245  16.467   6.071   0.227  0.0866  0.1313 -0.1828
 2042W        W20246  11.897  10.279   3.419  0.1274 -0.0587 -0.0154
 2043W        W20247   6.893   3.996  16.417 -0.1033 -0.0076 -0.0353
 2044W        W20248  11.201   9.815  17.062 -0.1978 -0.1208 -0.1619
 2045W        W20249  11.493   5.981   0.695  0.3079 -0.0517  0.3140
 2046W        W20250   9.547  11.840  13.615  0.2497 -0.1486 -0.2074
 2047W        W20251  12.265  16.448  14.764  0.2904  0.2049 -0.0356
 2048W        W20252  13.412   7.935  16.657  0.1961 -0.0367  0.0702
 2049W        W20253  13.825   6.695  16.450  0.0222  0.1097 -0.1011
 2050W        W20254   6.964  11.930   3.544  0.0874 -0.0009  0.1001
 2051W        W20255  13.835   1.740   1.786 -0.0271  0.2332  0.0915
 2052W        W20256   0.292   7.725  11.893  0.2455  0.0218  0.1840
 2053W        W20257   1.907   6.158  14.289  0.1664  0.3976  0.1659
 2054W        W20258  14.731   5.666  13.754 -0.3480  0.1490  0.0654
 2055W        W20259   1.764  15.456  15.992 -0.1885  0.0216 -0.1709
 2056W        W20260  15.219   3.787  17.183  0.1464  0.0193 -0.1551
 2057W        W20261  11.907  13.363  13.753  0.1095  0.2608 -0.1038
 2058W        W20262   9.612  14.264   1.471  0.2679  0.0801 -0.1796
 2059W        W20263  16.981  10.732   3.489  0.0813 -0.0821 -0.0256
 2060W        W20264  10.803   4.662  12.663 -0.0035 -0.0368 -0.0569
 2061W        W20265  10.657   5.632   1.078 -0.1125 -0.1981  0.0749
 2062W        W20266  16.807   8.727  15.466 -0.0240  0.1538  0.1207
 2063W        W20267  14.174  15.108   2.035 -0.3977 -0.0751 -0.0093
 2064W        W20268  10.214  13.740  15.373  0.1331 -0.0557  0.1186
 2065W        W20269   2.106   7.318  15.088 -0.0640 -0.2232 -0.0060
 2066W        W20270  12.975   5.003  13.368  0.1168  0.1555 -0.1720
 2067W        W20271   4.957   1.938  12.334 -0.1697 -0.0813 -0.1572
 2068W        W20272   7.540   2.244   2.871 -0.0138 -0.0597 -0.1199
 2069W        W20273   4.086  12.181  15.618  0.1737 -0.0174  0.0235
 2070W        W20274  16.283   2.416   3.655  0.3774  0.1877 -0.1931
 2071W        W20275   6.748   0.223   1.877 -0.0502 -0.0074 -0.3321
 2072W        W20276   2.674   8.297   4.060  0.3774  0.2329  0.0502
 2073W        W20277  15.967   4.669  14.557 -0.1315  0.2516 -0.0177
 2074W        W20278  12.226   8.248  12.410 -0.3212 -0.1926  0.2211
 2075W        W20279   5.436   9.449   0.510  0.2394  0.3052  0.0924
 2076W        W20280   5.355   1.367   3.663 -0.1943 -0.0155  0.0353
 2077W        W20281  14.664  16.732   4.692 -0.1024  0.3881 -0.0064
 2078W        W20282   4.428   1.147  12.219 -0.0672 -0.1494 -0.0350
 2079W        W20283  17.540   2.693  14.250 -0.1736 -0.3411 -0.2249
 2080W        W20284   0.878   4.366  12.855  0.0787 -0.0679  0.0184
 2081W        W20285   3.381   7.427   2.395 -0.0085  0.4173 -0.2305
 2082W        W20286   3.510   7.700   0.662 -0.2163 -0.2441  0.1592
 2083W        W20287  12.507   5.502   3.477  0.0226 -0.1645  0.0205
 2084W        W20288   2.041   0.164  16.318 -0.2969  0.1097  0.3588
 2085W        W20289  16.673  16.787  11.342 -0.1325 -0.0012  0.1860
 2086W        W20290   8.969   9.178   1.724  0.0057 -0.1572 -0.0485
 2087W        W20291   7.680   3.924  17.112  0.0061 -0.0143 -0.0212
 2088W        W20292  14.934  17.259  12.749 -0.1839  0.1087 -0.1343
 2089W        W20293   6.906   5.077  15.699  0.1377 -0.0371  0.3831
 2090W        W20294  10.628   1.657  13.674  0.0466  0.2255  0.1256
 2091W        W20295  16.128   9.433   1.683 -0.3184 -0.2339 -0.2342
 2092W        W20296   8.305  12.165  15.987 -0.0405 -0.1822 -0.2014
 2093W        W20297   0.013  15.077   3.541 -0.1673 -0.2171 -0.0640
 2094W        W20298   8.018   1.823   3.520 -0.2321 -0.1133  0.2322
 2095W        W20299  12.442   8.820  16.210 -0.1603  0.0285 -0.0136
 2096W        W20300  12.567   9.644  13.396  0.2568  0.1470  0.2476
 2097W        W20301   0.237  16.860  13.848 -0.1745 -0.0060  0.1438
 2098W        W20302  16.792   4.794  15.308 -0.1701 -0.3310  0.2775
 2099W        W20303  14.651  10.333  11.367 -0.2048 -0.2727 -0.1819
 2100W        W20304  12.466   6.772  13.982 -0.0813  0.1809 -0.0774
 2101W        W20305   0.786  13.953  13.287  0.1196  0.0265  0.2362
 2102W        W20306  12.400   2.583   0.913 -0.1847 -0.1643  0.0424
 2103W        W20307   7.531  13.758  17.183  0.1577 -0.1029  0.1863
 2104W        W20308   6.622   2.901  16.734  0.0615 -0.1621 -0.2231
 2105W        W20309  14.539   5.375   2.063 -0.3170  0.1798  0.0973
 2106W        W20310   1.536   5.716   2.802 -0.0139 -0.1533 -0.0490
 2107W        W20311   4.331   4.078   2.061  0.2023  0.0489  0.1731
 2108W        W20312   1.149   7.584   1.229 -0.0209  0.1171 -0.3454
 2109W        W20313  11.953  13.903   0.161  0.0249  0.0578 -0.2293
 2110W        W20314   1.663  10.641   1.994  0.1160 -0.4437 -0.1037
 2111W        W20315   7.002  10.825  12.277 -0.2416  0.0416  0.1772
 2112W        W20316   8.993   7.783  12.082  0.2322 -0.1913 -0.0701
 2113W        W20317   2.697   2.996  15.942  0.0291 -0.2738 -0.2365
 2114W        W20318   1.772   2.004   1.970 -0.0346 -0.2156 -0.3120
 2115W        W20319  15.003   2.797   3.498 -0.0628  0.2361  0.2283
 2116W        W20320   9.124   3.206  13.235  0.3385  0.1401 -0.0061
 2117W        W20321   9.660   2.811  14.681 -0.0620  0.0479 -0.2521
 2118W        W20322   2.163  12.574  14.889 -0.1619  0.0991 -0.0647
 2119W        W20323  10.105  10.170  15.169 -0.1180  0.0301 -0.0661
 2120W        W20324   9.447   3.399  12.301  0.1410 -0.0241 -0.3148
 2121W        W20325  12.499   7.299  14.412 -0.0100 -0.0845  0.0189
 2122W        W20326  13.220  11.987   2.676  0.0005 -0.1514  0.1026
 2123W        W20327   5.297  13.543  12.573 -0.1832 -0.0569 -0.1777
 2124W        W20328  16.211  13.666  12.563  0.0437  0.2781 -0.1618
 2125W        W20329   8.517   9.066   2.078  0.1161  0.1216  0.3806
 2126W        W20330  10.927  11.040   1.064  0.1978 -0.3455 -0.0278
 2127W        W20331   6.931   7.381  14.076 -0.0957 -0.1309  0.0447
 2128W        W20332  10.846   6.820  16.790  0.1428 -0.3013  0.2489
 2129W        W20333  14.561   6.948   3.560 -0.0750  0.3436 -0.0403
 2130W        W20334  13.525   5.462  16.863  0.3397 -0.0603  0.1970
 2131W        W20335  13.862  11.280   5.522 -0.1309 -0.1735  0.0011
 2132W        W20336   5.891   3.009   5.278 -0.0273  0.1952 -0.0752
 2133W        W20337   3.121   2.605  15.039  0.0548  0.3285 -0.1882
 2134W        W20338  12.909   0.090   2.135  0.1679 -0.1657  0.0296
 2135W        W20339  13.667  15.281  12.666 -0.2774  0.0740  0.2422
 2136W        W20340   8.752   3.957  12.327 -0.1484  0.1535  0.1196
 2137W        W20341   6.199  12.723  16.136  0.2752  0.0565  0.1960
 2138W        W20342  12.357   3.357   3.034  0.1428  0.1844  0.2130
 2139W        W20343   0.989   0.390   2.385  0.0988  0.4209 -0.1925
 2140W        W20344  11.998  13.907  12.224  0.3184  0.4198 -0.3063
 2141W        W20345   8.145   6.773   1.362  0.3462 -0.1014  0.0675
 2142W        W20346  14.899   1.652   4.568 -0.2621 -0.0045  0.0524
 2143W        W20347   4.177   5.420   2.902  0.2093 -0.1124  0.0900
 2144W        W20348  12.121  11.573  14.736  0.2928  0.2116 -0.1663
 2145W        W20349   6.452  10.901  13.888 -0.1889  0.1630 -0.2842
 2146W        W20350   6.067   5.598  15.088 -0.0230 -0.0881  0.1168
 2147W        W20351   3.191  13.252   2.677  0.1334  0.1419  0.1823
 2148W        W20352   1.904  10.039   3.625  0.0191 -0.0205 -0.0124
 2149W        W20353  10.108   0.508   1.072 -0.0961  0.0016  0.1448
 2150W        W20354  15.232   9.943   3.579 -0.1087 -0.0384 -0.0294
 2151W        W20355   1.868   1.451   0.629 -0.0644  0.1529 -0.3356
 2152W        W20356   2.090   6.301   1.179  0.2081 -0.1713 -0.0667
 2153W        W20357   9.875  16.945   4.886 -0.0144 -0.3131  0.0520
 2154W        W20358   8.642  15.583   1.912 -0.0229 -0.0564 -0.1072
 2155W        W20359   3.428   6.725   4.860  0.0007 -0.1695  0.0866
 2156W        W20360   0.318  11.983   2.410 -0.4698  0.1532 -0.0702
 2157W        W20361  13.790   8.618  13.714  0.2789 -0.0900  0.0072
 2158W        W20362  15.078   8.325  15.572 -0.0784 -0.3020 -0.0013
 2159W        W20363  13.120   3.667  15.432  0.0705  0.0976 -0.2007
 2160W        W20364   6.205   7.089  14.840 -0.1699  0.1712  0.4836
 2161W        W20365  16.980   7.435  15.816  0.1435 -0.0841  0.0419
 2162W        W20366   8.408  15.439   0.451 -0.1125 -0.0623 -0.1964
 2163W        W20367   6.307  15.062  16.405 -0.5098 -0.1783 -0.1963
 2164W        W20368  14.971   2.001  16.507  0.1060 -0.0042 -0.2417
 2165W        W20369  11.877   2.794   0.226  0.2997  0.2734  0.2709
 2166W        W20370  16.682  15.373   2.560  0.1306  0.0596 -0.0726
 2167W        W20371   4.712   9.879   0.053  0.1993 -0.1122  0.2797
 2168W        W20372   6.673   4.037  16.873  0.1206 -0.2828 -0.0113
 2169W        W20373   8.115  15.491   4.861 -0.1401 -0.1540 -0.2447
 2170W        W20374   5.776   4.686   5.131 -0.0928  0.1832  0.3115
 2171W        W20375   2.785   2.433  16.631  0.3596 -0.1084 -0.0803
 2172W        W20376   6.670  15.670  13.940 -0.4397 -0.1238 -0.3407
 2173W        W20377  17.474  14.831   0.405  0.2207  0.3478 -0.1850
 2174W        W20378  12.705  11.035   0.383 -0.1152  0.0749  0.4501
 2175W        W20379   8.065  11.318  15.624  0.0278  0.1450  0.1087
 2176W        W20380  11.519  10.398  15.008 -0.4096 -0.0322 -0.0781
 2177W        W20381   6.770   2.633  12.375  0.0763 -0.4431 -0.1571
 2178W        W20382  11.762   2.457   4.587 -0.0036  0.4492 -0.0818
 2179W        W20383  11.883   1.073  14.326  0.1881 -0.1572 -0.0655
 2180W        W20384   5.851   1.159   3.005 -0.1122 -0.0740 -0.1007
 2181W        W20385  13.551  10.038   4.424  0.0064  0.2328 -0.1708
 2182W        W20386   2.544   5.041   1.227  0.1294  0.1129  0.0913
 2183W        W20387  12.107  12.554  12.979 -0.0368 -0.4331 -0.2097
 2184W        W20388   3.452  15.927   3.145 -0.0426  0.1686 -0.2280
 2185W        W20389   5.879  10.273  13.020  0.1876 -0.2028 -0.0883
 2186W        W20390  10.088   3.558  15.114 -0.0892 -0.0762 -0.1871
 2187W        W20391   5.638   6.213  14.269  0.2623  0.1963 -0.1898
 2188W        W20392  13.853   7.110   3.196  0.3757 -0.2872 -0.2317
 2189W        W20393  14.644   8.602  15.731  0.2114  0.1343 -0.0830
 2190W        W20394   7.356  10.947   1.822 -0.1994  0.0198  0.1311
 2191W        W20395   8.893  12.519  16.222 -0.0481  0.0654 -0.0911
 2192W        W20396  13.586   6.441  13.187 -0.0397 -0.0101 -0.1726
 2193W        W20397   3.513   8.362   1.284 -0.1508 -0.1640  0.0615
 2194W        W20398  13.032  14.927   1.889  0.1578 -0.2412 -0.1153
 2195W        W20399  16.808   6.798  12.419  0.0076  0.4887 -0.1185
 2196W        W20400  11.610   7.695   0.591 -0.1355  0.0964  0.1137
 2197W        W20401  11.078   2.463   1.930  0.1038  0.0157  0.1702
 2198W        W20402   7.898  10.732  16.105 -0.1674  0.1966  0.2064
 2199W        W20403   7.701   4.701  16.269 -0.0356  0.3837 -0.3563
 2200W        W20404   0.334   9.213   4.418 -0.1148 -0.0047  0.1029
 2201W        W20405   9.503  11.415   0.491 -0.3063 -0.2440 -0.0676
 2202W        W20406  12.425   0.613   1.372 -0.0579  0.1756 -0.0015
 2203W        W20407   2.198   0.049   2.433 -0.0532 -0.3247 -0.0841
 2204W        W20408   8.099   5.697  16.086 -0.0637  0.1659 -0.1764
 2205W        W20409  12.417  12.684  16.165  0.2075 -0.0660 -0.1368
 2206W        W20410  11.451   5.074  16.425  0.2751  0.0540  0.0794
 2207W        W20411  11.419   4.763  15.999 -0.2246  0.2237  0.3124
 2208W        W20412   6.829  11.405  16.891  0.0434 -0.1518  0.1081
 2209W        W20413   8.060  16.241  12.180 -0.1189  0.1860  0.1032
 2210W        W20414  16.106  14.320   0.029  0.2862 -0.0109 -0.0037
 2211W        W20415   8.662  15.154   4.249 -0.1131 -0.3936 -0.0411
 2212W        W20416  13.224   6.788  12.383 -0.1570  0.0313 -0.0677
 2213W        W20417   6.269   4.762  12.760 -0.1195 -0.1871  0.2709
 2214W        W20418   4.192   3.606  13.721  0.3436 -0.0581 -0.1364
 2215W        W20419   9.823  12.743  15.453  0.3861 -0.0163  0.0502
 2216W        W20420   9.397  10.180  12.825  0.0648  0.0565  0.0257
 2217W        W20421   1.497   7.225   3.120  0.1479  0.2134  0.1305
 2218W        W20422   1.116  12.760  12.721 -0.1655  0.1998  0.2425
 2219W        W20423  11.353   3.089   4.255  0.0793  0.3151 -0.0498
 2220W        W20424   7.864   2.916  14.210  0.1961 -0.0918  0.1056
 2221W        W20425  10.189   9.841  13.284  0.4114  0.0244  0.3879
 2222W        W20426   6.733   0.924  11.775  0.2935 -0.2817 -0.0891
 2223W        W20427   6.466   5.061  13.719  0.0203  0.1890  0.1555
 2224W        W20428  10.708   1.431  16.332 -0.2757  0.0246  0.1118
 2225W        W20429   9.426  17.522   0.594  0.1148  0.1294  0.3510
 2226W        W20430   0.175  14.086   0.851 -0.1116  0.2875  0.0975
 2227W        W20431   4.478   3.677   1.267  0.2573  0.0438  0.1138
 2228W        W20432   3.837   4.119   2.126  0.0086 -0.1340 -0.3417
 2229W        W20433   2.104  12.482  16.824 -0.0592 -0.1162 -0.1397
 2230W        W20434  17.538   9.815   3.123 -0.0839 -0.0255  0.0364
 2231W        W20435   6.541   8.357  17.034 -0.2424  0.0305 -0.0426
 2232W        W20436   2.483   9.809   0.203 -0.0270  0.0555 -0.3674
 2233W        W20437   8.106   5.726   1.612  0.1136 -0.1821 -0.1442
 2234W        W20438   7.971   0.191   2.332 -0.2977  0.2850 -0.0512
 2235W        W20439   8.133  11.577  16.393 -0.1824 -0.0257  0.2363
 2236W        W20440   1.743  13.787  12.324  0.3407 -0.0441 -0.0071
 2237W        W20441  17.485   9.323   0.665  0.0835  0.5358 -0.1026
 2238W        W20442   8.652   0.796  14.370 -0.1619  0.1670  0.1019
 2239W        W20443  13.989  12.158   1.700 -0.0983 -0.3633 -0.0517
 2240W        W20444   4.069   0.741   3.033  0.0293 -0.1185 -0.0881
 2241W        W20445  16.368   8.551   5.301  0.4060  0.2651  0.1471
 2242W        W20446  10.891  14.407   5.209  0.2320 -0.1413  0.3753
 2243W        W20447   4.723   1.234  14.684  0.1780 -0.1851 -0.0275
 2244W        W20448   3.011   7.065  17.241  0.1113  0.1564 -0.2526
 2245W        W20449  11.569   8.379   4.666 -0.3030 -0.2877 -0.1794
 2246W        W20450  17.240   4.242  17.110 -0.2380 -0.1908 -0.0246
 2247W        W20451   8.107   4.733  12.366 -0.2187 -0.2489  0.2272
 2248W        W20452   7.108   7.208   0.269  0.1295  0.0228 -0.1555
 2249W        W20453   7.456  17.338   2.285  0.0313  0.1726  0.0284
 2250W        W20454   0.657   1.907  12.669  0.2307  0.2160 -0.1604
 2251W        W20455   6.956  11.196  14.696 -0.0228  0.1834 -0.2880
 2252W        W20456  13.651   6.663   3.788  0.0640  0.1581  0.0103
 2253W        W20457  11.695   0.589   4.400  0.4583 -0.0153  0.3492
 2254W        W20458   3.083  15.030  15.174 -0.1435 -0.0782 -0.1711
 2255W        W20459  13.965   5.946  12.409  0.1331 -0.0037 -0.1926
 2256W        W20460   3.746  11.796  15.719  0.0409  0.0477  0.0664
 2257W        W20461  12.731  14.022   2.876 -0.3212 -0.0355 -0.0285
 2258W        W20462   7.870   3.262   0.165 -0.0228 -0.1647 -0.3321
 2259W        W20463   4.660   9.112  12.081  0.0006  0.0096  0.0907
 2260W        W20464  12.062  14.384  11.910  0.1540  0.3152 -0.0396
 2261W        W20465  10.655  16.276   0.383  0.0147  0.0193  0.0833
 2262W        W20466  12.938   0.013  12.051 -0.0346 -0.0519  0.3493
 2263W        W20467   3.729   4.957   4.627 -0.0892  0.1460  0.4798
 2264W        W20468   3.847  14.897   0.068 -0.0054  0.0875  0.0003
 2265W        W20469   2.324   9.216  16.658 -0.0149  0.1536  0.0124
 2266W        W20470   9.979   0.716  14.586  0.3734  0.0615  0.0231
 2267W        W20471  10.561   4.159  15.882 -0.2301  0.1105 -0.1599
 2268W        W20472   9.938  15.395   1.530  0.0756 -0.1659 -0.1065
 2269W        W20473  15.480  15.925  17.058 -0.2532 -0.0100  0.1878
 2270W        W20474   1.067   4.420  15.595  0.3363 -0.1052 -0.2100
 2271W        W20475   3.298   1.568   4.492 -0.2040 -0.1485 -0.3379
 2272W        W20476  17.167   2.670   2.252  0.0954  0.0305 -0.0979
 2273W        W20477   7.775   9.896  14.402 -0.0531  0.2257  0.0208
 2274W        W20478  11.215   3.221   0.007 -0.0423 -0.3231 -0.0143
 2275W        W20479   0.846   4.272  12.368  0.0223  0.0167 -0.3397
 2276W        W20480  16.678   1.504   5.700 -0.2326 -0.0406 -0.2782
 2277W        W20481   2.886  10.798  12.751 -0.0506  0.1033  0.0678
 2278W        W20482   9.607   8.624   3.699  0.0870  0.0952  0.1467
 2279W        W20483   0.910  13.884  16.394 -0.0086  0.1625  0.0539
 2280W        W20484  10.772  17.486  13.737  0.1083  0.0781 -0.1145
 2281W        W20485  16.784   6.437   0.280 -0.0687  0.0605  0.0803
 2282W        W20486  11.524   4.778   2.247 -0.4062  0.0762 -0.1774
 2283W        W20487  14.398  14.586   3.614 -0.0884  0.1951  0.1262
 2284W        W20488   6.923  10.243   4.125 -0.2426  0.0890  0.0505
 2285W        W20489   0.977  10.348   4.013 -0.3522  0.1315 -0.3605
 2286W        W20490   5.364  10.028  13.080  0.2654  0.0164  0.0969
 2287W        W20491   2.926  13.908   0.010  0.0282 -0.0082 -0.0004
 2288W        W20492  11.116   6.473   2.169 -0.0649 -0.0734 -0.2121
 2289W        W20493  11.501  14.401   3.606 -0.1684  0.3404 -0.0209
 2290W        W20494   7.078   3.796   3.341 -0.2915  0.1193 -0.0159
 2291W        W20495  13.815  16.963  13.744 -0.2726 -0.3113  0.1915
 2292W        W20496   9.842  11.043   4.497  0.1360 -0.1637  0.1129
 2293W        W20497   5.790   8.107  14.379 -0.1746  0.1566 -0.2549
 2294W        W20498   9.194   8.384   3.382  0.0032  0.0655  0.0535
 2295W        W20499   3.259  14.157   0.335  0.1089  0.1365  0.1000
 2296W        W20500  12.762   0.382  16.832  0.1471  0.3040  0.1824
 2297W        W20501   1.887   9.523   0.863  0.0547 -0.2498  0.3778
 2298W        W20502   5.687  11.651   2.714 -0.2131  0.0292 -0.1295
 2299W        W20503   9.155  12.013  15.454 -0.0414  0.1530  0.0877
 2300W        W20504   7.094   3.704  17.034 -0.1832 -0.0044 -0.0639
 2301W        W20505   8.271   4.493   3.378  0.3825  0.2268 -0.0695
 2302W        W20506   0.067   2.144   5.253 -0.5031 -0.1709  0.0531
 2303W        W20507   9.709   9.189  12.953  0.1480  0.1073 -0.1642
 2304W        W20508   0.288   8.988  13.310 -0.0881  0.1236  0.0838
 2305W        W20509   2.929   4.351   4.358  0.0071  0.1221  0.0209
 2306W        W20510  12.959   1.599  13.525  0.0976 -0.2465 -0.3454
 2307W        W20511   4.819  15.627  17.188 -0.1420  0.3673  0.0815
 2308W        W20512   2.821   1.811   4.432 -0.1783  0.1020 -0.0702
 2309W        W20513  12.849   0.634   3.563 -0.1616  0.0072 -0.0768
 2310W        W20514   0.067   5.887  15.283  0.1846  0.2218 -0.3363
 2311W        W20515  14.165  10.566  12.145 -0.2803  0.1330 -0.2351
 2312W        W20516   3.805  10.507  15.349 -0.0041 -0.1579  0.2787
 2313W        W20517  13.269   1.499   3.365  0.1123  0.4901  0.1105
 2314W        W20518   6.761  11.604   4.204 -0.2067  0.0970  0.0580
 2315W        W20519  14.484   6.878  14.743 -0.3208 -0.1987 -0.0906
 2316W        W20520  12.414  10.162   1.307  0.0389  0.2875  0.1556
 2317W        W20521   0.848   8.606  14.590 -0.0413  0.5332 -0.0942
 2318W        W20522  10.287   1.838   4.906 -0.3622  0.3492  0.3899
 2319W        W20523  13.092   7.788   0.604  0.2089 -0.0100 -0.2175
 2320W        W20524  11.948   7.083  16.543  0.1270  0.1648  0.5260
 2321W        W20525   0.771  15.232  14.789  0.0714 -0.1636  0.1948
 2322W        W20526  13.826   2.378  15.616 -0.2168  0.0955  0.0600
 2323W        W20527   7.165  17.436   3.476  0.2781  0.4579  0.0951
 2324W        W20528   0.054   3.117  15.507  0.0964 -0.2096 -0.3924
 2325W        W20529  12.327  14.540  16.099 -0.0912  0.2079  0.0815
 2326W        W20530  15.659  13.338   4.948  0.0351  0.0935  0.1002
 2327W        W20531   8.986   5.467  11.699 -0.2216  0.3969  0.0236
 2328W        W20532  10.553   0.606  17.092  0.1110  0.0589 -0.0094
 2329W        W20533  12.293   0.842   5.240 -0.1278  0.2552 -0.0946
 2330W        W20534   6.208  11.301  13.705  0.0726  0.3233  0.2273
 2331W        W20535   3.410   5.359   1.655 -0.1827  0.1257 -0.0936
 2332W        W20536  15.710  12.034   3.439  0.2331  0.3149 -0.1617
 2333W        W20537   9.951  14.030   2.324 -0.0381  0.0079  0.2643
 2334W        W20538   2.035   0.498  12.382  0.1852 -0.4624 -0.1871
 2335W        W20539   2.002   5.007  14.452 -0.0645  0.0999  0.0242
 2336W        W20540   1.182  13.617   3.954  0.0267  0.0882  0.1001
 2337W        W20541  16.847   2.893   0.763 -0.0342  0.1569 -0.1400
 2338W        W20542  10.422   6.216   5.377 -0.1435  0.3296 -0.2408
 2339W        W20543  11.503   2.995   0.453  0.2898  0.2335  0.0328
 2340W        W20544   8.160   6.668  15.633  0.2485 -0.1229  0.1559
 2341W        W20545   7.721   9.124  13.954 -0.0299 -0.1764  0.1449
 2342W        W20546   2.110   5.150  15.514 -0.0874 -0.2088  0.0513
 2343W        W20547   1.576   1.804  14.442  0.0356  0.0649 -0.0013
 2344W        W20548   6.178   8.261  15.491 -0.0597  0.2362 -0.0945
 2345W        W20549  14.742  16.821  13.909  0.0143  0.3224  0.1911
 2346W        W20550  12.755  12.126   0.452  0.2153 -0.0254  0.2373
 2347W        W20551  11.264  14.566  12.112 -0.0753 -0.0031  0.2889
 2348W        W20552  15.820  13.584  15.645  0.1025 -0.1291  0.0084
 2349W        W20553  16.662   6.236  17.060  0.1099  0.1417 -0.2005
 2350W        W20554  10.430  12.081  14.091  0.2455  0.0997 -0.1091
 2351W        W20555  16.597   8.543   2.573  0.1320 -0.2812 -0.1155
 2352W        W20556   7.510  12.820  12.530  0.6076 -0.0409 -0.0357
 2353W        W20557   7.452   5.854  16.741  0.0888 -0.0282 -0.0452
 2354W        W20558  15.809   9.938  12.695  0.1979 -0.0778 -0.0736
 2355W        W20559   4.985  13.581  15.577  0.2309  0.2514 -0.1292
 2356W        W20560  10.640   9.680  13.186  0.0405 -0.1859 -0.0179
 2357W        W20561   2.849  10.401   1.568 -0.0344  0.3360 -0.0421
 2358W        W20562   4.929   4.624   4.000 -0.2055 -0.1429 -0.1417
 2359W        W20563   8.164  16.950  14.324  0.0433  0.0788 -0.1062
 2360W        W20564   7.920  11.784   1.476  0.1095 -0.0385  0.0299
 2361W        W20565   4.291  10.729  15.619  0.1163 -0.1049 -0.2596
 2362W        W20566   4.370  16.673   4.075 -0.2196 -0.2626  0.2455
 2363W        W20567   6.972  13.848  16.402 -0.0462 -0.0957 -0.1156
 2364W        W20568   6.330   3.162  17.060  0.0390 -0.0098 -0.0087
 2365W        W20569   3.376  11.975  17.165  0.1423  0.3424  0.0504
 2366W        W20570  12.879  13.216   3.712  0.2595  0.1967  0.0355
 2367W        W20571   3.658  14.578   1.525 -0.0106 -0.0186 -0.0866
 2368W        W20572   5.321   8.645   2.617 -0.1599  0.2800 -0.0718
 2369W        W20573  11.419   1.479  14.766 -0.1857  0.0176 -0.0240
 2370W        W20574   1.404   3.870  12.499  0.1494  0.1033  0.1292
 2371W        W20575   9.614   6.389  15.690 -0.1038 -0.2744 -0.2048
 2372W        W20576   8.289  14.271  12.841 -0.1678 -0.0700  0.0782
 2373W        W20577   1.820   2.841  12.290 -0.3872  0.1848  0.0086
 2374W        W20578   4.690  16.990   3.904 -0.0203  0.0421 -0.1151
 2375W        W20579   4.149   2.500   2.565 -0.0473 -0.1327  0.1103
 2376W        W20580   8.816   3.867  15.632 -0.1951 -0.0265  0.2445
 2377W        W20581  10.063  13.604   0.247 -0.0268 -0.1032  0.3323
 2378W        W20582   4.193  13.422  13.645 -0.3144  0.3814 -0.0546
 2379W        W20583   8.815  14.464   0.116 -0.1377 -0.0954  0.2256
 2380W        W20584   5.107  15.977  16.981 -0.1263 -0.2595  0.2810
 2381W        W20585   3.470   5.781  12.753  0.2233 -0.0980 -0.1154
 2382W        W20586  13.193  13.392  15.436  0.0780 -0.2438  0.0426
 2383W        W20587   7.109   7.382  12.259 -0.4306  0.0071 -0.3010
 2384W        W20588  13.934   4.435   1.663  0.1067  0.0284 -0.2843
 2385W        W20589   8.245   6.166  15.505 -0.0372  0.2622  0.2639
 2386W        W20590  15.842  11.204  12.044 -0.0474  0.3113 -0.0004
 2387W        W20591   6.958   4.094   2.123 -0.0853  0.0134 -0.2648
 2388W        W20592   6.592   2.917   0.087  0.1965  0.0868 -0.1087
 2389W        W20593   1.970  14.340   0.328  0.0301 -0.0511  0.3125
 2390W        W20594  11.740   6.610  16.371  0.2140 -0.2788  0.2026
 2391W        W20595  16.700   6.631  15.931 -0.2756  0.2089  0.2352
 2392W        W20596  11.012  11.909  13.097  0.3650 -0.3046  0.2270
 2393W        W20597   0.793   2.705   4.839  0.0657 -0.1902 -0.1912
 2394W        W20598   7.380  16.899   1.988  0.0673  0.2174 -0.0963
 2395W        W20599   3.203   7.998   1.044  0.0938  0.0307  0.4656
 2396W        W20600  15.810  15.722  13.817  0.0262  0.3933  0.0093
 2397W        W20601   9.196   6.864  15.280 -0.1925 -0.0290  0.2260
 2398W        W20602  16.127  12.822  14.610  0.2807  0.0408  0.3101
 2399W        W20603   5.678   2.621  17.125  0.2407 -0.3436 -0.0339
 2400W        W20604   0.457  15.826  12.350  0.2052 -0.2026 -0.2106
 2401W        W20605   1.680   6.484   1.645 -0.0784  0.2732 -0.4454
 2402W        W20606   2.843  15.638   5.750 -0.0121 -0.0292 -0.2058
 2403W        W20607  12.533  13.649   3.182 -0.2711  0.1640 -0.1263
 2404W        W20608   6.743   5.223   4.123  0.1877 -0.1328 -0.0548
 2405W        W20609  15.264  15.520  15.910 -0.1642 -0.2498 -0.0908
 2406W        W20610   2.943   6.841  15.330  0.1307 -0.0595  0.0140
 2407W        W20611  16.152  16.433  14.392 -0.0871 -0.3403 -0.2123
 2408W        W20612  12.191  12.856   3.053  0.1096  0.0639  0.1454
 2409W        W20613  17.462  10.411  14.158 -0.1372 -0.1005  0.1297
 2410W        W20614   6.973   3.460   0.954  0.0473  0.2433  0.1274
 2411W        W20615   8.685   5.741  17.242 -0.1575 -0.2438 -0.0038
 2412W        W20616   4.116   5.943  12.287  0.0119 -0.2269  0.0632
 2413W        W20617  17.389   3.584   3.490 -0.0755  0.1060 -0.1424
 2414W        W20618   6.558   5.337  14.411  0.1444 -0.0091  0.0446
 2415W        W20619   1.637  16.898  13.357 -0.3683 -0.0219  0.1805
 2416W        W20620  12.721   4.891   2.479  0.1015 -0.2158  0.1943
 2417W        W20621   0.610   8.105   4.998 -0.3020  0.2382  0.0297
 2418W        W20622   5.279   1.781   0.145  0.1188  0.1256  0.1193
 2419W        W20623   1.141   4.995   1.478 -0.0240 -0.1873 -0.0195
 2420W        W20624   8.986  13.202   6.316 -0.0854 -0.0617 -0.1617
 2421W        W20625  15.951   6.981   0.114 -0.3485 -0.1020 -0.0054
 2422W        W20626  13.319   4.280   0.073  0.1419 -0.1467 -0.2104
 2423W        W20627  15.017   0.633   2.157 -0.2682 -0.4897  0.0017
 2424W        W20628  12.843   4.501   0.256 -0.0118  0.2101 -0.4895
 2425W        W20629   5.157   6.172  13.248 -0.0021 -0.4611 -0.0827
 2426W        W20630   1.265  13.813  12.465 -0.0421 -0.1318  0.0960
 2427W        W20631   9.922  16.778   0.546 -0.0010  0.4605  0.1001
 2428W        W20632  13.299   0.337   2.949 -0.0308  0.2873  0.3327
 2429W        W20633  11.408   6.301  14.567 -0.2088 -0.0329  0.0263
 2430W        W20634   5.512   4.291   4.941  0.0066 -0.0104  0.0463
 2431W        W20635   8.954   1.628  16.372  0.0227 -0.0130 -0.0281
 2432W        W20636  12.073  11.837   1.848  0.0310  0.0890  0.1344
 2433W        W20637  15.779   6.537   4.723  0.0988 -0.2903 -0.1833
 2434W        W20638   5.984   1.882   0.804  0.1551 -0.1191 -0.0924
 2435W        W20639   6.652   9.879  16.607 -0.0600  0.2256 -0.0975
 2436W        W20640  13.925   2.549  14.231 -0.0889  0.0577  0.3369
 2437W        W20641   8.330  15.938   0.388  0.1858 -0.1224  0.2875
 2438W        W20642   7.043   5.436  15.991  0.1201 -0.0211 -0.4071
 2439W        W20643  15.876   8.752  17.287  0.0534 -0.0179 -0.1149
 2440W        W20644  12.829  15.963  13.582  0.1557  0.3173  0.1034
 2441W        W20645   6.144   6.800  16.699 -0.1171  0.0961  0.0150
 2442W        W20646   5.675  10.922  16.960  0.2129  0.0226  0.0432
 2443W        W20647  11.071   5.789   0.330 -0.1336  0.0987  0.1996
 2444W        W20648   0.970  13.258   3.584  0.1223 -0.2399  0.0955
 2445W        W20649   5.474  16.889  17.102  0.1542  0.0383 -0.0805
 2446W        W20650  11.492   5.603  14.473  0.0086 -0.0151  0.2204
 2447W        W20651   9.031  11.384   1.467 -0.0375 -0.0866 -0.3844
 2448W        W20652   7.774  13.035   3.106  0.3189  0.1958 -0.0949
 2449W        W20653   4.513   2.427  13.993  0.0488  0.0064 -0.0962
 2450W        W20654   1.140  12.421  17.100  0.1684  0.1957 -0.1264
 2451W        W20655  15.696   8.784   2.307 -0.4131  0.0272  0.0182
 2452W        W20656   4.786   6.474  15.160 -0.2667  0.2088  0.0133
 2453W        W20657  16.270   9.827  15.635  0.1096 -0.2015  0.2967
 2454W        W20658   6.975   1.728   4.438 -0.0183 -0.0107 -0.1165
 2455W        W20659  13.736   0.478  16.751 -0.2609 -0.0488  0.0154
 2456W        W20660  11.009   1.587   0.454 -0.3640 -0.0747  0.1089
 2457W        W20661   1.994   3.961   0.244  0.1959  0.1389 -0.0285
 2458W        W20662   9.807  16.530  15.994  0.3024 -0.1695 -0.0410
 2459W        W20663  16.902   2.105  14.106  0.2241  0.0401  0.3236
 2460W        W20664  13.304  11.288  12.407 -0.0543 -0.0159  0.3010
 2461W        W20665   8.759   0.993   4.999  0.0952 -0.1289 -0.0302
 2462W        W20666   6.214   0.716   4.791 -0.1138 -0.1771  0.2638
 2463W        W20667  11.076  14.847   4.109 -0.0032 -0.2890 -0.1986
 2464W        W20668   3.099   8.039   2.332  0.1093  0.0150  0.0991
 2465W        W20669  12.782  12.164  15.835  0.1833 -0.0178 -0.0408
 2466W        W20670  12.686   6.840   4.911  0.0514 -0.1143 -0.0326
 2467W        W20671   5.997  12.839   4.133  0.1254  0.0686  0.0477
 2468W        W20672  10.853   9.156   4.331 -0.0169 -0.2703 -0.1650
 2469W        W20673   1.914  11.321   3.988 -0.3587  0.2644  0.1513
 2470W        W20674   0.253   3.776   0.568 -0.0540  0.1574 -0.2172
 2471W        W20675   9.742  11.896  11.602 -0.2364 -0.2271  0.0222
 2472W        W20676   0.644   3.067   0.895  0.0058 -0.0409  0.0163
 2473W        W20677   3.761  10.092  11.782 -0.0574 -0.1664 -0.3888
 2474W        W20678  17.530   5.013   5.041 -0.0806 -0.0320  0.0208
 2475W        W20679   9.246   2.046   0.702 -0.0573  0.3460 -0.2538
 2476W        W20680   2.149   9.741   2.013  0.1565 -0.1736 -0.1614
 2477W        W20681   3.680   7.244   3.611  0.0704  0.0707  0.2974
 2478W        W20682   9.818  12.756   4.792 -0.1225 -0.0295  0.0184
 2479W        W20683   9.923  15.307  15.747  0.0318 -0.1661 -0.1445
 2480W        W20684  17.236  16.063  14.311  0.2324  0.0423  0.2917
 2481W        W20685   2.800   0.931   5.178 -0.1753  0.1713  0.0181
 2482W        W20686  16.768   8.372   3.497  0.0550 -0.0329  0.0992
 2483W        W20687  10.418   4.618  14.219 -0.0094  0.1635  0.1302
 2484W        W20688  14.118   1.794   3.588  0.3218  0.1497 -0.0425
 2485W        W20689  17.167  17.461  15.092  0.1612 -0.0999  0.0226
 2486W        W20690   1.524  12.644   4.895 -0.0510  0.0028 -0.0105
 2487W        W20691  12.776   5.572   5.142 -0.1740  0.3018 -0.0192
 2488W        W20692   3.533  13.950   4.000 -0.2163  0.0011  0.0242
 2489W        W20693   3.550   4.206   5.157  0.2076 -0.0552  0.1603
 2490W        W20694  16.459   1.074  15.708  0.1975  0.0279 -0.0159
 2491W        W20695   2.013   4.132  16.492  0.1035  0.0430  0.2075
 2492W        W20696   6.324   4.135   2.900 -0.4098  0.0263  0.1295
 2493W        W20697  13.951   8.018  14.266 -0.1688  0.1479  0.1146
 2494W        W20698   4.705  17.503   0.333 -0.1879 -0.2173 -0.3649
 2495W        W20699   6.668   0.835   3.345  0.0005  0.1997 -0.2019
 2496W        W20700   8.713  13.958  12.206  0.0355  0.2582  0.0873
 2497W        W20701   1.750  16.091  16.947 -0.0360  0.1605 -0.0381
 2498W        W20702  14.556   7.610   5.139 -0.1887  0.0118 -0.2434
 2499W        W20703   4.903   0.670  13.315  0.1444 -0.1284 -0.0547
 2500W        W20704  11.502   0.322  15.875 -0.1841 -0.2084  0.1118
 2501W        W20705   6.025  16.385  12.791  0.1087 -0.3155 -0.2371
 2502W        W20706   2.788   9.899  13.084 -0.1565 -0.1024 -0.1709
 2503W        W20707  13.204  13.034   4.687  0.0898  0.0105 -0.3770
 2504W        W20708  16.252  11.360   2.962 -0.0204 -0.0346 -0.3248
 2505W        W20709   4.279   9.933  13.317  0.0236 -0.0801 -0.0831
 2506W        W20710   7.699   4.553  16.752 -0.4533 -0.1861  0.2329
 2507W        W20711  11.343   5.084   1.306 -0.1204  0.1503  0.3107
 2508W        W20712  11.688  16.253   4.844  0.2833  0.2705 -0.1960
 2509W        W20713   0.467  11.459   2.531  0.0283  0.0117  0.1074
 2510W        W20714   0.379   9.327  12.881 -0.1177 -0.2530 -0.2510
 2511W        W20715  11.297  13.085  16.285 -0.4163  0.0077  0.3315
 2512W        W20716   2.285   1.412   0.922  0.2260  0.2118  0.0690
 2513W        W20717  10.060   0.465   0.545  0.2967 -0.1854  0.0002
 2514W        W20718  10.308   9.347  16.943  0.1556 -0.4815  0.3055
 2515W        W20719  16.655  16.854   4.513  0.0416 -0.2272 -0.0247
 2516W        W20720   4.373   7.378   4.938  0.0400  0.1377  0.3716
 2517W        W20721   3.366   5.611  11.551 -0.0574 -0.0077  0.2873
 2518W        W20722   2.140   7.514   3.714 -0.1433 -0.1162 -0.0554
 2519W        W20723   9.727   7.698   4.449  0.0431 -0.0618 -0.3491
 2520W        W20724   4.788   4.308   3.652  0.0978 -0.0729 -0.1104
 2521W        W20725  14.496  11.876  13.145  0.1313  0.2957  0.3617
 2522W        W20726  14.282   1.157  11.385 -0.0838 -0.1563  0.1016
 2523W        W20727   5.647   0.647   3.575 -0.1580 -0.1294 -0.0832
 2524W        W20728   1.501  13.632  16.895 -0.1369  0.1404 -0.1116
 2525W        W20729  16.689   5.950   4.508 -0.1115 -0.2315 -0.2023
 2526W        W20730   3.139  16.975   1.622 -0.0673  0.0255  0.2870
 2527W        W20731  16.840  12.736   1.287  0.0854 -0.1875 -0.2847
 2528W        W20732  15.020   6.165   2.494 -0.2917 -0.1205  0.1551
 2529W        W20733   0.806   3.078  11.790 -0.1406 -0.0971 -0.1335
 2530W        W20734   4.658   4.693   4.440  0.3058  0.0905  0.1132
 2531W        W20735   5.846   6.690  14.526  0.0239 -0.0513 -0.1709
 2532W        W20736  15.623   9.320  13.653 -0.0942  0.0932 -0.0103
 2533W        W20737   2.068  10.334   1.860  0.0796 -0.1694  0.1475
 2534W        W20738  14.871  12.084  15.347  0.3506 -0.3677  0.3036
 2535W        W20739   4.044  15.580   4.829 -0.1176  0.4612  0.1926
 2536W        W20740   9.787  12.770  16.336  0.0090 -0.0501  0.1367
 2537W        W20741  14.266  14.644   2.252 -0.1376  0.1102  0.0872
 2538W        W20742  13.827   2.431  12.550 -0.0277 -0.0133 -0.3894
 2539W        W20743   9.541   2.877   4.883 -0.3187 -0.2529  0.1031
 2540W        W20744  15.750  14.005   6.285  0.2133 -0.1851  0.0012
 2541W        W20745   2.378   8.330  14.162  0.1633 -0.2427 -0.2021
 2542W        W20746   6.667   9.624  12.614  0.5838 -0.0260  0.0685
 2543W        W20747  13.470   3.101  14.761 -0.0408 -0.4523  0.3053
 2544W        W20748  15.299  15.951  12.883  0.0401 -0.0488  0.3196
 2545W        W20749   2.462   9.343  12.503 -0.1742  0.0988 -0.2828
 2546W        W20750  11.382   9.367   4.028 -0.1487  0.3200 -0.2655
 2547W        W20751  11.480   1.750  13.271 -0.0607 -0.1315  0.3728
 2548W        W20752  12.577  12.678   4.898 -0.2860  0.1746  0.0546
 2549W        W20753   9.432   7.534  12.505 -0.2031  0.0479  0.2391
 2550W        W20754  10.386   1.238   2.595 -0.0164 -0.1111  0.0877
 2551W        W20755  13.698  11.377   1.611  0.0608  0.1891 -0.0002
 2552W        W20756   7.626   6.730  15.175  0.1278 -0.0621  0.0631
 2553W        W20757   7.001  15.637   2.842  0.1998  0.0763  0.1499
 2554W        W20758   3.228  14.601   1.175  0.3371 -0.0933  0.0781
 2555W        W20759   3.377   3.590  13.946 -0.0528 -0.0867  0.1890
 2556W        W20760  14.483   0.095  16.238  0.1101  0.2695 -0.1497
 2557W        W20761  16.519  12.160   4.154  0.2141  0.0537 -0.1186
 2558W        W20762  17.257  12.239   1.235  0.0652 -0.1120  0.1109
 2559W        W20763  14.795   8.636   2.111  0.4302 -0.3996 -0.1674
 2560W        W20764   8.806   0.202   0.499  0.0184 -0.1324  0.3361
 2561W        W20765  14.576  12.795  13.036  0.1496  0.2643 -0.1382
 2562W        W20766   8.925   2.795  16.986  0.0267 -0.0577 -0.2101
 2563W        W20767  15.353   7.172   3.045  0.0369  0.2483  0.1513
 2564W        W20768   7.572  12.652   4.435 -0.1659 -0.1990 -0.0488
 2565W        W20769   0.314  12.768   4.464  0.1548 -0.1119 -0.2679
 2566W        W20770   3.444   7.891   3.550 -0.2556  0.1810 -0.3284
 2567W        W20771  12.440   4.410  12.803  0.2325 -0.1784  0.3149
 2568W        W20772  17.222  15.994   4.950 -0.0201 -0.0224 -0.0246
 2569W        W20773   1.948   4.781   4.058  0.3756 -0.1044  0.1517
 2570W        W20774   3.803   9.245   1.404  0.3092 -0.0035 -0.0772
 2571W        W20775  14.300   9.188   0.563  0.1401 -0.0458  0.1033
 2572W        W20776   0.478  10.163  14.544 -0.1828 -0.1750  0.0073
 2573W        W20777   3.787  16.682  13.128  0.2346 -0.0661  0.0541
 2574W        W20778   1.034   7.181   1.694 -0.3158 -0.1648  0.0629
 2575W        W20779   4.104  15.151   1.912  0.2686  0.2931 -0.2619
 2576W        W20780   1.998  17.065   0.632  0.0168  0.2701 -0.1930
 2577W        W20781   6.644   5.357  15.309 -0.0035  0.1687 -0.3961
 2578W        W20782  17.015  14.854  15.568  0.1882 -0.2455  0.2692
 2579W        W20783  13.402  17.477  14.512  0.1932  0.2247  0.0935
 2580W        W20784  14.990  11.735  12.966  0.0084 -0.1444 -0.1801
 2581W        W20785   1.617   4.783  12.719  0.1990 -0.0959 -0.1809
 2582W        W20786   8.962   5.211  16.014  0.0474 -0.1195  0.2855
 2583W        W20787  10.800   6.591   4.084  0.1598  0.1563  0.1992
 2584W        W20788   9.183  13.455  16.622 -0.2687  0.0270  0.0369
 2585W        W20789  13.103  13.410  12.062 -0.3448 -0.2517 -0.2254
 2586W        W20790   8.676   9.743  11.847 -0.0227  0.0377 -0.1846
 2587W        W20791   0.749  12.029   3.378 -0.0724 -0.0158  0.3515
 2588W        W20792  11.623   4.353   0.029  0.1379  0.1106  0.1352
 2589W        W20793   8.187   0.736  14.204 -0.1511  0.3057 -0.2135
 2590W        W20794   7.528  11.132   0.514 -0.1168  0.3079 -0.0542
 2591W        W20795   1.499   8.617  15.326 -0.2498 -0.1129  0.0807
 2592W        W20796  12.963   2.703   1.927 -0.0733  0.0221  0.1144
 2593W        W20797  10.447  11.875   1.801 -0.1362 -0.0062 -0.0984
 2594W        W20798  10.557   2.551   2.663  0.2595  0.0217  0.2402
 2595W        W20799   8.184   2.943  12.750 -0.0223  0.0126 -0.0704
 2596W        W20800  14.756  13.703  13.184  0.0261 -0.1868  0.1762
 2597W        W20801  11.966   2.055   4.887  0.0346 -0.2182  0.1054
 2598W        W20802  16.784   1.639   2.548 -0.1537 -0.2346  0.2209
 2599W        W20803   9.468  16.274  16.788  0.2674  0.0605 -0.2052
 2600W        W20804  14.363  10.074   1.390 -0.0490 -0.3434 -0.0895
 2601W        W20805   1.837   8.677   2.940 -0.1799  0.2758 -0.1208
 2602W        W20806   8.250  13.218  11.988 -0.1671  0.1532  0.1689
 2603W        W20807  16.757   7.529   1.479 -0.0088  0.0023 -0.1396
 2604W        W20808   3.191  16.031   0.705 -0.2290 -0.0044  0.0265
 2605W        W20809   1.030  13.566  13.464 -0.0792  0.2493 -0.0126
 2606W        W20810  11.904  10.032   0.114  0.0502 -0.1074 -0.1141
 2607W        W20811  12.552  13.768   2.185 -0.0665  0.1668 -0.2307
 2608W        W20812   7.937  12.459   0.138  0.1282  0.0049 -0.0895
 2609W        W20813   0.375  13.158  12.231  0.4914  0.1573  0.2186
 2610W        W20814  16.870   7.405   1.979  0.1401  0.2005 -0.1434
 2611W        W20815   3.582   2.242  16.927 -0.2729 -0.0993  0.0355
 2612W        W20816  12.682   9.756   1.350 -0.0713 -0.2909 -0.1501
 2613W        W20817   4.281   4.337  16.375  0.1812  0.0311  0.2352
 2614W        W20818   5.712  13.962  16.380  0.1085 -0.1260  0.0716
 2615W        W20819  14.839   6.626   4.540  0.0855 -0.3844 -0.3817
 2616W        W20820  10.573   9.776   2.099  0.2945 -0.2536 -0.0802
 2617W        W20821   0.734   2.521   5.619  0.3213 -0.1302  0.1703
 2618W        W20822  16.586  10.742   4.531  0.0941 -0.2330  0.0233
 2619W        W20823  13.994  11.254  12.689  0.1822  0.0206  0.1578
 2620W        W20824   8.128  13.494   0.038  0.2298  0.1616  0.4043
 2621W        W20825   6.750   2.173   0.244 -0.1766  0.3408 -0.2886
 2622W        W20826   6.457   2.073   3.054  0.0792 -0.2035  0.0018
 2623W        W20827   0.497   1.538  15.793 -0.0074 -0.1549 -0.0374
 2624W        W20828  12.106  10.513  12.645  0.1199  0.1192  0.1374
 2625W        W20829   6.418  14.589  16.599 -0.0995  0.0086 -0.1746
 2626W        W20830  16.477  11.599   0.001 -0.0270  0.1145 -0.0594
 2627W        W20831   2.112   9.914   4.051  0.2663 -0.2720  0.0271
 2628W        W20832   2.591   5.206   0.477 -0.1725  0.0974  0.4157
 2629W        W20833  10.214   7.836   4.655 -0.0411 -0.3746  0.1045
 2630W        W20834   2.991  17.351   0.560 -0.1427  0.0371 -0.2950
 2631W        W20835   4.942  15.517   0.716  0.2288 -0.2035  0.1929
 2632W        W20836  15.361   2.645  12.435  0.0020 -0.0652  0.0340
 2633W        W20837  13.614   5.214   3.447  0.2354  0.0406 -0.0184
 2634W        W20838  16.946  12.399   5.138 -0.0832  0.0325  0.2602
 2635W        W20839  13.860   8.949   3.762 -0.1392  0.2196 -0.1057
 2636W        W20840   2.832  17.238   4.148 -0.2726 -0.0694 -0.3159
 2637W        W20841   4.540  10.582  12.089 -0.1249  0.0849  0.2615
 2638W        W20842   3.588  15.025  16.063 -0.2194 -0.0486 -0.1093
 2639W        W20843   2.527  13.307   5.214 -0.2362 -0.0619 -0.3334
 2640W        W20844  15.972  12.925   0.191  0.1521 -0.0641 -0.1262
 2641W        W20845  13.220   5.393   4.959  0.1698  0.5603  0.2162
 2642W        W20846  15.355  13.762  16.620  0.3065 -0.0782  0.0446
 2643W        W20847  15.476   5.539   1.181  0.0729  0.2677  0.0164
 2644W        W20848   8.248   0.566   2.127  0.0535  0.0256 -0.0150
 2645W        W20849   3.885   2.788  16.109 -0.1715 -0.2421 -0.0882
 2646W        W20850   7.858   0.558   1.248  0.0645  0.1677  0.1369
 2647W        W20851  16.505  11.050  14.160 -0.1831  0.2361 -0.0555
 2648W        W20852  16.942   3.144  13.088 -0.1364  0.3419 -0.2472
 2649W        W20853   1.161   4.372   1.510 -0.2242  0.1260  0.0756
 2650W        W20854   5.014   4.246  15.735  0.0905  0.1454 -0.0978
 2651W        W20855  14.649  16.527   1.615 -0.0162 -0.3589 -0.1211
 2652W        W20856  16.790  13.122   0.619 -0.0532 -0.1064 -0.3527
 2653W        W20857   8.061   9.020   1.354  0.2593 -0.0775  0.1660
 2654W        W20858   6.540  14.357   0.855  0.1373  0.2692 -0.1634
 2655W        W20859  15.829   6.701   3.342  0.0405  0.0176 -0.1187
 2656W        W20860  10.312   0.752  14.117 -0.0247 -0.0366  0.0742
 2657W        W20861   4.867   1.621  14.233 -0.2016  0.0660 -0.0040
 2658W        W20862  11.359  15.137   5.031  0.1673 -0.0725 -0.2226
 2659W        W20863   8.685   3.456   3.613 -0.1127  0.0334  0.0774
 2660W        W20864  14.922   8.056   1.429  0.0154 -0.1096  0.2240
 2661W        W20865   7.639   4.294   1.539  0.0962 -0.0296  0.0875
 2662W        W20866  12.064   7.578   0.318 -0.0307 -0.0004  0.2324
 2663W        W20867  16.720   1.679  14.274 -0.0867 -0.2009  0.0107
 2664W        W20868   1.839   6.482   4.453  0.0019  0.0983  0.0105
 2665W        W20869  15.340  14.988   5.810 -0.0555  0.0081 -0.0380
 2666W        W20870  11.399   1.799   3.120  0.2539  0.2416 -0.2651
 2667W        W20871   9.054  13.098   5.382  0.3965 -0.0060  0.0260
 2668W        W20872   1.522   3.313  15.215  0.1685 -0.2180 -0.2447
 2669W        W20873  12.704   7.386  15.984  0.2023  0.1809 -0.0230
 2670W        W20874   4.074   6.652  13.890  0.1060 -0.2870 -0.2223
 2671W        W20875  13.139  12.851   0.830  0.0191  0.1495 -0.1463
 2672W        W20876   6.120   4.716  13.738  0.1173 -0.0850 -0.0988
 2673W        W20877  15.791   3.311  15.794 -0.3042  0.1809 -0.0604
 2674W        W20878  11.227  15.122   1.503  0.0241 -0.2856 -0.0756
 2675W        W20879   3.523   6.270   0.019 -0.4493 -0.2529 -0.1140
 2676W        W20880   4.513   2.658   4.621 -0.0774 -0.1160  0.0602
 2677W        W20881   0.231  12.393   1.148  0.1932  0.0441 -0.1729
 2678W        W20882  11.237   9.171  14.895 -0.3882  0.2213  0.3485
 2679W        W20883  15.205  10.303   4.067 -0.0426  0.2535 -0.1229
 2680W        W20884   9.424   2.413   5.603 -0.0046  0.2800 -0.1599
 2681W        W20885   5.660   4.985  13.701  0.1145 -0.0367  0.2194
 2682W        W20886  16.793   5.128   0.340 -0.3176 -0.1669  0.0737
 2683W        W20887   2.539  13.490   1.495 -0.2449 -0.2049  0.0099
 2684W        W20888  15.381   2.595  15.604  0.0601 -0.3552 -0.0911
 2685W        W20889   9.722   2.111   0.863 -0.1459  0.1770  0.1034
 2686W        W20890  13.008  15.785   1.556  0.1896  0.1243 -0.1072
 2687W        W20891  11.839   0.617  13.233  0.0098  0.5858  0.1673
 2688W        W20892   3.844   1.352  16.742 -0.1810  0.3734 -0.1034
 2689W        W20893   6.812  16.662  16.031 -0.1856 -0.1685  0.0002
 2690W        W20894   6.683  11.775  12.714  0.2841  0.0210  0.2434
 2691W        W20895   8.122  15.037   4.654  0.0810  0.2136 -0.1805
 2692W        W20896   5.517   2.736  14.445  0.1176  0.0595 -0.0539
 2693W        W20897  14.400  17.476   3.239  0.1793 -0.0149  0.0377
 2694W        W20898   5.550   3.352   0.952 -0.0208  0.0755  0.2432
 2695W        W20899  16.524   8.941  15.957 -0.1362 -0.3014 -0.0109
 2696W        W20900  14.338  13.675   5.557 -0.4164 -0.1330  0.0629
 2697W        W20901   5.470   3.220  11.284  0.0351 -0.1367 -0.4439
 2698W        W20902  11.179   3.657   1.642 -0.1158  0.0212  0.0349
 2699W        W20903  16.775   8.498  11.531 -0.2962 -0.0409  0.0402
 2700W        W20904   8.208  14.109   4.787 -0.0490  0.1145  0.0530
 2701W        W20905   6.168   9.188   4.058 -0.1504 -0.0160 -0.0945
 2702W        W20906  14.909  16.119  13.177  0.4069 -0.2564  0.1404
 2703W        W20907  12.183   0.427  12.722 -0.2315 -0.2176  0.1029
 2704W        W20908   8.617  11.063   4.249  0.3416 -0.1632 -0.0594
 2705W        W20909   5.253  12.076   1.257  0.2704  0.0199  0.1843
 2706W        W20910   6.838  13.242  17.192  0.0690 -0.0037 -0.1453
 2707W        W20911   3.891  17.272   3.256  0.0070 -0.0112 -0.2327
 2708W        W20912   5.731   8.993  13.669  0.3518  0.0823 -0.0530
 2709W        W20913   2.139   7.933  14.990  0.1643 -0.2598 -0.2983
 2710W        W20914  15.154   8.342  17.246 -0.1424 -0.1490 -0.3321
 2711W        W20915   6.411   4.752   3.956 -0.2344  0.0974  0.1956
 2712W        W20916   4.943   3.763  15.982  0.0681  0.1877  0.0371
 2713W        W20917  16.433   8.333  13.387 -0.0346 -0.0113 -0.1317
 2714W        W20918  14.143   4.605   4.311  0.3631 -0.0388 -0.1182
 2715W        W20919   5.242  15.034  16.330  0.1342  0.0617 -0.2223
 2716W        W20920   4.209   1.635   4.560  0.4159 -0.5601 -0.1781
 2717W        W20921  17.411  10.482  15.503  0.1071  0.1152 -0.3936
 2718W        W20922  17.418   7.434  12.903  0.0472 -0.1054 -0.0949
 2719W        W20923   2.402  12.044  14.526  0.1982  0.1383 -0.3638
 2720W        W20924   0.807  10.196  15.828 -0.2671 -0.1480  0.0758
 2721W        W20925  16.312  12.570  11.477 -0.3235 -0.2581 -0.2950
 2722W        W20926  16.327  10.339  11.905 -0.1911 -0.1676  0.0404
 2723W        W20927  16.795  15.356   4.968  0.2344 -0.0044  0.0757
 2724W        W20928   5.242  13.447   4.887  0.2227 -0.0398 -0.2420
 2725W        W20929   2.813   8.390  16.449  0.3091 -0.0945 -0.2281
 2726W        W20930  15.785   2.673   0.444  0.0655 -0.1421  0.2095
 2727W        W20931  12.658  12.189   3.318 -0.3282 -0.3315 -0.0094
 2728W        W20932   6.432   9.016  15.688  0.0139 -0.0071  0.0645
 2729W        W20933  15.767   0.428   5.155 -0.1867 -0.1183 -0.0859
 2730W        W20934   8.948  16.032   1.129 -0.0690 -0.0044 -0.1135
 2731W        W20935   0.673   9.212  12.125  0.3461 -0.0677 -0.0347
 2732W        W20936   2.750   3.437  14.623  0.0394  0.2154  0.0307
 2733W        W20937   2.882  12.460   2.003  0.0920 -0.0496 -0.0100
 2734W        W20938  12.277   0.843  12.988 -0.2579 -0.1014 -0.0748
 2735W        W20939  12.410  13.774  11.460  0.1480 -0.1797  0.1815
 2736W        W20940   2.404  17.261  14.042 -0.3395  0.0819 -0.1019
 2737W        W20941   4.408   0.272   2.026 -0.0232 -0.0925 -0.2005
 2738W        W20942   6.290  12.166  15.335  0.3666  0.0602  0.2356
 2739W        W20943  17.190   0.787   4.233 -0.1616  0.0188  0.1880
 2740W        W20944   1.679  17.219   1.521 -0.1967  0.0761  0.0028
 2741W        W20945  15.758   2.903  15.455 -0.1761  0.0116 -0.0943
 2742W        W20946  14.897   9.922   4.283  0.1970  0.0682  0.0469
 2743W        W20947  11.991  15.932   3.762 -0.1648  0.1284  0.0466
 2744W        W20948   2.233  16.113  17.133 -0.3783 -0.3443  0.0807
 2745W        W20949   4.726  15.282  12.416  0.1186  0.0205  0.2203
 2746W        W20950  15.317  11.480  13.895  0.2754 -0.0770 -0.2884
 2747W        W20951  14.856   0.951   5.262 -0.1927 -0.1914 -0.2415
 2748W        W20952   9.318   2.876   5.855 -0.0965 -0.3739  0.1250
 2749W        W20953  15.528   5.368  12.882 -0.2091 -0.1517  0.2446
 2750W        W20954   3.667   8.564  16.633 -0.0948 -0.0031  0.0439
 2751W        W20955  14.711  16.271  15.043 -0.0012 -0.0828 -0.3902
 2752W        W20956  10.523   8.233  13.082 -0.1084 -0.2969 -0.0955
 2753W        W20957  16.453   0.498   3.714 -0.3465  0.1541 -0.1475
 2754W        W20958   2.530  11.718  16.547 -0.0280  0.1211 -0.0846
 2755W        W20959  12.729   2.292  12.999 -0.1722 -0.3719 -0.0427
 2756W        W20960  15.083  11.770   4.094  0.0521 -0.0106 -0.3352
 2757W        W20961  16.787   2.037  17.164  0.1775 -0.3884 -0.2300
 2758W        W20962   8.842   1.108  16.239 -0.3759  0.0346 -0.0713
 2759W        W20963   7.253   4.197  16.828  0.2045  0.4546  0.1033
 2760W        W20964  10.158   2.055  13.715  0.0197  0.1502 -0.0889
 2761W        W20965  15.844   1.575   2.369  0.1342 -0.0457 -0.0063
 2762W        W20966  14.054  16.081   3.685  0.0020 -0.0783  0.1168
 2763W        W20967  14.084   8.723  15.860  0.0041  0.0917 -0.2014
 2764W        W20968  13.739   3.552   2.747  0.0604  0.3290 -0.3997
 2765W        W20969   7.297  11.107   0.984 -0.1182  0.1091  0.0914
 2766W        W20970   7.018   9.190  13.250 -0.1248 -0.1553  0.1242
 2767W        W20971   4.825  10.946  17.002 -0.2367 -0.1914  0.3248
 2768W        W20972   7.292   4.046   4.562  0.0416  0.2000 -0.0442
 2769W        W20973   2.226   1.146  16.747  0.1872  0.0583 -0.0811
 2770W        W20974   3.729   6.534   5.187  0.3481 -0.1940  0.0540
 2771W        W20975   2.774   3.726   5.352  0.0241  0.2694  0.3556
 2772W        W20976  16.293   4.988   2.149 -0.3050 -0.3494  0.1318
 2773W        W20977   0.564   1.824   3.077  0.1868 -0.0218 -0.0620
 2774W        W20978   1.105   9.972  17.182  0.0281  0.1910  0.1310
 2775W        W20979   8.225   7.740  17.149  0.5215  0.0794 -0.0946
 2776W        W20980   8.389   1.795   3.922 -0.0450 -0.1162  0.0661
 2777W        W20981   6.669  12.909  16.328  0.3008  0.1631 -0.2051
 2778W        W20982  13.635   2.354  14.940  0.0258 -0.0681  0.0513
 2779W        W20983   1.054   2.615   3.480 -0.1998  0.1184  0.4269
 2780W        W20984   8.473   7.975   0.727  0.0006  0.0881 -0.0660
 2781W        W20985  13.225   5.787   2.648  0.0437  0.2038  0.0783
 2782W        W20986  10.244   8.387   4.680  0.0297 -0.2587  0.0271
 2783W        W20987   5.237  14.864  13.058 -0.0839  0.1545  0.1783
 2784W        W20988   2.625   9.613  14.980 -0.0721  0.1378 -0.1473
 2785W        W20989   3.045   8.484   0.942 -0.0316 -0.0782 -0.0704
 2786W        W20990   1.753   3.115  14.410  0.2009  0.1335 -0.1571
 2787W        W20991  11.501   2.233   4.182 -0.0867  0.0807  0.0280
 2788W        W20992  14.524   2.333   1.615 -0.0093 -0.2404  0.4489
 2789W        W20993   4.999  14.174   0.125  0.0202  0.4070 -0.0417
 2790W        W20994   4.716  14.476  15.095  0.0744 -0.1083 -0.0326
 2791W        W20995  11.996  12.018  12.078  0.0425 -0.0886  0.0353
 2792W        W20996   3.358   9.344  12.934  0.0223  0.0729 -0.2140
 2793W        W20997  14.487  12.965  16.797  0.0032 -0.0979 -0.3683
 2794W        W20998   7.745  17.542  14.300 -0.0491 -0.1136  0.0538
 2795W        W20999   1.089   9.669  14.612 -0.1726 -0.1150  0.1036
 2796W        W21000   3.008  11.632   2.354  0.0933  0.0716 -0.1963
 2797W        W21001  10.519   0.452   0.641 -0.0595 -0.1065 -0.0494
 2798W        W21002   4.105   5.156   1.091  0.2726 -0.2781 -0.0282
 2799W        W21003  11.765   9.106   0.426 -0.2794  0.0617 -0.1785
 2800W        W21004  10.200   2.907   2.945 -0.2699  0.0980 -0.2247
 2801W        W21005  10.894   5.048   1.985  0.1772 -0.2609 -0.1805
 2802W        W21006   9.882   6.652   1.704  0.0341 -0.0243 -0.0503
 2803W        W21007   3.273  13.142  14.732  0.4439 -0.1300  0.0344
 2804W        W21008  16.604   5.813   1.052  0.1090  0.0307  0.2564
 2805W        W21009   9.129   8.190  13.268 -0.1437  0.1599  0.1892
 2806W        W21010  10.816   3.532   1.975 -0.0506 -0.0187  0.0860
 2807W        W21011   8.905  11.541  15.566  0.0074 -0.0004 -0.2856
 2808W        W21012   4.052   1.943   0.644  0.3328  0.1101 -0.0392
 2809W        W21013   8.445  13.232   0.340 -0.2419 -0.1783  0.0312
 2810W        W21014   0.948   4.463   3.152  0.2505  0.0354 -0.2774
 2811W        W21015  15.598   3.116   2.181 -0.1200 -0.2735 -0.2492
 2812W        W21016   7.959   8.472  14.606 -0.1816 -0.2006  0.3052
 2813W        W21017  16.923  11.314   3.133  0.0281  0.1560 -0.3531
 2814W        W21018   3.886   0.559   3.821 -0.1290  0.1120 -0.0266
 2815W        W21019   0.963   0.372  14.569  0.0608 -0.1064 -0.2631
 2816W        W21020  12.736  11.104  16.084  0.0211  0.0225 -0.2579
 2817W        W21021   8.986  16.784   0.334  0.1225  0.1391  0.0270
 2818W        W21022  16.184   6.159  13.083 -0.0516  0.0560 -0.2412
 2819W        W21023  17.122  11.675  15.134 -0.0956  0.0583 -0.1470
 2820W        W21024   3.253  14.233  13.454 -0.0189 -0.2845 -0.1549
 2821W        W21025   9.771  14.509  15.706  0.1024  0.1119 -0.1873
 2822W        W21026  14.504   0.782   2.299 -0.2360 -0.2634 -0.2723
 2823W        W21027   1.638  14.486   4.332  0.0197 -0.2321 -0.0086
 2824W        W21028   3.433   6.319   3.345  0.0004 -0.0069 -0.1701
 2825W        W21029  13.429   7.510   1.538 -0.1920 -0.0547  0.1318
 2826W        W21030   9.374   6.488  16.199 -0.1040 -0.0869 -0.0258
 2827W        W21031   7.127  12.080  11.991 -0.1093  0.0622 -0.0370
 2828W        W21032  10.081   3.527  16.625 -0.0706  0.2511 -0.0393
 2829W        W21033   7.761   5.573   0.171  0.1659 -0.0074  0.1626
 2830W        W21034   4.109  16.779  14.590 -0.2194 -0.0548  0.1737
 2831W        W21035   5.488   0.678   1.284  0.0788  0.1636  0.0534
 2832W        W21036  10.191   3.694   3.676  0.0420 -0.1421  0.0937
 2833W        W21037   8.851  12.227  13.335  0.0239 -0.1501  0.1993
 2834W        W21038  11.965  13.471  11.531 -0.0963  0.0232  0.1761
 2835W        W21039   7.326   5.049   3.034 -0.0898  0.0927  0.0349
 2836W        W21040  11.727   8.005  12.497 -0.1379 -0.0640  0.0357
 2837W        W21041  13.781  16.536   2.568 -0.2190 -0.1351  0.0586
 2838W        W21042  12.670   7.942   4.623 -0.1692  0.3213 -0.0416
 2839W        W21043   1.313   7.198   0.254  0.5273  0.0642 -0.0609
 2840W        W21044  12.883   8.581  14.050  0.2097 -0.0642 -0.3703
 2841W        W21045   7.801   0.059  12.509 -0.0893 -0.1648  0.2826
 2842W        W21046  16.688   3.657  16.170  0.1249 -0.1571 -0.0040
 2843W        W21047  11.428   1.697  15.640 -0.1248 -0.0337  0.0794
 2844W        W21048   3.402  10.455  15.642  0.0136 -0.3738  0.1759
 2845W        W21049   8.472   7.396   3.148 -0.1558  0.0416  0.2202
 2846W        W21050  15.665   3.998  11.802 -0.0030 -0.0697  0.1655
 2847W        W21051   8.738   2.425  13.846  0.2351 -0.3802  0.0870
 2848W        W21052   1.275   4.197   3.980  0.1561 -0.0971 -0.0592
 2849W        W21053  13.722   5.422  12.330 -0.0224  0.0292  0.1396
 2850W        W21054  13.271   8.402   4.559 -0.3571 -0.0705 -0.0626
 2851W        W21055  13.977  13.916   2.622 -0.1665  0.1117 -0.3245
 2852W        W21056   7.104   1.403   2.647  0.0674  0.0041 -0.0349
 2853W        W21057  13.067   8.289  12.367 -0.0570  0.2106  0.0129
 2854W        W21058   5.462  14.663   1.403 -0.3436  0.0469 -0.4408
 2855W        W21059  14.666   6.269   1.588  0.0669 -0.1288  0.1975
 2856W        W21060  14.402  10.552  14.402  0.0725  0.3645 -0.2465
 2857W        W21061   2.852   0.156  13.185 -0.2809  0.1590  0.1836
 2858W        W21062  10.805   5.669  12.873  0.3177  0.1069  0.1656
 2859W        W21063  10.494   6.574  17.118 -0.1181 -0.0258 -0.1093
 2860W        W21064   2.366   2.360  17.084  0.0864  0.0178  0.1623
 2861W        W21065  16.737   7.073   2.434 -0.1891  0.1463 -0.0138
 2862W        W21066   7.881   4.814   3.566  0.2202 -0.3681 -0.3838
 2863W        W21067   5.006   7.327   4.441  0.2046  0.1861  0.4065
 2864W        W21068  17.417  12.899   0.432 -0.1844  0.2491  0.2344
 2865W        W21069  13.493  17.192  12.690 -0.0630 -0.3280 -0.4181
 2866W        W21070  11.609   8.118  16.172  0.1989  0.1733  0.0086
 2867W        W21071   5.298   0.729  15.359 -0.2410  0.0315  0.1519
 2868W        W21072  15.179   7.298   0.493 -0.0732  0.2065  0.5103
 2869W        W21073   6.352  10.865  15.819  0.3980  0.1701  0.0848
 2870W        W21074  14.448   0.171   4.480 -0.0244  0.0335 -0.1497
 2871W        W21075   5.481  16.200  11.943  0.1370 -0.0261 -0.0096
 2872W        W21076  16.250  15.948   3.285  0.0640  0.2855  0.2179
 2873W        W21077   5.461  17.437  14.719  0.1897  0.2775  0.0304
 2874W        W21078   3.665  11.001  15.632  0.2571 -0.2857 -0.0502
 2875W        W21079  10.723  17.507   5.651 -0.2006 -0.2149  0.3879
 2876W        W21080  15.242   6.457   3.967  0.1393  0.0387  0.4939
 2877W        W21081   0.639   4.402  13.690  0.1742  0.3067  0.0985
 2878W        W21082   9.694   0.634   5.207 -0.0135  0.1534 -0.0040
 2879W        W21083  15.755  17.040  14.890  0.1856 -0.0708 -0.1397
 2880W        W21084   9.817   1.509   1.601 -0.1679 -0.2789 -0.1269
 2881W        W21085  14.914   7.598   2.357 -0.0185  0.1074 -0.2077
 2882W        W21086   3.350   9.752  14.810 -0.2298  0.0620  0.2877
 2883W        W21087   0.129   3.197   1.037 -0.0650 -0.2940  0.0024
 2884W        W21088   4.493  15.109   1.418  0.0990 -0.1248  0.2137
 2885W        W21089  17.159  12.663  15.187 -0.4843 -0.2239  0.4046
 2886W        W21090  15.330  10.586  14.279  0.0316  0.3059 -0.0795
 2887W        W21091   4.218  15.695  15.378  0.1517  0.0303 -0.2505
 2888W        W21092  10.481   4.184   3.809  0.0440 -0.0078  0.0039
 2889W        W21093  14.556  15.155   1.525 -0.4412 -0.0934  0.1481
 2890W        W21094  10.693  12.666  16.722 -0.3053  0.1547  0.1957
 2891W        W21095  12.192  16.779  15.505  0.3749 -0.0444  0.2749
 2892W        W21096   8.934   7.917  14.348  0.0552 -0.1171  0.0567
 2893W        W21097   6.784   4.924  16.709 -0.1357  0.1211 -0.3159
 2894W        W21098  12.250   2.172  13.266 -0.0220  0.1829 -0.1226
 2895W        W21099  10.167   6.677  16.730  0.2316 -0.2530  0.0488
 2896W        W21100  13.349   4.119   4.419 -0.2206 -0.4887 -0.1070
 2897W        W21101   2.278  17.152   4.054 -0.2308 -0.1153 -0.0076
 2898W        W21102   6.150   1.614   3.019 -0.1555  0.2860 -0.0637
 2899W        W21103  10.078  13.604   2.648 -0.1440 -0.1693  0.2068
 2900W        W21104   0.744  14.456  16.463 -0.0200 -0.3563 -0.1586
 2901W        W21105   0.423  16.327  11.143 -0.3161  0.1544 -0.2077
 2902W        W21106  10.717   8.406   3.735 -0.0903 -0.1191  0.1669
 2903W        W21107   4.213   1.478  12.485  0.1994 -0.3000  0.0611
 2904W        W21108   5.744   7.601  13.154  0.1293  0.2074 -0.0283
 2905W        W21109   9.870   5.475  16.901  0.0447  0.1384 -0.0458
 2906W        W21110  14.252   3.943   4.583  0.0217 -0.2350 -0.2041
 2907W        W21111   6.710  15.514   1.151 -0.1095  0.1498 -0.0092
 2908W        W21112   9.968   3.752  14.168 -0.0523  0.1217 -0.0126
 2909W        W21113   4.037   0.729  13.822  0.1827  0.1926  0.0593
 2910W        W21114  12.447  17.480   0.002 -0.1382  0.3049  0.1205
 2911W        W21115  14.051   9.591  15.102  0.0237 -0.2499 -0.0647
 2912W        W21116  11.354   4.024   4.260  0.1852  0.0807 -0.2050
 2913W        W21117   4.036   6.224   0.309  0.0446  0.0116  0.3980
 2914W        W21118   4.030   8.594  16.987  0.3057 -0.0172 -0.0838
 2915W        W21119   4.369   0.588   0.435  0.3256 -0.0113  0.0095
 2916W        W21120   1.850   8.136   3.745 -0.0098 -0.0845  0.0157
 2917W        W21121  11.605   9.483  15.044  0.0626 -0.0687 -0.1248
 2918W        W21122   8.501  15.975  14.344 -0.0698  0.3364 -0.1530
 2919W        W21123   2.260   8.995  12.856  0.2866  0.0323  0.0238
 2920W        W21124   8.920  11.982   0.737 -0.2788 -0.3364 -0.2571
 2921W        W21125  15.896   5.585  17.198  0.0699  0.2030  0.0724
 2922W        W21126   5.449   7.950   5.049  0.1539  0.1900 -0.3779
 2923W        W21127   5.506   1.599  15.726 -0.0318  0.1151 -0.2648
 2924W        W21128   0.848   5.993   1.612  0.3393  0.0949  0.3876
 2925W        W21129   3.532  10.683   0.844  0.2210 -0.1941 -0.2043
 2926W        W21130  13.401   2.231   4.912  0.3202 -0.2687 -0.1829
 2927W        W21131   1.960  14.478  12.919 -0.2423  0.4553 -0.3664
 2928W        W21132  13.946  12.872  13.910  0.0932 -0.0253  0.0268
 2929W        W21133   1.216  14.019   3.634 -0.1901 -0.1306 -0.3787
 2930W        W21134   7.506  10.432   1.891 -0.0641  0.0813  0.2468
 2931W        W21135  14.382  16.225   2.475 -0.4154  0.2301  0.0416
 2932W        W21136   3.458  17.215   0.628  0.1632 -0.1091  0.0406
 2933W        W21137  14.223   4.800  12.498  0.1492 -0.2665 -0.2131
 2934W        W21138   9.772   2.515   1.497  0.3382 -0.1091 -0.0214
 2935W        W21139  12.160  13.363  12.411  0.2629 -0.0517  0.1041
 2936W        W21140   1.790  13.716   1.370  0.1364 -0.1194 -0.0527
 2937W        W21141   6.800   5.255  13.401 -0.2329  0.0625  0.0461
 2938W        W21142  16.818   2.393   3.628 -0.0658 -0.0502 -0.1198
 2939W        W21143   5.495  16.821   1.687  0.0980 -0.2360 -0.2852
 2940W        W21144   7.043   0.675  13.192  0.3456 -0.0860 -0.1294
 2941W        W21145   3.385   6.244  14.542 -0.0012  0.3525  0.3138
 2942W        W21146   2.045  13.401  16.248  0.1833  0.0509  0.2186
 2943W        W21147   9.192  13.662   5.253 -0.1731  0.3923  0.2381
 2944W        W21148   1.977   7.129  13.046  0.1027 -0.0475 -0.2498
 2945W        W21149   7.452  12.211   4.290  0.1036  0.0482  0.3592
 2946W        W21150   8.572   7.128   1.983  0.2931 -0.0964 -0.0359
 2947W        W21151  15.941  11.656   1.241  0.0422  0.0973 -0.0012
 2948W        W21152  13.454   2.601   3.524 -0.0627 -0.2222 -0.0044
 2949W        W21153  16.496  13.120  16.614  0.1420  0.0710 -0.3604
 2950W        W21154   6.829   5.619   3.772 -0.1472  0.0305  0.0419
 2951W        W21155   0.482   3.134  16.378  0.1648 -0.1416  0.1224
 2952W        W21156  10.585   0.845   1.287 -0.1333 -0.1245  0.1372
 2953W        W21157  10.869  12.498  15.476 -0.3017  0.0133  0.0684
 2954W        W21158   6.608  16.968  13.304 -0.1283 -0.0730  0.4786
 2955W        W21159  13.175  16.737   3.545  0.1336  0.2162  0.0090
 2956W        W21160   8.392   6.162  17.209 -0.0198  0.0803 -0.0731
 2957W        W21161   7.480  14.029  14.685 -0.1862  0.0833  0.0538
 2958W        W21162   8.998  13.023   1.907 -0.0272 -0.0219 -0.2670
 2959W        W21163   3.804   4.874  13.674  0.0437  0.1445 -0.1645
 2960W        W21164   1.522   1.629   2.686 -0.0821 -0.0839 -0.3788
 2961W        W21165  13.755   2.155   3.157  0.0665  0.0330 -0.1993
 2962W        W21166   7.969  11.475  13.200 -0.1639 -0.3187 -0.1063
 2963W        W21167   8.812  13.123  13.322 -0.3439 -0.1383  0.0757
 2964W        W21168   3.102  12.470   2.541 -0.0275  0.0773 -0.0996
 2965W        W21169   5.811   2.996   3.363 -0.3907 -0.1411  0.3801
 2966W        W21170   2.597   1.029   4.697  0.1709  0.4502 -0.1372
 2967W        W21171  10.379  17.437  14.072  0.2264  0.1353  0.2060
 2968W        W21172   9.343   0.458   1.594  0.1733  0.2103  0.0663
 2969W        W21173  17.023  16.416   0.283  0.2144  0.0778  0.0003
 2970W        W21174   3.443  10.210   3.392 -0.2273 -0.0724 -0.0940
 2971W        W21175   5.563  12.643   0.232  0.1705  0.1888  0.0568
 2972W        W21176   4.740  10.416   2.562 -0.0757 -0.0462 -0.2507
 2973W        W21177   7.586   5.284   2.072 -0.2277 -0.1882 -0.1137
 2974W        W21178  15.245   3.705   4.321  0.0376 -0.1602  0.0536
 2975W        W21179   3.704  15.957  14.709 -0.1688 -0.1239 -0.1037
 2976W        W21180   6.616   7.960   1.467 -0.0438  0.2221 -0.0480
 2977W        W21181   9.167   2.624   4.595  0.1985  0.4242 -0.0698
 2978W        W21182   4.742   9.548  15.047 -0.0003  0.1002  0.0301
 2979W        W21183  12.330  12.306  12.310 -0.2994 -0.0746  0.0695
 2980W        W21184  11.772  13.515  14.238  0.2345 -0.0293 -0.0624
 2981W        W21185   5.524   3.880  14.711  0.0343 -0.1750  0.1057
 2982W        W21186   0.373  17.007   1.974  0.1947 -0.3079 -0.2841
 2983W        W21187   4.803  12.427   1.289 -0.0668 -0.4250 -0.3418
 2984W        W21188   4.717   1.881   0.103  0.1235 -0.1837  0.2275
 2985W        W21189   9.219  13.477   3.841  0.2674  0.2645  0.1627
 2986W        W21190   1.178  15.099  13.840 -0.0211 -0.2567  0.0046
 2987W        W21191  13.382  10.303  16.710 -0.2084  0.0277  0.1785
 2988W        W21192  14.162  11.608   2.503 -0.0188 -0.2538 -0.3658
 2989W        W21193   1.889  13.158  13.799 -0.0497 -0.1124 -0.1022
 2990W        W21194   4.167   6.243  15.668  0.1914  0.0615 -0.2200
 2991W        W21195   8.394  10.725  16.828  0.0370  0.2619  0.1217
 2992W        W21196  16.644   7.941  13.563  0.1019  0.0409 -0.1791
 2993W        W21197   0.025  14.578   3.399  0.1042  0.3405  0.1657
 2994W        W21198   9.117   9.673   1.739  0.1450 -0.1671 -0.0972
 2995W        W21199   3.449  13.758   0.651 -0.2680 -0.1542 -0.1539
 2996W        W21200   0.034   7.375  13.855  0.2611  0.2939  0.0597
 2997W        W21201   3.348   5.879   2.538  0.1529 -0.0582  0.1451
 2998W        W21202   7.352   8.677   2.921 -0.1515  0.0618 -0.4258
 2999W        W21203   3.268  16.978  15.446  0.1240  0.0470  0.1389
 3000W        W21204   2.654   4.658  16.628 -0.2359 -0.2761  0.2332
 3001W        W21205  14.915  15.925  15.651  0.0239 -0.1162  0.0737
 3002W        W21206  12.513   9.211   2.000 -0.2776  0.3325 -0.2428
 3003W        W21207   0.834  17.407  16.508 -0.1072  0.1198 -0.0484
 3004W        W21208   3.331  11.177   2.165 -0.2431 -0.0984 -0.0196
 3005W        W21209  12.894  10.515  16.782 -0.0044 -0.1492  0.0073
 3006W        W21210  10.041  13.299  11.771 -0.2619  0.1766 -0.1644
 3007W        W21211  16.614   7.703   1.029 -0.2418 -0.1544 -0.0716
 3008W        W21212   4.340  11.679   1.533  0.2787  0.2165  0.0641
 3009W        W21213   1.048  10.109  14.375  0.1068 -0.2894  0.0552
 3010W        W21214   7.509  14.287  17.041  0.0114  0.1199 -0.0233
 3011W        W21215  15.989   1.153  14.162  0.1540  0.1456  0.2469
 3012W        W21216   9.813   0.770   0.224  0.3193 -0.1471  0.4652
 3013W        W21217  11.045  13.346  13.033 -0.0706  0.0244 -0.1578
 3014W        W21218   6.941   2.160   0.725  0.0888 -0.2517  0.1340
 3015W        W21219   1.264  13.950  15.948 -0.3438  0.1707 -0.0367
 3016W        W21220  16.861   8.012  14.930  0.0212  0.1651 -0.2721
 3017W        W21221  12.548   6.544  15.755  0.2734  0.1478  0.0328
 3018W        W21222   4.663   0.691  14.683 -0.0101  0.0654 -0.2788
 3019W        W21223  13.974   2.844  14.660 -0.0604  0.2203 -0.2137
 3020W        W21224   7.421   5.791   4.641 -0.0048  0.1395  0.3051
 3021W        W21225  14.572   0.206   1.605 -0.0003 -0.1141 -0.0221
 3022W        W21226   1.377   2.543  16.647 -0.1426 -0.1089 -0.2819
 3023W        W21227  10.750  11.001  13.720  0.2218  0.0300 -0.1941
 3024W        W21228   1.427   8.746   3.236 -0.0208  0.0684 -0.3015
 3025W        W21229  14.401   6.614  15.205  0.2428  0.1326  0.2698
 3026W        W21230   2.867   3.417   0.217 -0.1662  0.0024  0.0035
 3027W        W21231   2.533  17.457   2.007  0.1392 -0.0989  0.2181
 3028W        W21232  16.780   9.760   2.293  0.2045  0.2390  0.0315
 3029W        W21233   8.466   9.484  12.225 -0.0716  0.0042  0.0013
 3030W        W21234   6.082  14.824  13.721  0.5129 -0.1816 -0.1058
 3031W        W21235   5.466  14.363  14.403 -0.0944 -0.1226 -0.2808
 3032W        W21236   9.499   8.591  12.335 -0.1703 -0.0082  0.0789
 3033W        W21237   2.449  16.471   1.843  0.4195  0.1136 -0.0864
 3034W        W21238  13.570   0.095  12.452 -0.0940 -0.0400 -0.2341
 3035W        W21239  10.908  15.351  15.479 -0.0161  0.0718  0.1980
 3036W        W21240   2.643   1.489   0.605  0.0536  0.4044 -0.1962
 3037W        W21241  10.818  12.824  12.926 -0.1313 -0.1039 -0.3461
 3038W        W21242   8.643   6.533  15.703  0.0819  0.1868 -0.1320
 3039W        W21243  11.239   7.100  16.989  0.3003 -0.1778  0.0814
 3040W        W21244   1.628   7.343  15.387  0.1807 -0.0305 -0.0413
 3041W        W21245   7.637  13.047  16.572  0.1339  0.1901  0.4245
 3042W        W21246   0.876   0.992   0.162 -0.0992  0.0003 -0.2951
 3043W        W21247  17.193   2.137  16.773  0.1556  0.0829 -0.0663
 3044W        W21248   3.375  14.766   3.339  0.1003 -0.2225 -0.0391
 3045W        W21249   8.631  12.519   2.798  0.1270  0.1548  0.0853
 3046W        W21250  11.709   9.735   1.153  0.1606 -0.1952 -0.2822
 3047W        W21251   7.573   3.233   1.277 -0.0752 -0.2035 -0.1928
 3048W        W21252   0.434   7.141  16.358  0.0976  0.2049 -0.0894
 3049W        W21253   7.572   6.568   0.122 -0.2305 -0.0047 -0.2680
 3050W        W21254   0.915  15.779   3.007  0.0138  0.1053  0.2245
 3051W        W21255  17.522   7.139  16.621 -0.1797 -0.1647 -0.1356
 3052W        W21256  16.234   5.502   0.920  0.0727  0.2064  0.0636
 3053W        W21257   4.165  13.146   1.728  0.1941 -0.1558 -0.0536
 3054W        W21258   7.945  15.820  16.064 -0.0664 -0.0148 -0.1112
 3055W        W21259   3.470   7.579  14.885  0.1579 -0.1341 -0.0694
 3056W        W21260   3.522   1.210   0.777  0.1364 -0.0002  0.2689
 3057W        W21261   6.810   7.509   4.369  0.1436  0.3282 -0.1815
 3058W        W21262  15.999   1.948   2.712  0.1680  0.1470  0.0450
 3059W        W21263   5.293  12.012   0.236  0.2109 -0.0662  0.2191
 3060W        W21264   2.917   4.332   0.864  0.2873  0.2184 -0.0624
 3061W        W21265   1.220  17.246   0.991  0.1888 -0.4643  0.0152
 3062W        W21266   9.047   1.715  12.042 -0.2457  0.0200  0.3099
 3063W        W21267  10.649  12.930   2.155  0.2580  0.3128  0.2562
 3064W        W21268  15.384  11.734  12.643 -0.3726  0.3385 -0.1606
 3065W        W21269   7.466   5.242  15.851  0.0680  0.3671  0.0378
 3066W        W21270  13.461  15.005  12.326 -0.2065  0.0961  0.3422
 3067W        W21271   0.978  13.636  16.877  0.1612 -0.3222  0.2718
 3068W        W21272  15.585  10.177  16.335 -0.1769 -0.1776 -0.3346
 3069W        W21273   3.002   3.536   1.464  0.1600 -0.1859 -0.1438
 3070W        W21274   7.482  10.078  12.178 -0.1788 -0.1818  0.1869
 3071W        W21275  14.565   0.240   2.480  0.0563  0.2606  0.0618
 3072W        W21276   1.150  15.554  12.096  0.2481  0.0917 -0.0463
 3073W        W21277  10.526   5.863  13.973  0.0140 -0.3192  0.5090
 3074W        W21278  17.018   0.222  15.503 -0.1774  0.0424  0.2426
 3075W        W21279   7.919  11.982  13.331 -0.3992 -0.1232  0.1490
 3076W        W21280  12.784  13.976  16.468 -0.0298  0.0524 -0.1609
 3077W        W21281  11.304   0.065  16.317 -0.3499 -0.1190  0.0793
 3078W        W21282  11.929   5.730   4.952  0.4637  0.2107 -0.5026
 3079W        W21283   3.037   5.363  17.177  0.0485  0.1950 -0.2182
 3080W        W21284   4.679   4.906  13.179  0.1432 -0.1013 -0.2119
 3081W        W21285   2.551   8.846   2.569 -0.2628  0.4233  0.1916
 3082W        W21286   3.903  13.721   2.090 -0.1913 -0.0933  0.0656
 3083W        W21287   2.303   7.955   0.683  0.0587  0.1893 -0.1143
 3084W        W21288   3.341  16.192  16.782 -0.0888 -0.0286 -0.3000
 3085W        W21289  11.647  12.758  11.108  0.1037 -0.1626  0.1662
 3086W        W21290  10.134   2.423  15.477  0.4057 -0.2472  0.0483
 3087W        W21291  12.529   5.313  14.729  0.0775  0.0995 -0.0618
 3088W        W21292  15.460  12.568  13.955 -0.2604  0.0533  0.1837
 3089W        W21293  16.519  13.146   2.110 -0.4127 -0.1044 -0.2325
 3090W        W21294   6.591   9.679  13.116  0.0092 -0.2254  0.1717
 3091W        W21295  15.751   4.530  13.234 -0.1698  0.0994  0.0030
 3092W        W21296   1.013   7.731   1.713  0.0237  0.1476 -0.1534
 3093W        W21297   8.289   8.998   0.512 -0.1407  0.0068  0.0237
 3094W        W21298   2.088   1.997  16.812 -0.2956  0.0886 -0.1605
 3095W        W21299   7.128  16.800  13.313  0.1501  0.0797 -0.3368
 3096W        W21300  16.054  15.804   4.123  0.0206 -0.1602  0.0773
 3097W        W21301   6.475   9.633   0.827  0.2322  0.2679  0.3435
 3098W        W21302   8.276   5.350  12.752 -0.0110 -0.1108  0.0480
 3099W        W21303   9.860  15.393  15.222  0.1069 -0.1722 -0.1454
 3100W        W21304  14.863  10.162  16.828 -0.0217 -0.2243 -0.1247
 3101W        W21305  13.790   0.280   3.028 -0.2111  0.2509  0.0594
 3102W        W21306   0.207  14.810  13.575 -0.0123 -0.0111  0.4083
 3103W        W21307  12.913   3.546   1.930  0.2011 -0.1274 -0.0296
 3104W        W21308   8.951  10.459  13.521 -0.3555  0.3849  0.0682
 3105W        W21309  10.030   2.908   1.149 -0.3681 -0.1313 -0.4958
 3106W        W21310  16.923  13.543  11.941  0.0423 -0.0206  0.0815
 3107W        W21311   7.002  13.056   0.351 -0.1487 -0.1242  0.2751
 3108W        W21312   4.102   8.501  12.888  0.1892 -0.1269  0.2439
 3109W        W21313  11.568   0.583   4.868  0.3435 -0.1124  0.0501
 3110W        W21314   8.326  12.461  14.925 -0.0076 -0.1051 -0.0907
 3111W        W21315  10.741  14.552   5.696 -0.1587 -0.0413 -0.0092
 3112W        W21316   2.856  14.965   2.533  0.0132  0.0241  0.1342
 3113W        W21317  14.036  12.774  13.204 -0.2193 -0.4089  0.0132
 3114W        W21318   3.949   7.441  14.387  0.1210 -0.0804  0.0550
 3115W        W21319   9.039   4.378  17.042  0.0805 -0.2330  0.1371
 3116W        W21320   6.619   7.702  15.340  0.1025 -0.0795 -0.0738
 3117W        W21321   0.650  16.317  14.908 -0.1984 -0.3396  0.2574
 3118W        W21322   5.227   4.936   1.091  0.0384  0.3533 -0.0230
 3119W        W21323   3.044  15.779   3.401  0.3078 -0.0161  0.0265
 3120W        W21324   0.465   7.762   2.808 -0.0718 -0.0017 -0.0185
 3121W        W21325   8.424  14.247  16.090 -0.1569 -0.0028  0.1086
 3122W        W21326  11.594  15.999   0.681 -0.3504 -0.3065  0.1214
 3123W        W21327   9.049  11.864   3.255 -0.0240 -0.0157  0.0540
 3124W        W21328  15.274  11.244  12.867 -0.0026 -0.0434 -0.5068
 3125W        W21329  11.068   3.384  12.794  0.1267  0.0929  0.1518
 3126W        W21330  11.039   7.297   3.168  0.1963 -0.0794 -0.0944
 3127W        W21331   8.754   7.611   3.788 -0.1565 -0.0318  0.0935
 3128W        W21332   8.856  12.237   2.437  0.1583  0.0174  0.3807
 3129W        W21333   5.564  13.399  14.556  0.0721 -0.1219 -0.4287
 3130W        W21334   8.416   9.208   1.053 -0.3204  0.3030 -0.1963
 3131W        W21335  13.591  14.835  14.170  0.1869 -0.1747  0.0287
 3132W        W21336  10.333   2.609   5.397  0.2341 -0.2927 -0.1061
 3133W        W21337  14.803   6.243  13.379  0.0220 -0.0446 -0.1400
 3134W        W21338   6.058  10.558  17.230  0.1400 -0.0322  0.3071
 3135W        W21339  11.888   9.960   4.410 -0.2793 -0.0277 -0.2784
 3136W        W21340   7.464  10.376   0.332 -0.0223 -0.3043  0.2951
 3137W        W21341   3.316   6.910  12.055  0.2917 -0.1596  0.3540
 3138W        W21342   1.378   3.679   1.207 -0.0824  0.0467 -0.1228
 3139W        W21343  13.780  13.455  15.634 -0.2990 -0.0185  0.1998
 3140W        W21344  10.530  10.979   3.778  0.3274  0.1160 -0.2343
 3141W        W21345   4.562  15.504  15.702  0.0206 -0.2561  0.2324
 3142W        W21346   4.512   5.652   1.922 -0.0518  0.3403 -0.0082
 3143W        W21347  10.639  14.968  15.207 -0.0328 -0.0555  0.1886
 3144W        W21348   8.150   6.139   3.467  0.1145  0.1465 -0.2280
 3145W        W21349   8.470   9.407   4.824  0.2847  0.2551  0.1773
 3146W        W21350   1.122  12.864   3.277  0.2409 -0.1583  0.1482
 3147W        W21351   0.385   6.107  15.926  0.2906 -0.1469  0.0332
 3148W        W21352   3.537  16.503   0.359 -0.0875 -0.0046  0.2540
 3149W        W21353   7.259  10.792  14.766  0.3726 -0.1533 -0.0067
 3150W        W21354   2.977  15.717   0.210 -0.4205 -0.3467 -0.1855
 3151W        W21355   8.887   6.990  15.668  0.0845 -0.1700  0.1523
 3152W        W21356   4.144  13.919  16.743 -0.1340  0.0972 -0.2094
 3153W        W21357   1.312   1.359  16.328 -0.2328 -0.3654  0.0373
 3154W        W21358   9.128   3.423  14.357 -0.2219 -0.4682 -0.3412
 3155W        W21359   1.468  10.322   5.249  0.0999  0.0693 -0.0464
 3156W        W21360   5.496   7.838  15.007 -0.0640 -0.0637  0.2001
 3157W        W21361   1.345   0.500   5.100  0.2282 -0.2564  0.3189
 3158W        W21362   2.221   5.870  16.470 -0.1883  0.1332 -0.0102
 3159W        W21363  14.578   9.822  17.099 -0.1370  0.2440  0.1993
 3160W        W21364   5.001  15.235  15.422  0.0688 -0.1296  0.1398
 3161W        W21365  11.057  10.591   3.565  0.0311 -0.2292 -0.2406
 3162W        W21366   1.840   9.373  14.564 -0.1378 -0.1878 -0.0581
 3163W        W21367   6.686   9.216   3.506  0.0776  0.0315 -0.1696
 3164W        W21368   2.867   9.090  13.298 -0.0655  0.0811 -0.0036
 3165W        W21369   0.525  15.991  16.538 -0.1887  0.0286 -0.3737
 3166W        W21370   3.861   6.043  12.769  0.1068  0.2015 -0.1085
 3167W        W21371   2.486  10.879   5.189 -0.2759  0.0290 -0.0826
 3168W        W21372   5.616  15.711   2.414  0.1348 -0.1782 -0.0109
 3169W        W21373  15.278  13.301   3.745  0.2554 -0.1063 -0.1964
 3170W        W21374   0.218  16.517   5.112  0.0694  0.2250  0.0519
 3171W        W21375   9.313   6.796   3.538  0.3528 -0.2219 -0.2702
 3172W        W21376   2.243  16.793  14.067  0.2586 -0.1352 -0.3355
 3173W        W21377  15.439   9.875   4.202 -0.3028 -0.0216 -0.0661
 3174W        W21378  13.945  10.846   5.292  0.2176 -0.2232 -0.1081
 3175W        W21379   3.532   2.064  15.515  0.4481  0.1525 -0.0780
 3176W        W21380  12.529  14.308  13.271  0.0137 -0.1557 -0.2129
 3177W        W21381   6.570   3.031   0.739  0.2073  0.0327 -0.3451
 3178W        W21382   0.983   6.011  13.003 -0.0010 -0.0555 -0.0006
 3179W        W21383   5.590  12.031  13.512 -0.1911 -0.0428  0.1672
 3180W        W21384   6.892   9.472  16.342 -0.2061  0.0224  0.1676
 3181W        W21385   4.228  12.313  12.974 -0.0138 -0.2285  0.3265
 3182W        W21386   6.167  16.983  16.808 -0.1293 -0.0609 -0.3478
 3183W        W21387  15.969  11.407   5.495 -0.0520 -0.0469 -0.0409
 3184W        W21388  10.332  17.073   0.631  0.1123  0.2475 -0.0849
 3185W        W21389   7.368  17.259  15.044  0.0417 -0.2502 -0.0438
 3186W        W21390   4.969  14.052  14.977 -0.0318  0.1139 -0.3765
 3187W        W21391   4.357   2.232   1.665  0.2452 -0.0431  0.0334
 3188W        W21392   5.580  15.709  12.197  0.0026 -0.0860  0.1179
 3189W        W21393   4.604   8.995   4.332  0.4672  0.0168  0.2323
 3190W        W21394  13.067   9.188   4.848 -0.2398 -0.1342 -0.0978
 3191W        W21395   3.674   6.188   2.863  0.1193 -0.0089 -0.1829
 3192W        W21396  14.050   9.305  13.862  0.0881 -0.0998  0.1875
 3193W        W21397  15.827  14.410   5.230  0.1665 -0.0183  0.0171
 3194W        W21398   8.121   8.235   1.142 -0.2182  0.2748  0.1197
 3195W        W21399   6.855  16.154  14.660  0.0932 -0.2475  0.0275
 3196W        W21400   5.669   3.171   4.384  0.0093  0.1281 -0.2357
 3197W        W21401  17.485  11.844   1.405  0.0691 -0.0225 -0.1644
 3198W        W21402  17.084  14.124   4.093 -0.1594  0.0888 -0.0540
 3199W        W21403   4.548   3.571  13.362 -0.1495 -0.0226 -0.0879
 3200W        W21404   8.509   9.894  14.737 -0.0770 -0.1117 -0.0287
 3201W        W21405   9.321  14.502  13.527 -0.0631  0.1027  0.0309
 3202W        W21406  12.838  10.963   2.714 -0.2014 -0.0322 -0.2855
 3203W        W21407   2.835  17.468  16.320  0.1169  0.1281 -0.2079
 3204W        W21408   5.282  14.534   4.937 -0.1582  0.2888 -0.2467
 3205W        W21409   5.511   0.686  16.887  0.1330  0.1812  0.0265
 3206W        W21410   3.903   8.694   4.897 -0.3844  0.0739 -0.0573
 3207W        W21411   8.846   8.246   1.914  0.0831  0.0058 -0.1626
 3208W        W21412   3.002   3.237  14.170  0.2027 -0.0092 -0.0961
 3209W        W21413   2.344  16.182   0.898 -0.0705  0.0064  0.0048
 3210W        W21414  14.963  17.127   2.727  0.3370  0.2369  0.1885
 3211W        W21415  10.012   1.843   3.764 -0.2356 -0.1403  0.0010
 3212W        W21416   2.042   6.781  14.111  0.1035  0.0204  0.1034
 3213W        W21417   1.353  16.443  14.165  0.0439 -0.1164  0.0481
 3214W        W21418   4.957  14.865  13.534  0.0441  0.0385 -0.1311
 3215W        W21419  14.996   3.194   2.706  0.2958 -0.1457 -0.2332
 3216W        W21420   6.258   6.979   5.725 -0.1737 -0.1789 -0.0440
 3217W        W21421  16.512  14.630   3.073  0.1489 -0.1930 -0.1122
 3218W        W21422   9.912   8.027   1.365 -0.1500  0.0738 -0.2017
 3219W        W21423  12.732   9.656   4.620 -0.4535 -0.0835  0.2948
 3220W        W21424   2.615   2.769   3.840 -0.0346 -0.2494 -0.4022
 3221W        W21425   5.539   1.232  16.052  0.4457  0.1079 -0.3095
 3222W        W21426   2.484  16.216  14.659  0.0235  0.0485  0.0388
 3223W        W21427  12.218  12.359   5.058  0.0244  0.1627  0.0486
 3224W        W21428   9.159  10.409   1.854 -0.0000  0.2395 -0.1308
 3225W        W21429   5.774  12.241   0.993  0.2364  0.3813 -0.1080
 3226W        W21430  11.284   2.898  14.639  0.0058 -0.2267  0.0755
 3227W        W21431   9.123   8.042   6.228  0.1525  0.0501 -0.0882
 3228W        W21432  14.930  16.948   1.677  0.3234 -0.0265 -0.0109
 3229W        W21433  13.494  10.430  11.741 -0.0438  0.0152 -0.0664
 3230W        W21434   6.819  16.747   3.918  0.1388  0.1001  0.0633
 3231W        W21435  14.522   4.082  16.573 -0.1830  0.1648 -0.4136
 3232W        W21436  13.069   6.203  16.703  0.1239  0.0764  0.2715
 3233W        W21437   9.515   0.614   0.614 -0.0741 -0.1201 -0.0662
 3234W        W21438   7.195  16.360  16.950  0.0667  0.0010  0.4035
 3235W        W21439   1.335   1.381  14.590 -0.1090  0.1602  0.2432
 3236W        W21440   0.535   6.081   2.000  0.2292 -0.2108  0.2469
 3237W        W21441   2.036   3.283   4.245  0.1073  0.0170 -0.2550
 3238W        W21442   6.326   1.077  17.146  0.2334  0.1665 -0.1036
 3239W        W21443  13.605  14.924   2.970 -0.2409  0.2111 -0.1068
 3240W        W21444   3.676   1.391   4.113 -0.1358  0.3397  0.1446
 3241W        W21445   7.786   7.906  16.951 -0.0276 -0.3166  0.1929
 3242W        W21446   5.046   6.085  15.218 -0.1773 -0.2693  0.0956
 3243W        W21447  12.523   2.891  16.319  0.0116  0.0459 -0.2089
 3244W        W21448   2.663  10.055  15.700 -0.2098 -0.1426  0.1368
 3245W        W21449   7.855   2.970  13.718 -0.1140 -0.0419  0.2634
 3246W        W21450   6.739  17.027   1.005  0.1064 -0.3836 -0.3934
 3247W        W21451   2.043  17.366   0.262 -0.0395 -0.0800 -0.3238
 3248W        W21452   0.534   8.426   1.350  0.1382  0.1541  0.2026
 3249W        W21453  11.024  11.807   0.906  0.2099 -0.0490 -0.1773
 3250W        W21454   4.545  14.228   0.226 -0.3868 -0.3409  0.0882
 3251W        W21455   9.371   8.356  14.404  0.1795  0.0011  0.0229
 3252W        W21456   1.736  13.943   5.458 -0.1935  0.2138  0.1147
 3253W        W21457   3.255   3.354  12.733  0.0466  0.1433  0.0400
 3254W        W21458   1.937  13.362   2.773  0.0904 -0.3992 -0.2800
 3255W        W21459  12.701   9.071  16.591  0.1002 -0.0957  0.0756
 3256W        W21460   4.184  10.576  12.839  0.0677 -0.0108  0.0572
 3257W        W21461   7.288   7.683  13.105  0.1180 -0.1810 -0.1754
 3258W        W21462   1.152  11.173  14.439 -0.1238 -0.4318 -0.1043
 3259W        W21463   8.691  13.615   0.181 -0.1009  0.0054  0.3430
 3260W        W21464   5.953   2.358  12.218 -0.1281  0.1077  0.1438
 3261W        W21465   0.112   0.110   5.815  0.0993  0.0793  0.3140
 3262W        W21466   7.881   9.216  15.327  0.2096 -0.1108  0.0832
 3263W        W21467  16.952  17.079  12.668 -0.1428 -0.1034 -0.3263
 3264W        W21468   6.918   4.698   3.944  0.2760 -0.2749 -0.5753
 3265W        W21469   0.531   5.920  15.499  0.2925  0.1447  0.2106
 3266W        W21470  12.419  12.566   1.190 -0.5419  0.1831  0.0312
 3267W        W21471   8.958  15.743  14.388 -0.0677 -0.4756  0.1948
 3268W        W21472   9.619   3.265  16.311  0.0183  0.0629  0.1598
 3269W        W21473   9.902   6.590   3.712  0.3070 -0.1011 -0.0704
 3270W        W21474   9.477   5.539  12.930  0.1238  0.1239  0.1558
 3271W        W21475   8.557   4.564  12.569  0.2221  0.0099  0.0459
 3272W        W21476   6.966  13.640  12.757  0.0276 -0.1020 -0.0772
 3273W        W21477   7.388  13.917  16.153  0.0433 -0.4315  0.3299
 3274W        W21478  10.871   9.185   4.864 -0.2455  0.1653  0.1153
 3275W        W21479   1.432  16.813   4.013 -0.1448  0.1398  0.3109
 3276W        W21480  12.257  12.101  13.598 -0.1899  0.2381 -0.0175
 3277W        W21481  15.611   8.589  15.480 -0.0433  0.1103  0.1194
 3278W        W21482  10.731   7.094  15.864  0.3693  0.1614  0.1932
 3279W        W21483   2.670  11.609   4.541  0.0710 -0.1611 -0.0885
 3280W        W21484   7.629   2.051  12.706 -0.0783 -0.1615 -0.0696
 3281W        W21485  16.944   3.961   3.165  0.1380  0.1046  0.1283
 3282W        W21486   0.239   7.229  11.411  0.0191 -0.1249  0.0189
 3283W        W21487  11.886  16.784   1.352  0.2827  0.2099 -0.0427
 3284W        W21488  17.467  16.925  17.072  0.3325  0.0804 -0.0093
 3285W        W21489   1.102  13.570  12.974 -0.1918  0.1924 -0.0391
 3286W        W21490  13.408  12.516   4.420  0.0441 -0.3490 -0.0360
 3287W        W21491   0.763   8.266   4.518  0.2156 -0.3329 -0.2069
 3288W        W21492   7.975   7.167   0.496 -0.0555 -0.0705  0.1677
 3289W        W21493   0.901   2.261  14.629 -0.2793 -0.0524  0.0164
 3290W        W21494  12.555   4.735   1.995  0.0523 -0.0645  0.2645
 3291W        W21495   6.039   9.781   4.995  0.0970  0.0144  0.0241
 3292W        W21496  13.625   1.307  15.008 -0.0852  0.0189  0.0559
 3293W        W21497  16.327   7.773   2.659  0.0144  0.3650 -0.3463
 3294W        W21498  15.508   1.365  17.007  0.0827  0.2796  0.0359
 3295W        W21499   9.633   0.858   1.553 -0.1554  0.1602 -0.0614
 3296W        W21500  15.987   0.100  14.556 -0.1275  0.0456 -0.0462
 3297W        W21501   5.712   3.613   3.625  0.0211 -0.1125  0.1309
 3298W        W21502  10.756  17.144  16.268  0.0456 -0.0821  0.2791
 3299W        W21503  14.076   5.426   1.199 -0.2193 -0.1354 -0.0096
 3300W        W21504   5.930  16.612  14.366 -0.0237 -0.1690 -0.1089
 3301W        W21505   7.729  10.481   4.808 -0.2365  0.2159 -0.2448
 3302W        W21506   2.910   0.662  14.527  0.0144  0.2742 -0.2101
 3303W        W21507  14.136  11.256   3.456 -0.1629  0.2448  0.0719
 3304W        W21508  10.825   0.069  16.437 -0.1351  0.0688 -0.0869
 3305W        W21509   1.305  12.342   1.030  0.1484 -0.1788 -0.2605
 3306W        W21510   9.296   2.445  14.732  0.1773  0.1185  0.3182
 3307W        W21511   7.807  12.720  16.988 -0.2592  0.0857  0.0629
 3308W        W21512   2.309  11.300   4.378  0.1588 -0.4768  0.2848
 3309W        W21513  12.729   5.998  17.090 -0.2236  0.0880  0.0929
 3310W        W21514   1.756  13.816  16.076  0.0299  0.0540 -0.0153
 3311W        W21515  10.173  15.511   5.115 -0.1759  0.0877  0.2272
 3312W        W21516  15.670   1.249   1.056  0.0967 -0.0522 -0.2240
 3313W        W21517   3.571  14.321   0.733 -0.0003 -0.1944  0.1026
 3314W        W21518   6.026   0.608   1.084  0.0115  0.3167  0.1839
 3315W        W21519   3.242   5.635   2.053 -0.0416  0.0689 -0.1439
 3316W        W21520   8.416  15.580  14.694  0.1206  0.0468  0.2436
 3317W        W21521  12.621   6.544   2.853 -0.0445 -0.0202  0.1874
 3318W        W21522  16.051   4.219  15.737 -0.0917  0.3335  0.1243
 3319W        W21523   3.231  10.478   4.687 -0.1488  0.0406 -0.0698
 3320W        W21524  11.614   8.212   1.413  0.1275  0.1998  0.1130
 3321W        W21525  14.010  12.330   1.229  0.1550  0.2711  0.0127
 3322W        W21526  14.122  17.107   1.358 -0.2144  0.1081  0.0911
 3323W        W21527  15.852   8.131   3.474 -0.1569  0.0337 -0.0534
 3324W        W21528   1.029  10.861   4.281  0.1013 -0.0432 -0.0156
 3325W        W21529  13.448   5.495   3.968 -0.0868  0.1262  0.0368
 3326W        W21530  17.446   8.085   2.465 -0.3084  0.1421  0.4428
 3327W        W21531  12.952   4.337  12.764  0.0617  0.1218  0.1802
 3328W        W21532  12.807   8.352   2.715 -0.0446  0.0553  0.2613
 3329W        W21533   7.285   5.015  12.651 -0.2784  0.2892 -0.1032
 3330W        W21534   6.563  13.726  13.444  0.0626  0.0120  0.1998
 3331W        W21535   4.698   6.351  14.382 -0.1357 -0.2596  0.0969
 3332W        W21536   4.290   2.293  12.939  0.2280 -0.2565 -0.0217
 3333W        W21537  15.770  11.010  11.012  0.1500 -0.1054  0.0167
 3334W        W21538  14.306   8.549  12.739  0.3523 -0.2123  0.0411
 3335W        W21539  15.608   2.199   5.973  0.4870  0.1535 -0.2652
 3336W        W21540  11.635   6.452   2.009 -0.2357  0.2696  0.0501
 3337W        W21541  17.440   2.258  12.676 -0.0019 -0.0884 -0.0164
 3338W        W21542  11.143   4.156  11.380  0.0684  0.3368  0.0945
 3339W        W21543  11.091  15.044  13.066  0.0060 -0.0752 -0.2389
 3340W        W21544  17.329   8.198  17.148  0.2565 -0.1112  0.4020
 3341W        W21545   9.765  12.881  17.204 -0.2156 -0.3332 -0.1383
 3342W        W21546   6.157  12.789  16.795 -0.1082  0.1003  0.3597
 3343W        W21547   2.146   1.485  13.886 -0.0844 -0.3062 -0.2478
 3344W        W21548   9.344   6.123  14.023 -0.1128  0.0478  0.1216
 3345W        W21549   8.264   5.275  17.137 -0.0545  0.1218 -0.1191
 3346W        W21550   4.658  13.134   2.283  0.0378 -0.0876 -0.2106
 3347W        W21551   6.668   4.131  15.159 -0.0057 -0.0509 -0.2858
 3348W        W21552   4.158   8.700   4.337 -0.0932  0.2491 -0.2376
 3349W        W21553  10.589  12.119   0.903  0.0212  0.1424  0.1083
 3350W        W21554  15.673  15.219   4.885 -0.0764 -0.0459 -0.1924
 3351W        W21555   3.362   4.049  16.545 -0.0635 -0.0241  0.3529
 3352W        W21556   8.301   5.387   1.240 -0.0351  0.0297 -0.0604
 3353W        W21557   6.081  15.443  12.052  0.0836 -0.0527  0.1502
 3354W        W21558  10.396   6.831  12.434 -0.0236  0.1493 -0.0473
 3355W        W21559   1.870   8.441  13.843  0.0865  0.1030 -0.0512
 3356W        W21560   8.502  13.840  14.193 -0.3357 -0.0576  0.3521
 3357W        W21561  15.027  17.247   3.274  0.1542 -0.2519  0.0862
 3358W        W21562   8.261  10.563   4.986 -0.5526  0.0608  0.2424
 3359W        W21563  10.576  10.208  13.281 -0.0740  0.1416 -0.1149
 3360W        W21564  11.633  14.767  13.276 -0.2660 -0.1050  0.0172
 3361W        W21565  17.148  16.322   5.850  0.5243  0.0912 -0.3119
 3362W        W21566  13.679  13.415  13.866  0.1917  0.0088 -0.0884
 3363W        W21567  12.632  15.533  13.643 -0.1017  0.2083  0.0174
 3364W        W21568  11.687  12.921  16.521 -0.1764  0.4904  0.1297
 3365W        W21569  14.945  17.498  13.291  0.0858 -0.1030 -0.4391
 3366W        W21570   2.672  17.010   3.709  0.0167  0.0147  0.1329
 3367W        W21571  14.557   6.687   1.915 -0.0146 -0.1742  0.2057
 3368W        W21572   1.610   3.346   4.875  0.0771  0.0353 -0.0247
 3369W        W21573  15.947   5.107  15.487  0.1518 -0.2708 -0.3879
 3370W        W21574  12.677   5.967   5.426 -0.3335 -0.1121 -0.0226
 3371W        W21575  14.553   3.636   1.120  0.2923  0.0107  0.1132
 3372W        W21576   6.403   8.755  13.971 -0.4163 -0.0813 -0.1767
 3373W        W21577  16.530   0.786   3.025  0.0038 -0.2474  0.1176
 3374W        W21578  15.215   9.492   1.934  0.2967 -0.2570 -0.0537
 3375W        W21579   0.909   0.358  15.768  0.3414 -0.0173 -0.0106
 3376W        W21580  17.186   6.410  16.066 -0.1220 -0.2287  0.0949
 3377W        W21581  17.170  12.984  14.109 -0.3040  0.1481 -0.1159
 3378W        W21582   1.763   6.369   0.221 -0.1352  0.3304  0.0843
 3379W        W21583   4.758   4.222  16.167  0.1255  0.1299 -0.0896
 3380W        W21584  15.834  16.122  14.181  0.0057 -0.1749  0.0320
 3381W        W21585   3.375  12.407   1.425 -0.0449  0.2405  0.5151
 3382W        W21586   9.757  14.968  12.921  0.0057  0.2828 -0.2089
 3383W        W21587   2.708  15.459  13.877  0.0478 -0.0067 -0.0533
 3384W        W21588   8.207   8.172   4.244  0.1967  0.1222 -0.0251
 3385W        W21589   7.785  17.086  12.728 -0.1789 -0.2076  0.1191
 3386W        W21590   2.277   6.610   5.013 -0.1622 -0.3089 -0.0273
 3387W        W21591  15.389   9.189   1.602 -0.0606 -0.1839 -0.3106
 3388W        W21592   2.044  15.960   3.764  0.0527  0.1143 -0.1604
 3389W        W21593   1.714  12.903  15.521 -0.2198 -0.0282 -0.1514
 3390W        W21594  10.958  15.869   3.276  0.1077  0.2706 -0.0972
 3391W        W21595   7.654  15.643  12.559 -0.1891 -0.0896  0.1393
 3392W        W21596  12.069  13.457   1.614 -0.5533 -0.0416  0.0867
 3393W        W21597  13.572   3.688  15.642  0.3237  0.0767  0.2903
 3394W        W21598  11.306  14.848   3.452  0.2115 -0.3026 -0.3894
 3395W        W21599  11.001  11.138   2.073 -0.1372 -0.2118 -0.2377
 3396W        W21600   3.455  12.212  15.508  0.0298  0.1550  0.1497
 3397W        W21601  17.525   5.128  12.347 -0.5632 -0.0521  0.1216
 3398W        W21602   1.486   9.552  15.637 -0.2812  0.0139 -0.1571
 3399W        W21603   2.822   7.572  13.383 -0.3877 -0.3955  0.0227
 3400W        W21604   3.890  10.882   0.547 -0.1149 -0.2115 -0.2020
 3401W        W21605   5.671   9.751   2.809  0.2475  0.0975 -0.0315
 3402W        W21606   2.127   8.163   3.090 -0.1619 -0.3231  0.0043
 3403W        W21607   5.106  12.872   2.870 -0.0038 -0.0701 -0.2196
 3404W        W21608   2.652  10.275   4.814  0.0142  0.1050  0.0312
 3405W        W21609  14.718  16.073  16.576  0.2336  0.0814 -0.0334
 3406W        W21610  11.735   3.154   2.258 -0.2042  0.0269 -0.2561
 3407W        W21611   2.189   3.452  12.814  0.2926 -0.0420  0.0559
 3408W        W21612  16.365  10.534  16.181 -0.3427 -0.2083  0.0530
 3409W        W21613  14.542  11.061   3.636 -0.1330 -0.2427  0.0970
 3410W        W21614   9.519  10.988   4.886 -0.2025 -0.0859 -0.0115
 3411W        W21615   4.400  13.021  13.238 -0.0519 -0.0147 -0.1822
 3412W        W21616  15.191  15.376   6.245 -0.4171 -0.0680 -0.0603
 3413W        W21617   3.809  16.329  15.855  0.0087  0.2499 -0.0758
 3414W        W21618   5.241  10.691   1.879  0.0817  0.3657  0.1728
 3415W        W21619   0.292  13.927  13.316 -0.0450  0.2610 -0.0511
 3416W        W21620  13.076   8.043  17.053  0.0546  0.0553 -0.2748
 3417W        W21621  13.064  14.258   1.092 -0.0460 -0.0705  0.0648
 3418W        W21622  14.015   9.056   1.372  0.1082  0.0818  0.1771
 3419W        W21623  15.525  15.308  15.259 -0.1209  0.0543  0.2253
 3420W        W21624  15.461  14.880  13.498 -0.1025 -0.3558  0.1257
 3421W        W21625   4.557   9.755  16.012  0.0779 -0.0278 -0.0503
 3422W        W21626   5.032   6.804   4.269  0.1198 -0.5107  0.3776
 3423W        W21627  11.063  15.376   0.110  0.1554  0.3591  0.1078
 3424W        W21628   5.177   5.716  16.554  0.1865  0.0105  0.1590
 3425W        W21629  11.016  14.144  14.202 -0.1077  0.0054 -0.1177
 3426W        W21630  15.641   8.159   2.041 -0.2104  0.0160 -0.3249
 3427W        W21631   2.673   7.887   0.265 -0.0492 -0.0720  0.1316
 3428W        W21632   9.342  10.542   3.813  0.1880  0.0906  0.1880
 3429W        W21633   2.845   9.284  15.744 -0.2088  0.1368 -0.1378
 3430W        W21634  11.191   3.196  13.838  0.0652  0.1529 -0.5155
 3431W        W21635  15.288   2.540   5.076  0.0283  0.1466  0.1518
 3432W        W21636   0.642  13.168   0.782 -0.0542 -0.1003 -0.1483
 3433W        W21637  17.041  12.061  13.946  0.0272  0.0805  0.0122
 3434W        W21638  16.988   1.397  13.894 -0.0810  0.2399  0.0318
 3435W        W21639   5.564   7.298   4.412 -0.1492  0.1927 -0.3257
 3436W        W21640   9.332   9.235  14.241  0.1013 -0.1811  0.1571
 3437W        W21641   6.930  15.485   1.611 -0.2425  0.0337  0.1402
 3438W        W21642   0.973  10.686  14.427 -0.1487  0.1811  0.1369
 3439W        W21643  15.166   0.379   3.796 -0.0413 -0.0030  0.0183
 3440W        W21644   1.237   3.521  16.039  0.0412 -0.2679 -0.3282
 3441W        W21645   5.294   9.637  14.702  0.4092  0.0783 -0.1062
 3442W        W21646   8.342  10.614   1.598 -0.3700  0.1864 -0.1241
 3443W        W21647  13.426  15.534   4.873  0.0002  0.0221  0.1477
 3444W        W21648   0.473  13.853   5.063 -0.0382  0.0669 -0.2088
 3445W        W21649  11.753  11.829  16.906 -0.3106 -0.0259 -0.0233
 3446W        W21650  17.271   8.829   2.102  0.1554  0.0792  0.2413
 3447W        W21651  13.977  15.842   5.265  0.0778 -0.1133  0.0736
 3448W        W21652  16.999  13.190  13.005  0.0308 -0.3517 -0.1265
 3449W        W21653   9.684   6.684  12.260  0.0711 -0.1568 -0.1254
 3450W        W21654  15.959  10.059  15.950  0.0140  0.0036 -0.1470
 3451W        W21655   7.072  13.669   0.035 -0.1401 -0.2328  0.0404
 3452W        W21656   5.585  10.054  14.593 -0.0549  0.0707  0.1362
 3453W        W21657   0.110   5.928  14.433  0.0692  0.0646  0.1752
 3454W        W21658   9.889   4.606  15.055  0.2766 -0.0583 -0.2454
 3455W        W21659   7.751  10.628  12.023  0.0152  0.4133  0.1058
 3456W        W21660  17.177   2.638   3.986 -0.0309 -0.2221 -0.2908
 3457W        W21661   3.902   8.392  14.386 -0.0238 -0.3321 -0.3070
 3458W        W21662   4.385   8.741   4.744 -0.1701 -0.0116  0.0858
 3459W        W21663   0.341   3.784  14.362 -0.1346  0.1106 -0.3703
 3460W        W21664   3.034   4.237  14.533 -0.2511  0.2138 -0.1578
 3461W        W21665   2.545   3.530  15.060 -0.1310  0.0541  0.0286
 3462W        W21666  10.882  14.865  14.713 -0.0510 -0.0052 -0.1157
 3463W        W21667  10.197   3.631   0.261 -0.1644  0.0440 -0.3296
 3464W        W21668  13.546   7.976   1.162  0.0335 -0.0426 -0.0679
 3465W        W21669   0.048   7.847   0.656  0.1319 -0.0366 -0.0063
 3466W        W21670   7.058  13.586  14.776  0.1360 -0.0006 -0.0448
 3467W        W21671  14.918  13.281  12.231 -0.0719  0.0219 -0.0280
 3468W        W21672   2.934  14.465   0.099  0.1373 -0.2737  0.0939
 3469W        W21673   4.197  13.281  15.639  0.0015 -0.0083 -0.0464
 3470W        W21674  16.543   2.040   3.880  0.0516 -0.2283 -0.0088
 3471W        W21675   1.805   6.456  12.808 -0.1910  0.2672 -0.1305
 3472W        W21676  12.986  17.454   0.554 -0.2088 -0.0496 -0.0814
 3473W        W21677   3.492   2.128   1.641  0.2644 -0.1568 -0.0216
 3474W        W21678  16.462  13.816  14.300  0.2657 -0.2393  0.1319
 3475W        W21679  11.229  14.110  16.785  0.0346 -0.2146  0.0833
 3476W        W21680   6.091   7.210  14.036  0.0180  0.0675 -0.0627
 3477W        W21681   0.582   2.504  16.183  0.4115  0.1256  0.1866
 3478W        W21682  17.505  12.354   0.337  0.1635 -0.0161 -0.0593
 3479W        W21683  11.707  13.487   1.982 -0.1389 -0.1726  0.0115
 3480W        W21684   2.317  13.986  13.543 -0.1376 -0.2873  0.0168
 3481W        W21685   6.979   3.576  15.790 -0.0119 -0.0417 -0.0095
 3482W        W21686   2.961  11.526   5.840 -0.1656 -0.0694  0.1037
 3483W        W21687   9.270   0.350   0.265  0.0279 -0.1629 -0.2468
 3484W        W21688   1.031   4.501   3.710  0.0505 -0.2298  0.0823
 3485W        W21689   1.712  10.622  11.862 -0.0947 -0.2741 -0.0732
 3486W        W21690   5.224  16.154   3.964  0.1424 -0.0306  0.2933
 3487W        W21691   6.911   0.594  15.245 -0.1786 -0.0333  0.2499
 3488W        W21692  12.201  11.604   1.339  0.1978 -0.2404  0.0086
 3489W        W21693   3.508  17.399  12.962  0.1131  0.0950  0.1813
 3490W        W21694   4.549   6.647  11.717 -0.0899 -0.2286 -0.0766
 3491W        W21695  17.156   7.259   2.687 -0.2966  0.2055  0.1546
 3492W        W21696  13.662   6.203   0.059 -0.2228 -0.2531 -0.0688
 3493W        W21697  11.886  11.172  11.883  0.1808  0.0821 -0.0269
 3494W        W21698   9.441   5.997  15.365  0.2364  0.1756  0.1181
 3495W        W21699  14.578   6.484   3.208  0.0342 -0.2786  0.2347
 3496W        W21700  11.851  12.420  13.654 -0.0654  0.1500 -0.1377
 3497W        W21701  16.155   4.340   2.055 -0.0520  0.1675 -0.1345
 3498W        W21702  17.518   9.790  13.536  0.3330  0.2419 -0.1590
 3499W        W21703  14.193  13.773  15.628 -0.1903  0.2300 -0.0880
 3500W        W21704  12.337  13.215  13.343  0.3048 -0.1157  0.1640
 3501W        W21705  13.718   9.972   0.351  0.2500  0.1448 -0.0804
 3502W        W21706   2.583  11.114  12.064  0.3521 -0.0450 -0.1412
 3503W        W21707  11.796   1.258   1.775 -0.3386 -0.1830  0.0671
 3504W        W21708   8.400   0.352  15.691 -0.3768  0.0971 -0.0487
 3505W        W21709  16.782  15.605   3.860 -0.0568  0.1526  0.0960
 3506W        W21710   3.445   6.752  15.117 -0.2602 -0.1426 -0.1927
 3507W        W21711   2.050  10.267  13.423  0.2316  0.0946 -0.2376
 3508W        W21712   5.567   4.391  13.098  0.0517  0.0113  0.0055
 3509W        W21713   7.683  17.200  14.665  0.0799 -0.0787  0.1314
 3510W        W21714   8.651   3.131  13.573 -0.0536 -0.0946 -0.0075
 3511W        W21715   9.787   8.139  12.763  0.4196 -0.5681  0.1771
 3512W        W21716   2.071   2.466  15.423  0.3943 -0.1482  0.0324
 3513W        W21717  10.938  14.771   2.314 -0.0077  0.1018 -0.3588
 3514W        W21718   0.459   1.231  13.884 -0.1719  0.0717  0.0745
 3515W        W21719   0.822   8.936  15.394  0.2102  0.0978 -0.3340
 3516W        W21720   6.024   7.520   0.366 -0.0722 -0.1422  0.0547
 3517W        W21721  14.510   9.351  12.844 -0.3132  0.0525  0.1102
 3518W        W21722   9.964   4.959  16.854  0.1239  0.0447 -0.0885
 3519W        W21723   1.991  12.844   1.572 -0.0356  0.3108 -0.1626
 3520W        W21724   5.975  13.979  17.199  0.1535  0.4140  0.1572
 3521W        W21725   0.921  14.460  13.092 -0.0183 -0.3194  0.1026
 3522W        W21726  16.656  15.080   0.988  0.0343  0.1968  0.0401
 3523W        W21727  16.125   9.745   0.845 -0.1591 -0.0646  0.4130
 3524W        W21728   6.492  11.602  13.447 -0.0628 -0.2169  0.1895
 3525W        W21729   7.725  14.048   3.352  0.2181  0.0097  0.1893
 3526W        W21730   4.981  13.519   3.558  0.1436 -0.1234  0.0819
 3527W        W21731   7.673   3.117   4.523 -0.0830 -0.3300 -0.0894
 3528W        W21732   1.136  13.064   0.985 -0.0409 -0.0963 -0.0851
 3529W        W21733  12.567  10.330  14.551 -0.1614  0.1255 -0.0957
 3530W        W21734   4.450  12.197   1.433 -0.2086  0.1800 -0.1097
 3531W        W21735   9.035   8.617  13.075  0.3489  0.1137 -0.1555
 3532W        W21736  17.197   6.276  17.149  0.0788 -0.2103  0.1195
 3533W        W21737   1.986   1.929   4.001 -0.1320 -0.0449  0.2017
 3534W        W21738   0.756   9.156  13.166 -0.3369  0.0343  0.1958
 3535W        W21739   5.420  16.135   4.926 -0.0167 -0.1626  0.2296
 3536W        W21740  12.928  10.374  12.532  0.0876  0.0656  0.0743
 3537W        W21741  11.801  14.953  16.550 -0.0864  0.0546 -0.0308
 3538W        W21742   2.132   9.386   3.334  0.0042  0.4482  0.3462
 3539W        W21743  10.458   7.436   3.794 -0.1140  0.4884  0.1304
 3540W        W21744  12.414  15.405  13.187 -0.2671  0.1300 -0.2676
 3541W        W21745  16.662  11.061   3.674  0.0597  0.0147  0.2084
 3542W        W21746  13.429   5.736   0.065  0.2777  0.0679  0.2803
 3543W        W21747   4.707   5.646  15.126  0.0273  0.0567  0.2803
 3544W        W21748   4.315   2.981   3.356 -0.0195  0.0153 -0.1060
 3545W        W21749  10.978   0.990   5.422  0.4161  0.2324  0.2759
 3546W        W21750  10.012   5.084   2.159  0.0860  0.0186  0.1090
 3547W        W21751  13.507   2.114  15.337  0.0271  0.1378 -0.3216
 3548W        W21752  12.728   0.669   5.426 -0.0180 -0.2263 -0.1419
 3549W        W21753   4.612   2.771  14.324  0.0448 -0.0860 -0.0236
 3550W        W21754   6.726  13.386  16.631  0.1354 -0.0515  0.2162
 3551W        W21755  16.908  10.521  15.244 -0.0698 -0.2279  0.2564
 3552W        W21756   5.610   2.638   1.348  0.2919 -0.0170 -0.1929
 3553W        W21757   1.667  13.116  16.020 -0.0298 -0.0047  0.0420
 3554W        W21758   2.918   5.765  12.618 -0.2945 -0.1907 -0.2863
 3555W        W21759  10.991   1.853  11.854 -0.3369  0.0770  0.1735
 3556W        W21760  14.069  13.670   0.090  0.2799 -0.0015 -0.1627
 3557W        W21761   6.356  16.130  12.068 -0.0560 -0.1627 -0.2569
 3558W        W21762  17.273  17.542   4.129 -0.3280 -0.7265 -0.1531
 3559W        W21763  12.779   1.540  13.997 -0.0763 -0.1361  0.0453
 3560W        W21764  17.489   2.584   3.042  0.1851 -0.2865  0.0552
 3561W        W21765   8.210   2.258  13.334 -0.1473  0.1438  0.4646
 3562W        W21766   1.195   3.101  13.546  0.2845  0.1043  0.1387
 3563W        W21767   0.924  10.297  12.247 -0.0168  0.1751 -0.1067
 3564W        W21768   4.153   9.014   1.124  0.1484 -0.2775  0.2660
 3565W        W21769   6.103   9.298   4.800 -0.1550  0.0808  0.0647
 3566W        W21770   5.533  10.591   5.034 -0.0753  0.0154 -0.1245
 3567W        W21771   0.326   5.581   5.370  0.1221 -0.0179  0.2658
 3568W        W21772  14.598  14.163  14.749 -0.0037  0.2413 -0.2130
 3569W        W21773   0.482  16.157   3.021  0.1706  0.0598  0.2952
 3570W        W21774  16.808   8.514   4.068  0.0353 -0.1867  0.0020
 3571W        W21775   3.321   8.120   1.768 -0.3373  0.4953  0.1281
 3572W        W21776   7.757  15.774   3.868  0.1481 -0.0898 -0.2871
 3573W        W21777   9.910  11.005  11.858  0.2829 -0.2529  0.0613
 3574W        W21778   0.729   2.992   3.386  0.2089 -0.0814  0.0551
 3575W        W21779  10.964   0.976  17.190  0.0265  0.0409 -0.0457
 3576W        W21780   2.380   1.536   3.482 -0.0705 -0.2007  0.2122
 3577W        W21781   6.157   3.442   4.065  0.1150  0.0453  0.0468
 3578W        W21782  16.018   3.730   1.947 -0.1786 -0.2093 -0.1223
 3579W        W21783   1.053  13.643  11.652 -0.0431 -0.0833 -0.0360
 3580W        W21784  10.484  12.385   3.259 -0.0762  0.1275 -0.0062
 3581W        W21785  11.815  14.610   3.284  0.1964  0.0360 -0.1096
 3582W        W21786  11.425  12.205  16.774 -0.0857  0.1104 -0.1569
 3583W        W21787   3.386  11.556   1.218 -0.1581  0.1086  0.1540
 3584W        W21788   8.447  17.382  16.984  0.0283  0.1283 -0.2406
 3585W        W21789  11.614   5.960   3.852  0.1251  0.1238 -0.0955
 3586W        W21790   9.208  15.485  12.197  0.0648 -0.1523  0.1199
 3587W        W21791   7.737   1.642  13.904  0.1186 -0.2174  0.3501
 3588W        W21792  12.654  16.179   1.690 -0.1278 -0.1775  0.0559
 3589W        W21793   4.584   1.844   1.295 -0.0540  0.2040  0.0366
 3590W        W21794  16.935  14.172   2.965  0.0325  0.0711  0.0959
 3591W        W21795  16.348  15.726  12.718 -0.2260  0.1052  0.4680
 3592W        W21796   7.333  17.069  16.464  0.3206  0.0196  0.1795
 3593W        W21797  13.165   1.799   2.617 -0.0488  0.0587 -0.0936
 3594W        W21798   7.237   4.957   4.243  0.4613  0.0041  0.0927
 3595W        W21799   3.142  11.161   1.037  0.1900  0.1082  0.0446
 3596W        W21800   5.838  15.725   4.758  0.0218 -0.0395  0.4440
 3597W        W21801   5.927  14.197  14.566 -0.1735 -0.0177  0.0159
 3598W        W21802  11.114  16.348  13.505  0.3646 -0.1189 -0.0861
 3599W        W21803   9.743   5.697   4.451 -0.4359  0.1290 -0.0892
 3600W        W21804  17.051  15.537   2.262  0.0873  0.2950 -0.3173
 3601W        W21805   0.428  15.116  15.607 -0.0656 -0.0699  0.1940
 3602W        W21806  14.783   3.226   5.134  0.1978 -0.0184 -0.2676
 3603W        W21807   1.847  12.554  13.399  0.0088  0.1611 -0.0813
 3604W        W21808  17.020  14.999   0.599 -0.1450  0.1378  0.1145
 3605W        W21809   0.230   5.562  14.002  0.0456 -0.0712  0.1765
 3606W        W21810   3.723   5.013   3.693  0.1574 -0.0605  0.3241
 3607W        W21811  11.236   8.715   2.190  0.2650 -0.0960 -0.1964
 3608W        W21812   2.142   5.279  12.144  0.0622  0.0232  0.0564
 3609W        W21813   7.488  14.857   5.929  0.1733  0.2027  0.0366
 3610W        W21814   6.757  11.213   0.958  0.1063  0.1271  0.0559
 3611W        W21815   3.903  17.353   4.727 -0.2343  0.1627  0.0090
 3612W        W21816   6.174   2.846   0.520  0.2260 -0.1017 -0.1232
 3613W        W21817  12.828   5.856  14.624  0.1399 -0.2764 -0.4111
 3614W        W21818   1.113   8.825  15.003  0.2606 -0.0986  0.0080
 3615W        W21819  16.334   8.194   2.311  0.2754  0.0206  0.1812
 3616W        W21820   2.492   8.310  15.694 -0.1822  0.0742 -0.3095
 3617W        W21821   0.499   0.794   3.190 -0.1798 -0.0366  0.2775
 3618W        W21822   9.110  11.159  15.859  0.1564  0.1728 -0.3683
 3619W        W21823   8.600   9.048   2.962 -0.0147  0.1064  0.2041
 3620W        W21824  11.268  17.289   6.314 -0.0001 -0.1270  0.3119
 3621W        W21825   0.451   0.472   4.644 -0.0627  0.0460 -0.1276
 3622W        W21826  10.272  16.625  13.636 -0.0762 -0.3882 -0.3974
 3623W        W21827   4.492  10.114  12.486 -0.0391  0.0187 -0.2507
 3624W        W21828   9.328   3.197  14.810 -0.0708  0.1818 -0.1750
 3625W        W21829  11.899  12.852   3.675 -0.0280 -0.0636  0.1099
 3626W        W21830   3.817   6.843  12.106 -0.1210  0.1104 -0.2506
 3627W        W21831   1.220   2.398   3.910  0.1466 -0.0384 -0.0347
 3628W        W21832   0.224   2.076  14.937 -0.2884  0.1173  0.1384
 3629W        W21833   3.488  15.137  13.644  0.2327  0.0369  0.3488
 3630W        W21834  17.441   1.260   2.593 -0.0983  0.2573  0.1494
 3631W        W21835   5.457   1.289   5.617 -0.1293 -0.1730 -0.1020
 3632W        W21836  17.412   0.662   1.578  0.1627 -0.2435 -0.1784
 3633W        W21837   1.203  10.571   3.555 -0.1355  0.0272  0.1406
 3634W        W21838   4.064   0.466   1.402 -0.0408  0.0605 -0.2040
 3635W        W21839   6.089  11.938  13.516  0.1777  0.1697 -0.2796
 3636W        W21840  11.295  16.179   2.889  0.1692 -0.3380  0.3493
 3637W        W21841  16.316   9.426   0.291  0.0129  0.1236  0.2439
 3638W        W21842   0.931   7.985  16.335  0.0789 -0.2976  0.0797
 3639W        W21843   2.487   3.511   1.175 -0.2505  0.1182  0.1028
 3640W        W21844   1.931  10.418   0.361  0.0607 -0.2178 -0.0218
 3641W        W21845  12.013   5.420  17.283  0.2841  0.1674 -0.0651
 3642W        W21846  11.984   2.919   3.206  0.1077 -0.0132 -0.0595
 3643W        W21847   2.371   2.882   4.229  0.0984 -0.0905 -0.1192
 3644W        W21848  10.814   2.929  13.962 -0.1903  0.0558 -0.3633
 3645W        W21849   1.641   3.712   4.059 -0.1010  0.1540  0.1579
 3646W        W21850  10.655  17.410   4.706 -0.1163  0.0340  0.0007
 3647W        W21851   9.860   1.830   0.387  0.2844  0.0758 -0.1014
 3648W        W21852   3.630   6.942   6.075 -0.2045 -0.0075 -0.1277
 3649W        W21853   8.894  11.402  13.291  0.2610 -0.0792 -0.1908
 3650W        W21854   2.219   0.194  14.238 -0.4468 -0.0516 -0.1135
 3651W        W21855  13.642  13.497  12.929 -0.0959 -0.1736 -0.0849
 3652W        W21856   0.638  15.582   3.708  0.0330 -0.0954 -0.2602
 3653W        W21857  13.648  13.754   1.623 -0.0596  0.0346 -0.0368
 3654W        W21858  16.183   0.396  14.940 -0.3221  0.0119 -0.0842
 3655W        W21859   9.980   1.413  15.614  0.2560  0.0288  0.4337
 3656W        W21860   4.184  17.050   2.662  0.4007 -0.0987  0.5250
 3657W        W21861  16.158  17.313  16.741 -0.1427 -0.2323  0.0321
 3658W        W21862  15.959   7.472   5.197 -0.1949  0.1034  0.2181
 3659W        W21863  11.040   8.702   4.657 -0.0449  0.1156 -0.0412
 3660W        W21864   3.850   0.946   4.248  0.1570  0.2722  0.0289
 3661W        W21865   0.584   5.613   1.791  0.0801  0.0883  0.0707
 3662W        W21866   1.194  16.506   4.267 -0.0197  0.0758 -0.0464
 3663W        W21867  12.528   3.039  16.832  0.0781 -0.0866 -0.0653
 3664W        W21868  16.402   9.546  14.458  0.0662  0.1185  0.1400
 3665W        W21869   8.684  13.897  15.805 -0.2822 -0.0916  0.2208
 3666W        W21870   1.213  12.847  14.654  0.1003 -0.4917  0.0519
 3667W        W21871  17.353   8.159   0.299 -0.0020  0.0248 -0.0796
 3668W        W21872  15.419  13.611   2.632 -0.2838  0.2610 -0.0339
 3669W        W21873  10.445  15.514  14.098 -0.3818 -0.3592 -0.1293
 3670W        W21874   3.516  15.642  12.374  0.3136 -0.1614  0.1565
 3671W        W21875  11.781   5.389   3.809 -0.1170  0.1443 -0.0176
 3672W        W21876   3.688   5.871  13.761 -0.1339 -0.0464  0.0413
 3673W        W21877  16.187   0.030   1.718  0.2734 -0.1490 -0.0592
 3674W        W21878   7.788  15.043  15.701  0.0131  0.0617 -0.0230
 3675W        W21879  16.784  11.208   4.694 -0.3046  0.0308  0.1920
 3676W        W21880  11.373  16.483   5.854 -0.0046 -0.3252  0.0211
 3677W        W21881   4.547   7.548  13.215 -0.0981 -0.2561 -0.3363
 3678W        W21882   5.373   4.425   2.041  0.0397  0.1696 -0.0808
 3679W        W21883   5.018   3.942   2.391  0.0028  0.1746 -0.0956
 3680W        W21884   4.140   4.389   2.437 -0.0614  0.4297 -0.0920
 3681W        W21885  14.259   5.574  14.041 -0.1533  0.2476  0.0723
 3682W        W21886  15.052   7.905  14.019  0.2935  0.1887 -0.0359
 3683W        W21887   0.448   3.034  17.241 -0.2255 -0.1190  0.0032
 3684W        W21888   4.505   9.622  11.161 -0.3066 -0.2446  0.0600
 3685W        W21889  14.811  13.558  16.927 -0.0306  0.0935  0.0936
 3686W        W21890  15.452   7.250   4.589  0.1776  0.0083 -0.1348
 3687W        W21891  14.196  12.023  15.737 -0.3495  0.1632  0.1754
 3688W        W21892  11.593  14.907  12.396  0.1762  0.1190 -0.2794
 3689W        W21893  14.766   7.567   1.449 -0.0538  0.2103  0.1462
 3690W        W21894  13.225   0.894   1.893 -0.0837 -0.0129 -0.0919
 3691W        W21895  15.734   8.008  12.801 -0.0007 -0.2409 -0.1630
 3692W        W21896  13.683   2.491   1.049  0.0889  0.0755 -0.1986
 3693W        W21897   0.314   9.758   2.247 -0.2150 -0.0889 -0.0150
 3694W        W21898   1.260   2.275   3.115 -0.0128 -0.0791  0.1951
 3695W        W21899   1.188   6.374   5.192 -0.2031 -0.1866  0.0968
 3696W        W21900  11.788   9.524  14.064 -0.1482 -0.0045  0.0716
 3697W        W21901  12.178   5.988  12.723  0.1812 -0.0114  0.2310
 3698W        W21902   0.069  11.783  13.998  0.1052  0.2147 -0.2413
 3699W        W21903   7.723   8.493   3.154 -0.2078  0.1270  0.1515
 3700W        W21904   3.229  13.680   3.011 -0.1527 -0.2457  0.3575
 3701W        W21905   9.597   3.779  11.419  0.0506  0.2169 -0.0431
 3702W        W21906  13.370  10.838  15.405  0.0439 -0.0359 -0.2883
 3703W        W21907   3.480   1.039  17.026  0.1209 -0.1170  0.1143
 3704W        W21908  17.095  11.843   0.872 -0.0752  0.1782  0.0073
 3705W        W21909   1.484   7.344   2.529 -0.1501 -0.2978 -0.4500
 3706W        W21910   7.345   3.023   4.987 -0.2170 -0.1253 -0.0558
 3707W        W21911   9.773   0.633   3.632  0.1140  0.0462 -0.1224
 3708W        W21912   5.511   8.054  17.115  0.2432  0.3370 -0.1421
 3709W        W21913   1.433   5.212   0.635  0.0574  0.3636  0.1099
 3710W        W21914   8.860   3.281  14.897  0.1401 -0.0395  0.1401
 3711W        W21915   0.226  16.317  14.719 -0.0207  0.0688 -0.2726
 3712W        W21916  11.748   4.499   0.491  0.0390  0.0828  0.1874
 3713W        W21917   1.797   4.173   4.261  0.1702 -0.2970  0.0977
 3714W        W21918   2.429  10.806  13.434  0.0396  0.5978  0.1364
 3715W        W21919  14.225   4.023  12.551  0.1501 -0.2822 -0.3504
 3716W        W21920   8.563  12.614   3.273 -0.0865  0.2107  0.2042
 3717W        W21921  17.371  10.201   0.585 -0.0207 -0.0596 -0.0976
 3718W        W21922   9.501  15.861   2.304  0.1742 -0.3380  0.0814
 3719W        W21923   1.681   8.545   1.955  0.2330  0.2523 -0.2523
 3720W        W21924  14.398  15.082  12.173  0.3273 -0.1441 -0.2241
 3721W        W21925   7.987   6.841  12.803 -0.0723  0.1912 -0.1515
 3722W        W21926  10.392  12.787   2.892 -0.0377 -0.1062  0.0016
 3723W        W21927   8.817   7.258   4.750 -0.0145  0.1574 -0.1996
 3724W        W21928   4.496   1.667   0.804 -0.1338  0.0162 -0.0657
 3725W        W21929  17.282   6.729  14.605 -0.0117  0.2388 -0.1939
 3726W        W21930   8.340   7.566  15.711  0.1749 -0.0147 -0.0091
 3727W        W21931   5.707  16.872   1.221  0.0827 -0.0838 -0.0068
 3728W        W21932  13.695  13.645   2.919 -0.1714 -0.0080 -0.0804
 3729W        W21933   9.313  17.012   0.678 -0.1944  0.1274 -0.0502
 3730W        W21934   5.874  17.319  12.942 -0.2918  0.0668  0.0460
 3731W        W21935  13.927   6.776   4.347  0.1750  0.2858  0.0581
 3732W        W21936  13.003  15.440  14.922 -0.2326 -0.1271  0.0917
 3733W        W21937  11.781   5.793  15.204  0.1837  0.1683 -0.0567
 3734W        W21938   1.992   0.586   0.892  0.0193  0.1634  0.1375
 3735W        W21939  16.138   9.721   2.729 -0.0967  0.1579  0.3435
 3736W        W21940   6.936   9.961   2.081  0.1450 -0.1424 -0.2668
 3737W        W21941  14.259  13.303   4.155  0.0021  0.0599 -0.2622
 3738W        W21942  12.418   1.012   3.618  0.2215  0.0029  0.0091
 3739W        W21943   9.371   4.837   0.885  0.1722  0.2421  0.0981
 3740W        W21944  12.489   1.433   1.679 -0.2462  0.2445  0.3043
 3741W        W21945   7.494   1.289   3.904 -0.1483  0.1142  0.0401
 3742W        W21946  16.819   5.761   0.059 -0.4176 -0.3091 -0.3100
 3743W        W21947  11.176  14.110  14.671  0.1483  0.1529  0.0851
 3744W        W21948   5.344   2.146  16.564  0.2010  0.0509 -0.2330
 3745W        W21949  11.303   6.429   0.425  0.1371  0.2747  0.1901
 3746W        W21950  11.090  10.740  15.957 -0.0709 -0.1645 -0.2123
 3747W        W21951  12.451   0.325   6.567  0.2502  0.2765 -0.1747
 3748W        W21952  15.100  13.497  15.763 -0.0697 -0.0492  0.2211
 3749W        W21953  13.189  14.158  16.240  0.1933  0.0149 -0.3172
 3750W        W21954   2.897  15.717  13.053 -0.2733 -0.1600  0.2864
 3751W        W21955  13.512   1.936   2.228  0.2318  0.0605  0.0128
 3752W        W21956  11.802  13.392  16.410  0.0717  0.0677  0.0340
 3753W        W21957   0.318   4.621   4.873 -0.3063 -0.0232  0.0971
 3754W        W21958  17.280  13.414  17.141 -0.0136 -0.3655 -0.1374
 3755W        W21959   6.724   0.299  14.317 -0.1722 -0.0658  0.1498
 3756W        W21960   8.588  14.282   2.998  0.0346 -0.3227 -0.0816
 3757W        W21961  13.786  14.029  11.824 -0.1662 -0.2272  0.2818
 3758W        W21962  14.141  11.774  14.567  0.1692  0.2891  0.0786
 3759W        W21963  13.420  12.901   1.934 -0.0976  0.0780 -0.1364
 3760W        W21964  14.583   4.605  16.694  0.1250  0.3676  0.2087
 3761W        W21965   0.441  16.425   4.696 -0.0203  0.0622 -0.1320
 3762W        W21966   8.503   6.480   3.689 -0.0481  0.1613 -0.0585
 3763W        W21967   9.106  10.578   1.076 -0.1232  0.0978 -0.1416
 3764W        W21968   4.546  15.288  13.823 -0.0326  0.4894 -0.2957
 3765W        W21969   5.002   6.141  16.834 -0.3271  0.1306  0.2151
 3766W        W21970   5.373   6.392   4.271 -0.4390  0.0549  0.1680
 3767W        W21971  16.424  10.694   0.234 -0.2726  0.0567  0.0359
 3768W        W21972   9.243   0.798  16.022 -0.0016  0.1896  0.0230
 3769W        W21973   9.631   0.633  12.372 -0.2229  0.0699  0.0789
 3770W        W21974   9.279  11.495   0.939 -0.1753  0.0276  0.1090
 3771W        W21975   7.840  16.589  15.754  0.1426  0.0808 -0.1922
 3772W        W21976  15.606   1.831  11.986  0.2489  0.0112 -0.1245
 3773W        W21977   3.664   1.693   0.849 -0.4458 -0.1233  0.1077
 3774W        W21978  13.684  14.764   1.344  0.0207  0.0447 -0.1210
 3775W        W21979  16.454   0.909   4.545  0.1075  0.1309  0.1193
 3776W        W21980   2.758   7.705   1.188 -0.1310 -0.3129  0.1214
 3777W        W21981  13.308   8.024  14.852 -0.1156 -0.3554 -0.1198
 3778W        W21982   6.300   3.756   3.156  0.1427 -0.1180  0.2959
 3779W        W21983   8.165   4.332  12.729  0.0784  0.2158 -0.2405
 3780W        W21984   3.132  10.836  16.353 -0.1750  0.2143  0.1803
 3781W        W21985  11.111  14.613   0.672 -0.1265 -0.0457 -0.2000
 3782W        W21986  12.178   6.713  16.205 -0.0879  0.1078  0.1919
 3783W        W21987  15.394   8.414   2.780  0.4862  0.0584 -0.1604
 3784W        W21988  13.827  14.958   2.385  0.1305 -0.1442  0.0506
 3785W        W21989  15.184  16.512   1.601 -0.2264  0.1839 -0.0435
 3786W        W21990   5.316   5.795   1.263  0.0479  0.0058  0.3489
 3787W        W21991   9.463  13.048   4.554 -0.2879  0.1443 -0.2890
 3788W        W21992   5.457   6.648  12.494 -0.0552  0.5591  0.2919
 3789W        W21993   4.888   4.326  15.285 -0.2956 -0.1889  0.3517
 3790W        W21994  10.648  13.330   1.234  0.2704  0.2041  0.3292
 3791W        W21995   7.121   1.123   1.537  0.0632  0.0584 -0.1710
 3792W        W21996   9.860   3.328   2.826 -0.1437 -0.0955  0.3569
 3793W        W21997  12.537   2.584   2.385 -0.0274 -0.1849  0.0152
 3794W        W21998  11.381   7.863  12.149 -0.2484  0.1766  0.3979
 3795W        W21999   8.560   4.236   4.572 -0.3975  0.2858  0.2626
 3796W        W22000   5.241   0.228  15.570 -0.2593  0.3441 -0.1786
 3797W        W22001  10.920  16.366  13.040  0.3175  0.2162  0.1036
 3798W        W22002  13.023  10.282  17.189 -0.4223  0.1168 -0.0140
 3799W        W22003   4.589  16.447  15.446 -0.1884  0.0630 -0.2183
 3800W        W22004   3.159  13.639  16.582  0.1050 -0.0395  0.2466
 3801W        W22005  13.990  15.945  13.144  0.0044 -0.0480  0.1811
 3802W        W22006   7.973   7.633  15.353 -0.4289 -0.1108 -0.1648
 3803W        W22007  13.305   2.066   3.355  0.0566 -0.0105  0.1107
 3804W        W22008   6.024   3.437  15.291  0.1678 -0.1027  0.1336
 3805W        W22009   6.926  15.311  14.142 -0.2069  0.1447 -0.1721
 3806W        W22010   6.982   8.592   4.030  0.1202 -0.0320 -0.1685
 3807W        W22011  12.838  10.445   0.369  0.1845  0.0932  0.0211
 3808W        W22012   3.490   2.256  12.408  0.2366  0.2073  0.1417
 3809W        W22013   0.951  14.777   0.115 -0.0442  0.0108 -0.0355
 3810W        W22014  16.315  11.585   1.815 -0.0585  0.0176 -0.0620
 3811W        W22015   4.405   8.610   2.574 -0.3541 -0.3585 -0.3338
 3812W        W22016   8.394   4.107  15.520 -0.1800 -0.0310  0.3304
 3813W        W22017  12.671   2.081  16.500  0.1568  0.2773 -0.1136
 3814W        W22018  13.652  17.231   5.778  0.3159 -0.1287  0.2412
 3815W        W22019   4.271   7.112  12.039 -0.0578  0.0850 -0.0431
 3816W        W22020  17.488   1.466   1.437 -0.2688  0.0778  0.2269
 3817W        W22021   0.333  12.146  16.413  0.0372 -0.1356 -0.0221
 3818W        W22022  16.565   8.784  17.093  0.2395  0.1850 -0.3745
 3819W        W22023   8.124  15.455   1.697 -0.2986  0.2862 -0.0412
 3820W        W22024   5.820  10.645  12.635  0.0126  0.0846 -0.0695
 3821W        W22025  11.831  14.841  17.037  0.1444 -0.4216 -0.1338
 3822W        W22026   1.724  14.754   5.926  0.1071 -0.2275  0.0145
 3823W        W22027   2.320  14.462  13.244 -0.0157 -0.0618  0.3087
 3824W        W22028   3.735  14.391   3.175  0.4567  0.4296  0.0859
 3825W        W22029  17.087   7.231  13.235 -0.0960  0.0126 -0.1847
 3826W        W22030   9.296   7.182  13.830  0.1258 -0.1371 -0.3216
 3827W        W22031  14.310   9.035   2.698  0.2249 -0.0974  0.0500
 3828W        W22032  11.651   6.798  14.465 -0.1364 -0.5164 -0.3296
 3829W        W22033   5.319   5.927   3.942 -0.0997 -0.1037 -0.0197
 3830W        W22034   1.651  11.257  16.738  0.0051  0.0054 -0.0423
 3831W        W22035   4.010   6.515  17.222  0.1123  0.2846 -0.0828
 3832W        W22036  13.257   2.231   0.324  0.0063  0.0729  0.0489
 3833W        W22037   6.364   6.187   4.770  0.0622  0.1733  0.0930
 3834W        W22038   9.458  12.412   4.404  0.0479  0.0379  0.0430
 3835W        W22039  17.043   8.626   4.462  0.0855 -0.0077  0.0475
 3836W        W22040  12.641   7.224   3.618  0.1200  0.2041 -0.0928
 3837W        W22041   3.223   7.895  15.169 -0.0467  0.2384  0.2659
 3838W        W22042  16.771   1.077   5.421 -0.0536  0.1724 -0.0256
 3839W        W22043   2.638   5.972  13.838  0.0893  0.0687  0.0786
 3840W        W22044  14.323   6.849  16.363  0.1836  0.2732  0.0165
 3841W        W22045  10.600   3.264  15.288 -0.0609  0.0761  0.0318
 3842W        W22046   5.307  12.422   3.527 -0.1165  0.0298  0.0082
 3843W        W22047  11.651  14.342   1.819  0.1288 -0.4982 -0.1008
 3844W        W22048   0.203  14.491  14.375  0.0432  0.1192 -0.1116
 3845W        W22049  17.212  16.549   2.416 -0.4526  0.0330  0.0235
 3846W        W22050  14.919   8.842  14.260 -0.1098  0.1972 -0.1958
 3847W        W22051   8.838   7.784  16.454 -0.2039 -0.1743 -0.1771
 3848W        W22052   8.157   8.123   4.796 -0.2566  0.2560 -0.0236
 3849W        W22053   9.599   2.490   4.427  0.0196  0.1897 -0.0544
 3850W        W22054  10.882  13.719   3.191 -0.0777  0.1280 -0.0046
 3851W        W22055  12.571  17.115  14.356 -0.1046 -0.2346  0.2586
 3852W        W22056   8.836  16.827  14.223 -0.0214  0.1339 -0.0089
 3853W        W22057   4.468   0.955   2.699 -0.1615  0.0124 -0.1514
 3854W        W22058   2.692   0.977  11.337  0.0252 -0.1725 -0.0246
 3855W        W22059   2.902   3.992   1.798 -0.0071  0.1250 -0.1748
 3856W        W22060   6.438   6.470   1.999  0.1218  0.1476  0.2783
 3857W        W22061  16.666  11.006  13.250  0.0987 -0.2270  0.0548
 3858W        W22062   9.903  17.118   2.421  0.0031  0.0449 -0.1089
 3859W        W22063   7.465  16.924   1.428  0.2492  0.1025 -0.0828
 3860W        W22064  15.494   2.963   4.046  0.1227 -0.0668 -0.2700
 3861W        W22065   6.587   8.444  13.653  0.0901  0.0924 -0.2218
 3862W        W22066   1.845   7.689   2.377  0.0342  0.0988 -0.0677
 3863W        W22067  14.657  13.005   4.287  0.1252  0.1208  0.0036
 3864W        W22068   9.523  15.366  10.758 -0.0712 -0.1248  0.2516
 3865W        W22069  11.711   6.935   1.110  0.2346 -0.1581 -0.0089
 3866W        W22070  14.300   8.091   2.744  0.1407 -0.0873 -0.2761
 3867W        W22071  10.716   1.434  17.242 -0.4296 -0.0058 -0.4359
 3868W        W22072  16.386   0.578   1.592 -0.2931  0.2292 -0.1889
 3869W        W22073   6.750   1.058  12.338 -0.2666 -0.0717 -0.1174
 3870W        W22074   3.491  13.226   5.082  0.2135 -0.2719  0.0005
 3871W        W22075   8.170   9.730  11.924 -0.2923 -0.0513 -0.0703
 3872W        W22076  17.393  17.090   6.652 -0.0446 -0.0899  0.0985
 3873W        W22077  16.705   6.958  15.081  0.2576 -0.3021  0.1174
 3874W        W22078  13.529   8.042   3.869  0.0743  0.1111  0.0059
 3875W        W22079  12.527   8.656   5.123 -0.1072  0.0496 -0.1179
 3876W        W22080   1.219   4.127   1.040  0.0306  0.1905 -0.3232
 3877W        W22081  12.259  11.353   0.896  0.2444  0.1439  0.3227
 3878W        W22082   0.532   2.721   4.355  0.0689 -0.0085  0.0385
 3879W        W22083   2.812  11.351  13.671  0.1295 -0.0157 -0.0651
 3880W        W22084   8.030   0.009   1.864 -0.2352 -0.1113 -0.0190
 3881W        W22085   1.227  16.055   5.103 -0.0629 -0.0283 -0.0657
 3882W        W22086   3.431  13.388  15.242 -0.2019 -0.1256 -0.1546
 3883W        W22087   7.852   6.512   3.171  0.0526  0.3153 -0.3050
 3884W        W22088   9.794  15.556  17.038  0.3444 -0.5096  0.2737
 3885W        W22089   5.084   3.639   3.318  0.0081  0.0308  0.1601
 3886W        W22090  12.600  13.150   4.866  0.0273  0.0040  0.1043
 3887W        W22091  15.370  10.774  12.775 -0.0942 -0.1381  0.1859
 3888W        W22092  12.847   7.836  14.757  0.3019  0.2179 -0.2298
 3889W        W22093   5.140   9.212  14.312 -0.2586  0.2271 -0.0317
 3890W        W22094   5.851   6.599  12.133 -0.0462 -0.1961 -0.0924
 3891W        W22095  17.233  15.120   4.109  0.1997  0.2349 -0.1341
 3892W        W22096   7.340  12.750   3.994 -0.1292 -0.1823  0.2640
 3893W        W22097  13.793   4.073   2.636  0.0089  0.3019  0.1430
 3894W        W22098   1.817   4.329  13.259  0.0783 -0.1360 -0.1967
 3895W        W22099  15.481   4.250  12.206  0.0567 -0.2469  0.1667
 3896W        W22100  15.633  14.627   3.450 -0.2661 -0.2584  0.1374
 3897W        W22101  17.318  11.830   0.391  0.1096 -0.0657  0.2135
 3898W        W22102  17.061   6.917  16.118  0.0794 -0.0405 -0.1186
 3899W        W22103   6.057  12.817   0.314 -0.1164  0.2745 -0.1001
 3900W        W22104   7.420   1.232  17.062  0.2463 -0.0065 -0.1078
 3901W        W22105  17.544   8.807   4.629 -0.0865  0.1980  0.2668
 3902W        W22106   5.654   3.450   0.192  0.1680 -0.0302  0.0252
 3903W        W22107   5.004  17.145  13.927 -0.1585  0.1074 -0.0113
 3904W        W22108   4.185  14.012  17.239  0.2198  0.1581 -0.1540
 3905W        W22109  10.635  12.517   4.303 -0.2906  0.0005  0.4328
 3906W        W22110  15.489   2.974  16.551  0.0832 -0.2034 -0.1917
 3907W        W22111  12.855  14.564   5.891  0.1439 -0.0743  0.2294
 3908W        W22112   1.733  12.436   5.325 -0.1092 -0.0066 -0.0526
 3909W        W22113   7.593   5.189  13.336 -0.1606 -0.3775 -0.2714
 3910W        W22114   6.864  14.555  14.293  0.1573 -0.3185  0.1083
 3911W        W22115   1.043  11.145   3.565 -0.3385 -0.1877 -0.0437
 3912W        W22116  13.519  15.348   0.358  0.0001  0.0415  0.0219
 3913W        W22117   1.211   7.577  16.442  0.0089  0.4453  0.1905
 3914W        W22118   1.104   2.132  13.500 -0.1707 -0.0700  0.3132
 3915W        W22119  12.648  10.413  15.511 -0.2936  0.0137  0.0780
 3916W        W22120   6.496   6.276   3.118 -0.3289  0.0652 -0.1889
 3917W        W22121  15.743  10.553   2.417  0.2015 -0.2019  0.0043
 3918W        W22122   8.090  14.199  12.375  0.2353 -0.4304  0.1505
 3919W        W22123   5.321   7.574  16.370  0.1164  0.1545 -0.0922
 3920W        W22124  15.216   6.758  14.036  0.0037 -0.1482 -0.2195
 3921W        W22125  15.700   0.492  14.791 -0.2045  0.0122 -0.2463
 3922W        W22126   3.733  13.266   0.786  0.3198  0.0980 -0.1192
 3923W        W22127   2.467  14.152  12.289  0.0241 -0.1095 -0.1627
 3924W        W22128   5.233   9.098  13.352 -0.0684  0.1402 -0.2507
 3925W        W22129  13.253  16.711   4.261  0.1033 -0.0409 -0.2450
 3926W        W22130  16.737   1.573  16.254  0.1842 -0.0336 -0.1841
 3927W        W22131   7.445  17.004   4.970  0.3182  0.2463  0.1698
 3928W        W22132   1.975  13.286  15.593  0.0827 -0.0642 -0.3189
 3929W        W22133   8.474   6.005  14.086 -0.1333 -0.0737 -0.1591
 3930W        W22134  15.425   1.676   4.547  0.2014 -0.2533 -0.0326
 3931W        W22135  14.124   2.728  15.883 -0.3317 -0.1703 -0.1917
 3932W        W22136   4.000   9.003  16.616 -0.0735 -0.2387  0.0867
 3933W        W22137   5.449   6.605  13.419  0.2820  0.0525  0.0823
 3934W        W22138   6.740   3.430   3.263 -0.0648 -0.0262 -0.2912
 3935W        W22139  12.131   4.997  14.116  0.2186  0.0566 -0.3957
 3936W        W22140   6.683  16.567  14.387  0.1834 -0.2214 -0.0675
 3937W        W22141   8.949  10.880   2.866 -0.3772  0.0097  0.3412
 3938W        W22142  13.038   2.467  14.170  0.3887 -0.2203  0.0359
 3939W        W22143  11.842   5.146  15.297  0.2324 -0.0238 -0.0809
 3940W        W22144  16.153  12.673  16.359 -0.1445  0.2563 -0.2220
 3941W        W22145   5.057  12.541   4.407  0.1540  0.1147  0.1551
 3942W        W22146   9.302  10.590  13.896 -0.0285 -0.1816  0.3428
 3943W        W22147  14.658  17.280  14.833  0.0018 -0.1415 -0.1766
 3944W        W22148   5.874   4.780  13.235  0.1642 -0.2159  0.0788
 3945W        W22149  16.238  12.514  11.961 -0.0115 -0.2914 -0.2062
 3946W        W22150  14.294  11.692  17.182 -0.6407  0.1307  0.1217
 3947W        W22151   0.375   7.232   0.435 -0.2783  0.1439  0.1543
 3948W        W22152   0.074   8.372   0.674  0.0533 -0.0355 -0.0239
 3949W        W22153   6.801   1.570  13.251  0.1524 -0.3060  0.2028
 3950W        W22154  17.540  15.570  15.316  0.2491  0.0820 -0.2609
 3951W        W22155  17.388   5.680   2.598 -0.0634  0.2030  0.2325
 3952W        W22156   2.711   5.381  13.126  0.3862  0.0365  0.3506
 3953W        W22157   6.402   0.889  13.441  0.2178  0.3015  0.0999
 3954W        W22158   6.666   9.185  12.929 -0.0832 -0.2668 -0.2417
 3955W        W22159   3.733   5.396   1.279  0.2622  0.0264 -0.0665
 3956W        W22160  14.534  10.284  15.499 -0.3377  0.0467 -0.0963
 3957W        W22161  15.746   7.450  13.098  0.2207  0.1573  0.1684
 3958W        W22162   4.427  16.152   1.284  0.0655  0.0074  0.1618
 3959W        W22163   9.149   2.541   0.605 -0.1897  0.2400  0.0588
 3960W        W22164   5.127   3.436  15.181 -0.0019  0.0148  0.2408
 3961W        W22165  10.629   6.764   0.305  0.2415  0.1824 -0.0581
 3962W        W22166  10.075   4.007   3.343  0.1702 -0.0322  0.0143
 3963W        W22167  16.594   9.575   1.476  0.1472  0.0093  0.0343
 3964W        W22168   1.907  10.262  14.003  0.1424  0.1299 -0.3252
 3965W        W22169   3.547   1.288  11.772 -0.4086 -0.0958  0.7335
 3966W        W22170  12.213  16.975   2.530 -0.0249 -0.2602  0.0617
 3967W        W22171   7.981   6.395  13.124 -0.1026 -0.0658  0.1402
 3968W        W22172   4.545   9.040   3.608 -0.2384  0.0286  0.2420
 3969W        W22173  17.374   2.315  15.119 -0.0706 -0.0061  0.3784
 3970W        W22174  16.513   1.203  15.222  0.0743  0.0765  0.1698
 3971W        W22175   5.519  13.026   0.995  0.2800  0.0532  0.3447
 3972W        W22176   1.308  10.679   4.731  0.1189  0.1356 -0.0797
 3973W        W22177  11.473   3.721  14.571 -0.1608  0.0687  0.1410
 3974W        W22178  17.484  14.288  12.310 -0.0266  0.1683  0.0425
 3975W        W22179  15.610   4.422  16.663 -0.2366 -0.1039  0.0343
 3976W        W22180   2.694   4.648   4.726  0.0979  0.0984 -0.0283
 3977W        W22181  11.305   4.693   2.802 -0.0130  0.0958  0.1873
 3978W        W22182   2.847   1.471   4.850  0.0319  0.0404 -0.1663
 3979W        W22183   5.926   5.853   0.897 -0.2930 -0.1644  0.0203
 3980W        W22184   0.526  13.457   3.053 -0.0557 -0.0202  0.0800
 3981W        W22185   9.821   7.329   2.385 -0.1612 -0.2767 -0.0650
 3982W        W22186  10.860   7.374  13.968  0.1356  0.1631  0.0958
 3983W        W22187  10.875  15.944  12.746  0.0963 -0.2496 -0.0842
 3984W        W22188   9.834   5.315   2.669 -0.2069 -0.2558  0.1115
 3985W        W22189   9.687   8.964  15.727 -0.2105 -0.1263 -0.0705
 3986W        W22190  14.913   0.251  15.955  0.1388 -0.2697  0.0204
 3987W        W22191  16.182   0.917   0.479 -0.0429 -0.1620  0.2669
 3988W        W22192   6.140   0.494   4.333 -0.0776  0.0836 -0.0734
 3989W        W22193  13.763  13.554   0.698  0.0853  0.1398  0.2022
 3990W        W22194  14.670   7.370   3.311  0.2179  0.2611  0.2304
 3991W        W22195   3.051   0.227  14.448 -0.0377 -0.1112 -0.0916
 3992W        W22196   5.249  13.851  13.036  0.2529  0.0239 -0.0752
 3993W        W22197   6.479  14.112  12.605 -0.0994  0.3919 -0.3681
 3994W        W22198  10.913   3.806  14.517  0.5608 -0.0902 -0.1217
 3995W        W22199   6.540   9.196   1.862  0.1807  0.2307 -0.3567
 3996W        W22200   6.404  17.320  14.962 -0.2014  0.1482  0.0507
 3997W        W22201   7.079  14.989   0.061 -0.1840  0.1461  0.0402
 3998W        W22202  16.795   3.675   2.393 -0.2572 -0.3367 -0.0261
 3999W        W22203  15.080  11.947  14.299  0.3740 -0.0218  0.0706
 4000W        W22204   9.354   8.282   0.685 -0.0390 -0.1815  0.0091
 4001W        W22205   2.967  15.709  16.343 -0.0259 -0.3510 -0.0183
 4002W        W22206   6.494  13.668  16.228 -0.2311  0.0140 -0.1932
 4003W        W22207  16.284  14.209  13.337  0.1331 -0.1472  0.0219
 4004W        W22208  14.574  16.306  13.926  0.0168 -0.0107 -0.0501
 4005W        W22209  10.197  14.373  17.001  0.0271 -0.0104 -0.2596
 4006W        W22210  11.504  12.447   1.242  0.2185  0.0235  0.1567
 4007W        W22211  12.138  14.699   0.277  0.3421 -0.0308 -0.4884
 4008W        W22212   1.974  12.191   3.710  0.1519 -0.0281 -0.1128
 4009W        W22213  15.652   1.311   5.990  0.0439  0.0162 -0.1298
 4010W        W22214   1.855   4.953   3.589  0.0708  0.1970 -0.1883
 4011W        W22215  14.811   0.343   1.202 -0.1342 -0.1471 -0.0873
 4012W        W22216  10.067  11.512  15.677 -0.3562  0.0893 -0.1789
 4013W        W22217  16.261  11.290   3.813 -0.2683  0.1157 -0.0329
 4014W        W22218  13.568  15.345   1.274 -0.0423  0.0165 -0.0196
 4015W        W22219   8.801  14.449  13.422  0.1033  0.2930  0.2786
 4016W        W22220   4.531   6.755   3.555 -0.1551 -0.2791 -0.1379
 4017W        W22221   8.777  14.272  14.331  0.3781  0.0542  0.0018
 4018W        W22222  11.748   9.264   3.059 -0.0912 -0.1751  0.1970
 4019W        W22223   7.379  12.232   2.342 -0.0354  0.2420 -0.0860
 4020W        W22224  14.451   5.440  14.463 -0.1057  0.0439 -0.3252
 4021W        W22225   0.264   0.540   1.375 -0.5016 -0.0030  0.0110
 4022W        W22226   3.956   1.544   2.550  0.0415  0.3319  0.4313
 4023W        W22227  17.477  15.380  12.888  0.2589 -0.1622  0.3237
 4024W        W22228   6.283  12.977   3.739 -0.1186  0.0904  0.1846
 4025W        W22229   7.221   4.436   1.834 -0.0477  0.2551  0.0758
 4026W        W22230   2.151  10.460   3.868  0.1974 -0.0849 -0.1789
 4027W        W22231   8.748  10.214  12.036 -0.1867 -0.2023 -0.1284
 4028W        W22232  13.383   3.595   3.420  0.0684  0.1490 -0.0629
 4029W        W22233  17.213   1.595  14.756  0.2594  0.0371 -0.0782
 4030W        W22234   8.589   8.885   4.778  0.1986 -0.0867 -0.0247
 4031W        W22235  13.586   9.944   5.072  0.1126 -0.0586  0.2993
 4032W        W22236  13.007   7.087   4.051 -0.2281  0.1852 -0.1686
 4033W        W22237   7.191   6.579  13.985 -0.0610 -0.0492 -0.0439
 4034W        W22238  12.747   6.700   3.742 -0.1848  0.0375  0.1557
 4035W        W22239  13.731   5.018   5.690 -0.0051  0.1566  0.0351
 4036W        W22240   2.565  16.387  14.140  0.1135  0.1350  0.2870
 4037W        W22241  12.890  13.844  12.219 -0.1825  0.0889 -0.0639
 4038W        W22242   3.944  15.694   3.139 -0.0804  0.2942 -0.3158
 4039W        W22243   6.964  11.628  15.796 -0.1508 -0.0907  0.0431
 4040W        W22244   5.556   8.353  14.799  0.0107  0.0940 -0.1782
 4041W        W22245  14.770  14.322   5.351  0.1744  0.0060  0.1576
 4042W        W22246  15.417   8.896  14.274 -0.1505 -0.1239  0.0823
 4043W        W22247   8.623   0.992   0.864 -0.0880  0.1001  0.0947
 4044W        W22248  14.511   1.521   3.879 -0.1507 -0.0130 -0.3256
 4045W        W22249   2.646   8.580   3.662 -0.3077 -0.0952  0.3663
 4046W        W22250   2.929   7.056  15.792 -0.0602 -0.0603  0.0018
 4047W        W22251   6.298  14.812   0.716 -0.0667 -0.1625 -0.0024
 4048W        W22252  15.353   8.988  15.019 -0.0561  0.1800 -0.0778
 4049W        W22253  14.418   7.962  16.860 -0.0494 -0.0730  0.0802
 4050W        W22254  13.248   7.579   1.046 -0.2598  0.0572  0.1622
 4051W        W22255   6.770  14.210   2.260  0.3809  0.0037  0.0926
 4052W        W22256   1.474   8.943  14.516  0.1067 -0.1957 -0.2099
 4053W        W22257  11.774  16.390   1.017 -0.0958 -0.0648  0.1813
 4054W        W22258  11.128   5.503   2.616 -0.1033  0.4217 -0.2538
 4055W        W22259   2.487  10.390   5.283  0.2044  0.2567 -0.0894
 4056W        W22260   5.248   8.427  16.866  0.0542 -0.0791  0.1251
 4057W        W22261  15.161  13.739   0.966  0.0440  0.0629  0.1171
 4058W        W22262  14.380   2.890  17.190 -0.0129 -0.0793  0.1858
 4059W        W22263   8.023  16.655   0.835 -0.3675 -0.0114  0.0114
 4060W        W22264  16.246   0.193  15.396  0.1747  0.2242 -0.0532
 4061W        W22265  16.221  10.608  16.655 -0.0132  0.1082  0.1169
 4062W        W22266  13.841  10.768  11.865  0.1873  0.1180  0.3787
 4063W        W22267   7.276   5.540  13.471  0.1199  0.1170 -0.1116
 4064W        W22268  10.576   4.533   2.703 -0.0837  0.0272 -0.0981
 4065W        W22269   8.392  11.580   2.714 -0.2856  0.1972 -0.3209
 4066W        W22270   7.457   3.950   2.661  0.2526 -0.3244 -0.1641
 4067W        W22271   5.412   5.201  13.315  0.2144 -0.1435  0.2152
 4068W        W22272  16.485   8.449  12.817  0.1845 -0.2851 -0.2509
 4069W        W22273   3.899  12.038   2.162  0.0595 -0.0382 -0.0347
 4070W        W22274   9.609   6.067  16.190  0.0990 -0.0666 -0.4638
 4071W        W22275   3.175   9.364  16.758 -0.0125 -0.1563 -0.1680
 4072W        W22276   1.834   8.091  16.709 -0.2095  0.0043  0.2205
 4073W        W22277  15.333  12.010   0.600 -0.3039 -0.0065  0.1260
 4074W        W22278   9.621   3.831   5.080 -0.1939 -0.1825  0.2996
 4075W        W22279  10.338   0.896  13.149 -0.0334  0.0477 -0.1118
 4076W        W22280   4.498  11.125  12.151  0.3512  0.0848  0.0401
 4077W        W22281   2.549   1.455   1.890  0.0431 -0.2493  0.3448
 4078W        W22282  13.988  10.834   0.344  0.1902  0.1930  0.0308
 4079W        W22283  17.301   7.219  14.663  0.2268  0.1604  0.1617
 4080W        W22284   8.013  13.249  15.930 -0.1078 -0.3953 -0.0049
 4081W        W22285  12.673   9.252   4.323 -0.0906 -0.1097  0.2402
 4082W        W22286   3.057   2.014  14.317 -0.1537 -0.0559 -0.0859
 4083W        W22287  11.601   1.315   3.915 -0.1795  0.1168 -0.0772
 4084W        W22288  13.536   3.514  13.465 -0.2071  0.2093 -0.0668
 4085W        W22289  15.668   3.444  13.923  0.0700  0.0257 -0.2612
 4086W        W22290   9.071   3.701   5.205 -0.3110  0.2605  0.1510
 4087W        W22291   0.799   2.922   6.378 -0.0785 -0.0797 -0.1210
 4088W        W22292  14.753  15.051   0.847 -0.0583  0.2465 -0.1858
 4089W        W22293  16.384  15.905   1.592 -0.0857  0.1224 -0.0992
 4090W        W22294  12.326  10.672  13.216  0.2320  0.1213 -0.2339
 4091W        W22295   8.626  12.090   3.078 -0.2704  0.0107  0.0592
 4092W        W22296  11.686   2.107  15.836  0.3414 -0.1880 -0.2028
 4093W        W22297  11.638   4.575  14.446  0.1303  0.0423  0.0921
 4094W        W22298  12.205   4.437  16.377 -0.1866 -0.1678  0.0299
 4095W        W22299  11.901  14.093  15.411 -0.1925  0.2236  0.0460
 4096W        W22300  12.234   0.185   3.708  0.1660 -0.2349  0.4029
 4097W        W22301  10.078  14.228   1.320 -0.1125 -0.0315 -0.1588
 4098W        W22302   4.776   4.005  14.016  0.4260 -0.5221  0.0285
 4099W        W22303   0.037   4.590   0.682 -0.0449  0.0051  0.1149
 4100W        W22304   0.216   4.219   1.157 -0.1072 -0.1889 -0.0788
 4101W        W22305  15.214   9.764  14.269 -0.1781  0.0576  0.1082
 4102W        W22306  15.478   9.940   2.052 -0.0526  0.2750  0.0946
 4103W        W22307  15.454   1.472  14.808  0.0382 -0.0154 -0.0187
 4104W        W22308   8.491   0.802   3.848  0.0399 -0.1443 -0.1731
 4105W        W22309  14.401  16.019   4.057  0.0456 -0.1103 -0.0260
 4106W        W22310  14.734   7.494  14.399  0.0737 -0.0393 -0.0612
 4107W        W22311   6.466  15.269   3.281 -0.2373 -0.3293 -0.2759
 4108W        W22312  17.298  12.975  16.370  0.1355 -0.0588 -0.1109
 4109W        W22313   1.796   8.625   3.838 -0.1121  0.1955 -0.0993
 4110W        W22314  12.205  17.289  14.681  0.2111  0.1678 -0.1042
 4111W        W22315   3.607  12.533   3.417  0.0692 -0.1632 -0.1488
 4112W        W22316  14.384   1.143  13.744  0.3495  0.1194 -0.0154
 4113W        W22317  11.517   1.989  14.761  0.1651  0.0487 -0.0997
 4114W        W22318   5.795  14.477  16.345 -0.0016  0.0560  0.0142
 4115W        W22319  12.967   5.715   3.362 -0.0979 -0.1269  0.1045
 4116W        W22320  13.983  12.445   3.688  0.0439  0.3085  0.1364
 4117W        W22321  15.400   7.922  12.441  0.0111  0.0334  0.2908
 4118W        W22322  10.766   7.810   3.032 -0.0174 -0.1510 -0.0573
 4119W        W22323  10.092  15.607   4.561 -0.2765  0.0374 -0.0293
 4120W        W22324   6.793  13.123   4.694  0.2125 -0.0270  0.0956
 4121W        W22325  10.558  11.284  16.580  0.1011 -0.1102 -0.0398
 4122W        W22326  12.434   3.642   2.048  0.0452 -0.0436 -0.2073
 4123W        W22327   5.839   0.956  13.237  0.0224  0.1091 -0.0423
 4124W        W22328  12.496   4.164  16.649  0.2050  0.2618  0.2951
 4125W        W22329   7.889   9.139   0.222  0.1271 -0.0292 -0.0727
 4126W        W22330  16.221   3.162  15.548  0.0080 -0.3268  0.2183
 4127W        W22331  11.890  16.687   2.234  0.0800 -0.1241 -0.1058
 4128W        W22332  11.585  10.919   2.820 -0.1766  0.1704 -0.0451
 4129W        W22333  10.295  11.338  11.901  0.0907 -0.2959 -0.2987
 4130W        W22334  12.526   4.149   1.938 -0.1056  0.0012 -0.0862
 4131W        W22335   4.323  16.899   2.150 -0.3296 -0.0716 -0.0172
 4132W        W22336   1.108  11.283   0.088  0.0594 -0.1329 -0.2477
 4133W        W22337  17.249  12.916   4.353  0.1393 -0.0302 -0.2216
 4134W        W22338  15.222   2.073   4.210 -0.1478 -0.0034  0.2547
 4135W        W22339   8.931   5.748  13.754 -0.2150 -0.2003  0.3454
 4136W        W22340  16.545  10.678   1.102  0.1331  0.0756 -0.1335
 4137W        W22341   2.555  13.791  14.992 -0.3897  0.1039  0.0446
 4138W        W22342   8.958   0.647  14.898 -0.0589 -0.0198 -0.0575
 4139W        W22343  16.468   7.865   0.000  0.2635 -0.0167  0.0589
 4140W        W22344  14.078   5.281   0.687 -0.0955  0.0594  0.0552
 4141W        W22345   5.101  13.709   4.503  0.2185 -0.0816 -0.0250
 4142W        W22346  14.761   1.574   5.908  0.0794 -0.1213 -0.1666
 4143W        W22347  17.455   3.715   4.562 -0.0777 -0.1441 -0.1171
 4144W        W22348   0.884   2.139   2.153 -0.0187  0.0343 -0.4872
 4145W        W22349   5.806  15.236   4.687 -0.1532 -0.2284 -0.0190
 4146W        W22350   4.779   4.515   3.135 -0.2051  0.3056  0.2459
 4147W        W22351   0.990   4.957   5.100  0.0719 -0.3343  0.1312
 4148W        W22352  11.249   6.615  16.592  0.0452 -0.1363 -0.1661
 4149W        W22353  14.435   9.881   3.184 -0.4024 -0.0980  0.0974
 4150W        W22354  11.508   4.243  12.637 -0.1869  0.1878 -0.0958
 4151W        W22355   4.405  12.293  14.085 -0.2550 -0.0411  0.2808
 4152W        W22356   5.577  13.446  16.307  0.3280 -0.0353 -0.2745
 4153W        W22357   7.814   6.576  12.382 -0.3216 -0.2465 -0.4126
 4154W        W22358  16.687   2.877   1.296 -0.1753 -0.1092 -0.1327
 4155W        W22359   9.832  13.993   0.723 -0.3309  0.3222  0.0656
 4156W        W22360   7.269   0.875   4.841  0.0365  0.0170  0.0671
 4157W        W22361  14.344  10.125  13.542 -0.0903 -0.0194  0.1585
 4158W        W22362   5.478   2.367  14.795 -0.0263  0.0180 -0.3859
 4159W        W22363  16.497   9.551   5.327  0.0299 -0.5542 -0.2727
 4160W        W22364   5.687   5.638   4.982  0.1242 -0.2095  0.2385
 4161W        W22365   3.234  15.040   2.180 -0.1122  0.0681 -0.2521
 4162W        W22366   7.549  14.624  16.655 -0.1131  0.2177  0.1235
 4163W        W22367  11.312   5.035  13.440  0.3968 -0.2248  0.0812
 4164W        W22368   8.544   9.661  16.997  0.1342  0.2529  0.1256
 4165W        W22369   9.922  13.419   1.737  0.0634  0.0665 -0.0687
 4166W        W22370   4.015  14.184  11.159  0.1724 -0.2173  0.3774
 4167W        W22371   7.789   5.314   3.434  0.0328  0.1388 -0.2997
 4168W        W22372  15.391   8.035  13.653 -0.0237 -0.1505  0.2409
 4169W        W22373  12.182   5.422  15.972  0.0695  0.1334 -0.0148
 4170W        W22374  13.552   7.107  16.397 -0.1714 -0.1838  0.2219
 4171W        W22375  11.034   6.046  16.234 -0.0375  0.1413 -0.2850
 4172W        W22376   9.420   9.932  12.284  0.2224 -0.1963 -0.0298
 4173W        W22377   0.717  16.189  14.400  0.2271 -0.3456  0.0670
 4174W        W22378  12.901   9.968   4.282 -0.2671 -0.0492 -0.0596
 4175W        W22379  14.307   8.376  15.347  0.0437 -0.3265 -0.1150
 4176W        W22380  17.335   6.061  12.484  0.2928  0.1524  0.2600
 4177W        W22381  13.061  14.623  12.107  0.0158  0.0625 -0.1398
 4178W        W22382   8.689  16.802   3.578 -0.2364 -0.1469  0.0062
 4179W        W22383   8.023   0.339  14.531 -0.1243  0.1602  0.0418
 4180W        W22384  15.330  17.165   5.998 -0.0681 -0.0410 -0.0463
 4181W        W22385   6.525  12.788   2.474 -0.1244 -0.2021  0.1929
 4182W        W22386   1.923   9.802   2.711  0.1194 -0.2181 -0.0710
 4183W        W22387   3.885  12.339  12.604  0.1314  0.0436  0.0084
 4184W        W22388   2.507  10.298   3.360  0.2518 -0.1440  0.0781
 4185W        W22389   4.888  14.970  15.009 -0.0581 -0.1691  0.0061
 4186W        W22390  12.227   6.393  14.237 -0.0455  0.3221 -0.0883
 4187W        W22391  17.541  14.364   3.937  0.2418  0.0545  0.1516
 4188W        W22392   6.654  11.078  14.298 -0.0363 -0.3426 -0.1435
 4189W        W22393  13.219  10.583   2.680 -0.2042 -0.2874 -0.0253
 4190W        W22394   2.939  17.296   3.282 -0.1252 -0.1388 -0.1001
 4191W        W22395   7.246   9.552   1.453 -0.4548 -0.1343 -0.0343
 4192W        W22396  10.626  14.669   2.791 -0.1680  0.2295  0.0258
 4193W        W22397  14.463   2.676   4.034 -0.2815  0.0583 -0.1251
 4194W        W22398  17.201   2.111   2.077  0.0149  0.2220  0.0905
 4195W        W22399   3.520  14.507   5.309  0.0116  0.0607  0.3142
 4196W        W22400  14.898  16.521   1.198 -0.0818  0.2686  0.0425
 4197W        W22401  10.606  14.480  15.232 -0.3467  0.1233 -0.1647
 4198W        W22402   8.522  16.317  11.766  0.3082  0.0459  0.2024
 4199W        W22403  16.517  16.822  14.206  0.0464 -0.0474  0.3217
 4200W        W22404   4.858   9.130  16.872 -0.2855 -0.0825  0.0873
 4201W        W22405   9.453   7.338  16.701  0.2180 -0.0941  0.2674
 4202W        W22406   0.283  13.973   1.811  0.1352  0.3041 -0.1055
 4203W        W22407   9.609  17.366  12.478  0.3172  0.1192 -0.3439
 4204W        W22408   7.205   2.372  16.252  0.0497 -0.2463 -0.0654
 4205W        W22409  12.166  11.641  12.852  0.1178  0.2066 -0.1305
 4206W        W22410  14.175   2.374  14.888  0.3093  0.2567 -0.2801
 4207W        W22411   1.548   7.974  16.289  0.4166 -0.2722  0.1177
 4208W        W22412   2.176   6.047  13.567  0.1143 -0.0271 -0.1307
 4209W        W22413  13.286   3.944  14.393 -0.0183 -0.2549 -0.1157
 4210W        W22414  17.101   7.897   5.042  0.2902  0.1007  0.0987
 4211W        W22415   7.402   0.971  13.564  0.2725  0.2911  0.0635
 4212W        W22416   7.113   5.679  15.004 -0.2689  0.0901 -0.2054
 4213W        W22417   1.913   1.534   4.305 -0.2256 -0.3100 -0.0692
 4214W        W22418   5.080   3.053  14.419  0.1343  0.0394 -0.1629
 4215W        W22419   7.790  12.275  16.788  0.2543 -0.0591  0.0562
 4216W        W22420  15.630   5.468  13.514 -0.3692 -0.0742 -0.0417
 4217W        W22421  12.842   5.562  13.287  0.4341 -0.2825  0.2294
 4218W        W22422   0.972  15.035  12.398  0.2876 -0.2749  0.0114
 4219W        W22423  10.947   9.901  14.465 -0.1567 -0.1205  0.0052
 4220W        W22424   5.812  13.911  15.456 -0.2752 -0.0620 -0.1527
 4221W        W22425  12.666  13.217  12.025 -0.1428 -0.0694 -0.1210
 4222W        W22426   4.643  15.974  14.878  0.1386 -0.1063 -0.0459
 4223W        W22427  17.352  13.208   2.021  0.0377  0.0176  0.0307
 4224W        W22428  12.377   8.061  15.751  0.2345 -0.0948 -0.0625
 4225W        W22429   9.939   4.051  16.819  0.0512 -0.0850  0.2829
 4226W        W22430   5.067   1.468   2.479  0.3685 -0.1471 -0.2364
 4227W        W22431   6.053  10.417  13.939  0.1232 -0.0827  0.1930
 4228W        W22432   5.809   6.749   2.842  0.3257  0.0125  0.0135
 4229W        W22433   7.982   4.193  14.899 -0.0137  0.1765 -0.2262
 4230W        W22434   5.370   0.667  12.748 -0.0344  0.1889 -0.2869
 4231W        W22435   8.857  12.953  16.915  0.2776  0.3913  0.4015
 4232W        W22436  15.182  17.409   3.823  0.0348  0.3362 -0.0864
 4233W        W22437  14.004  13.006  16.832 -0.0019  0.0882 -0.0819
 4234W        W22438  14.846  16.638  12.995 -0.2085  0.3470 -0.2866
 4235W        W22439   4.969  16.829  15.193  0.0024  0.0517 -0.0367
 4236W        W22440   6.354   0.081   5.283  0.0882  0.2005 -0.0084
 4237W        W22441  13.979   3.787   3.759 -0.2764 -0.0715 -0.2132
 4238W        W22442  14.912   8.249   0.342  0.1576  0.0500  0.0262
 4239W        W22443   3.790  12.462  12.049 -0.0147  0.0795  0.2047
 4240W        W22444   0.167   9.850  13.038 -0.3400 -0.2440  0.2120
 4241W        W22445   1.218  14.514   3.111  0.0241  0.0734  0.0252
 4242W        W22446   1.992  16.025  12.220 -0.1855 -0.0982  0.5203
 4243W        W22447  10.589   0.928  14.980  0.4778 -0.1761  0.0879
 4244W        W22448   5.851   2.506   3.565 -0.0547 -0.0258  0.2879
 4245W        W22449   1.257   3.131   0.243  0.3112  0.1876  0.2516
 4246W        W22450   3.540   4.825   3.282 -0.0563 -0.2471  0.2623
 4247W        W22451   2.344  15.547  14.699  0.0978  0.0616  0.2634
 4248W        W22452   0.966  13.910   4.768 -0.0047 -0.0226  0.1275
 4249W        W22453   6.899  16.122  17.286 -0.0434 -0.2930 -0.0678
 4250W        W22454  16.472   7.663  13.922 -0.0642 -0.0685  0.0833
 4251W        W22455   1.237  14.301   0.341 -0.0060 -0.1436 -0.2033
 4252W        W22456  12.001  15.440  12.874  0.0191 -0.1511 -0.1011
 4253W        W22457   5.851   2.871  16.095  0.1145 -0.0048  0.0815
 4254W        W22458   0.421  15.036   4.346  0.1532 -0.1108 -0.1641
 4255W        W22459   9.185   9.158  16.613  0.1273  0.1409 -0.0585
 4256W        W22460   1.682   1.417   2.224 -0.3498 -0.1921  0.0948
 4257W        W22461  12.140   2.923  13.557 -0.0623 -0.0116  0.1795
 4258W        W22462   7.681  12.750   0.660 -0.0624  0.0751 -0.2302
 4259W        W22463  14.852  14.179   0.985 -0.0977  0.1229  0.1688
 4260W        W22464   0.541  13.527  13.514  0.1070  0.0924 -0.0692
 4261W        W22465   1.766  12.345  15.562 -0.2176  0.0037  0.0605
 4262W        W22466   4.673   5.130   2.227 -0.0360 -0.1170  0.2926
 4263W        W22467   1.022  15.551   1.099 -0.1748  0.1866 -0.2554
 4264W        W22468  10.967   1.731   4.754 -0.1562 -0.0220  0.1502
 4265W        W22469   1.609   4.618   1.390  0.2930 -0.0931 -0.0194
 4266W        W22470  16.170   4.941   1.684  0.1519  0.1660  0.2548
 4267W        W22471  15.393   9.469   3.500 -0.0728  0.2463 -0.1245
 4268W        W22472   5.044  15.652  15.774 -0.1347 -0.2245  0.2949
 4269W        W22473  11.591   2.069   2.719  0.1513  0.1873  0.1394
 4270W        W22474   3.968  14.369  16.626 -0.3528 -0.6030  0.0284
 4271W        W22475   6.225   9.172  13.771  0.0249  0.1063 -0.0757
 4272W        W22476   0.291   4.049  13.889  0.0483  0.4588  0.1006
 4273W        W22477  16.659  11.143   0.106 -0.1158 -0.0160  0.1241
 4274W        W22478  12.325   6.319  17.076 -0.0750  0.0702 -0.0666
 4275W        W22479   6.794  11.791  12.241 -0.1516  0.1648 -0.2775
 4276W        W22480  11.259   3.414  14.873  0.2325 -0.0028  0.2607
 4277W        W22481  10.872   2.513  13.133  0.2511 -0.1513 -0.3205
 4278W        W22482   5.507   9.255  11.654 -0.0610 -0.1967  0.0557
 4279W        W22483   0.534   9.993   3.201  0.1132 -0.0630 -0.2468
 4280W        W22484   7.975   8.099  12.200  0.0128  0.0746 -0.4107
 4281W        W22485   3.014   4.064   0.485 -0.2390  0.1085  0.0462
 4282W        W22486   3.520  13.038  12.009  0.0940 -0.0503  0.4410
 4283W        W22487   8.150   4.260   4.862  0.1859  0.1529 -0.0137
 4284W        W22488  13.221   7.996   5.636  0.1584  0.1667  0.2835
 4285W        W22489   5.215  12.102  17.042 -0.0820  0.2571  0.1792
 4286W        W22490  12.387  16.848   5.060  0.0070 -0.0093  0.5607
 4287W        W22491  13.498   2.848   0.641  0.1863  0.0345 -0.1440
 4288W        W22492  10.290  13.293   2.266  0.0089 -0.0534  0.2264
 4289W        W22493   1.605  13.871  14.285  0.1269 -0.1923 -0.0805
 4290W        W22494  12.588  10.321  12.075 -0.0071 -0.1384 -0.0798
 4291W        W22495  15.541   3.218  13.095 -0.0986 -0.1559 -0.0768
 4292W        W22496   8.931  11.884   1.638  0.2733 -0.2178 -0.0637
 4293W        W22497   3.457   1.268   1.839 -0.2818  0.0377  0.2609
 4294W        W22498   9.661  10.344   2.028  0.1159  0.1284 -0.0251
 4295W        W22499   6.530   6.765   3.406 -0.1649 -0.0009 -0.1942
 4296W        W22500  12.433  14.077  11.998  0.1259  0.0599 -0.2216
 4297W        W22501  10.112  15.892   4.082  0.2256  0.0488  0.0104
 4298W        W22502  14.930   7.428   0.971  0.2157  0.3607  0.1086
 4299W        W22503  16.119   5.979   3.932  0.2254  0.2257  0.0715
 4300W        W22504   6.827  13.815  16.887 -0.1976  0.1191  0.0813
 4301W        W22505   7.572   4.807   4.630  0.0062  0.0411 -0.6033
 4302W        W22506  13.448   3.555  12.898 -0.2423  0.4415  0.0034
 4303W        W22507  17.251   1.814  15.188  0.0167  0.0540 -0.0819
 4304W        W22508  11.473  15.762   3.918  0.3699  0.1577 -0.1082
 4305W        W22509   0.712  13.456  16.141  0.2220  0.0570  0.1400
 4306W        W22510  17.110   7.793   0.664 -0.1293  0.3273 -0.2739
 4307W        W22511   7.950   6.836  14.659  0.1304  0.0745 -0.2391
 4308W        W22512   8.405  10.097  16.187  0.1744  0.1886  0.1263
 4309W        W22513   2.542   5.109   2.809  0.1846  0.3166  0.0754
 4310W        W22514  14.949   5.143  15.806  0.0339 -0.1092  0.0605
 4311W        W22515  10.785   5.382   1.514  0.1159  0.1259  0.3429
 4312W        W22516  12.598   9.033   3.461  0.2351  0.4313  0.0347
 4313W        W22517   2.004  17.408   4.824 -0.1264  0.2429 -0.1104
 4314W        W22518  12.027   2.419  17.110  0.3637  0.3797  0.1366
 4315W        W22519   8.542   1.322  14.825 -0.0280 -0.0375  0.1662
 4316W        W22520   3.048   2.552  13.492  0.2842  0.0756  0.0852
 4317W        W22521  10.420   5.683   1.619 -0.0736 -0.2671  0.1609
 4318W        W22522   5.474   2.893  16.576  0.1889 -0.0762  0.0101
 4319W        W22523   0.637   6.064   0.613 -0.1628  0.1948  0.3540
 4320W        W22524   0.316  10.961   1.003 -0.1589 -0.0423 -0.1337
 4321W        W22525  13.437  12.739  12.191  0.0517 -0.1464  0.0217
 4322W        W22526  15.281  14.300   5.076  0.0134 -0.1148  0.0482
 4323W        W22527   6.647   2.951  12.843  0.3442  0.0016 -0.3443
 4324W        W22528   1.125   1.487  15.386  0.2727 -0.3830 -0.1280
 4325W        W22529  10.553   4.666  13.366  0.0884  0.0562 -0.0632
 4326W        W22530  17.372  12.045  13.374 -0.2272 -0.0124  0.1017
 4327W        W22531  10.251   3.669  15.608  0.0268 -0.2425  0.1891
 4328W        W22532   3.456  14.417   3.724 -0.2275 -0.2612 -0.0984
 4329W        W22533  14.486  12.964  13.867 -0.0147  0.3099  0.2737
 4330W        W22534   2.659  13.686  14.483  0.0617  0.0252 -0.2212
 4331W        W22535   1.182   9.426   3.605 -0.0178 -0.1893 -0.0232
 4332W        W22536   2.588  15.316   0.356  0.1083  0.0892 -0.1589
 4333W        W22537   5.260  11.610  16.590 -0.0706 -0.3107  0.0703
 4334W        W22538  17.032   2.073  16.277  0.0827 -0.0462  0.0773
 4335W        W22539  11.629  10.361   4.799 -0.1216  0.1327  0.0084
 4336W        W22540   3.670  10.857  16.298 -0.2315 -0.1709 -0.0577
 4337W        W22541   1.942   7.282   2.705  0.1871 -0.1115 -0.0735
 4338W        W22542  11.928  12.871   2.164  0.1248  0.1475 -0.2770
 4339W        W22543   8.948  10.672  14.786 -0.0364  0.1447  0.1781
 4340W        W22544   1.874   4.079   6.294 -0.1935 -0.0279  0.1177
 4341W        W22545   4.068   9.227  17.135  0.0000 -0.1512 -0.3232
 4342W        W22546   2.273  10.480   1.371 -0.1048  0.0571  0.0653
 4343W        W22547  13.603  15.612   0.826 -0.0729  0.0275  0.0820
 4344W        W22548   6.287  12.933  14.447  0.0466  0.0378  0.1182
 4345W        W22549  10.701   7.920   4.983  0.4830 -0.0470 -0.1359
 4346W        W22550  16.888  15.396  13.632  0.0325 -0.3034 -0.1099
 4347W        W22551   3.609  16.089   1.129  0.0829 -0.1888  0.1536
 4348W        W22552  13.764   6.094  14.659  0.1519  0.1814 -0.0314
 4349W        W22553  12.978   0.217  13.059  0.1373 -0.2886  0.1785
 4350W        W22554   0.087  17.328   4.383 -0.2926  0.1060 -0.1220
 4351W        W22555   7.702  16.521   1.689 -0.4673  0.2866 -0.0661
 4352W        W22556   2.612   2.894  14.348  0.1376 -0.2085 -0.1640
 4353W        W22557   3.689  15.136   4.556 -0.1166 -0.1755 -0.0076
 4354W        W22558   8.052  10.116  13.301  0.0013  0.1523 -0.4913
 4355W        W22559  11.959   1.855  15.126 -0.1885  0.1312  0.1642
 4356W        W22560   9.795   0.354   1.400 -0.0469 -0.1067 -0.2599
 4357W        W22561   8.216   4.832  12.863 -0.2181  0.1270  0.3759
 4358W        W22562  15.199   3.435  15.777 -0.1430 -0.0866  0.1496
 4359W        W22563  13.368  15.570  12.849 -0.1241 -0.1256 -0.1410
 4360W        W22564   5.585  12.377  14.709  0.1606  0.1405 -0.1890
 4361W        W22565  11.622   3.335   0.810  0.1169  0.0822 -0.0276
 4362W        W22566  16.321  12.989  11.822 -0.2462  0.1889  0.3011
 4363W        W22567  13.233  17.277  13.710  0.1421  0.1917 -0.1326
 4364W        W22568   3.477  10.268   4.256 -0.0825  0.0041  0.2334
 4365W        W22569  16.553   0.743  12.459  0.0331 -0.3024  0.0900
 4366W        W22570   0.486  13.975   4.548 -0.1819  0.1367 -0.1117
 4367W        W22571  14.131   8.042  12.663 -0.1824  0.1006  0.3301
 4368W        W22572   2.177  12.126  15.380  0.1648  0.0819 -0.3541
 4369W        W22573   5.707   3.502   3.125  0.0120 -0.3526  0.2738
 4370W        W22574   8.980  10.313   5.102  0.4316  0.2721 -0.4962
 4371W        W22575   9.274  10.740  12.635  0.1871 -0.0712  0.2250
 4372W        W22576  15.293  15.401  12.342  0.0791 -0.0708  0.1781
 4373W        W22577   0.054  12.882  16.000  0.0078  0.1705 -0.0787
 4374W        W22578   8.649  15.095   3.364  0.0050 -0.4394 -0.1544
 4375W        W22579   7.489   8.252  15.364  0.2078  0.0053 -0.2366
 4376W        W22580   1.114  10.543   0.724 -0.0380  0.1569  0.0198
 4377W        W22581  13.787   5.647   4.388 -0.1742 -0.0193  0.0243
 4378W        W22582  10.151   9.847  15.577  0.0024  0.2512 -0.4785
 4379W        W22583  17.283   6.550   4.961 -0.1272  0.1285 -0.2808
 4380W        W22584  11.121  17.508   5.341  0.2196 -0.1213 -0.1600
 4381W        W22585  17.212   9.428  11.468  0.2627 -0.0549 -0.2185
 4382W        W22586   9.629  10.108  15.444 -0.2861 -0.0063  0.0715
 4383W        W22587   2.506   7.733   1.568  0.0996 -0.0933 -0.2011
 4384W        W22588  10.441   1.112   4.210 -0.2097  0.3053 -0.1722
 4385W        W22589  17.037   6.691   3.715 -0.2438 -0.0361 -0.1833
 4386W        W22590   8.952   7.427   1.912 -0.0445 -0.0500  0.2119
 4387W        W22591  14.682  10.051  14.506 -0.0767  0.1057 -0.0767
 4388W        W22592  11.818   3.443  14.275 -0.1004  0.0071 -0.3072
 4389W        W22593   0.188  10.588  13.740 -0.0255  0.4217 -0.2542
 4390W        W22594   4.745  15.229   4.963 -0.2867  0.0892  0.1759
 4391W        W22595  14.373   9.345   1.872 -0.0696  0.2364  0.0192
 4392W        W22596   8.600   1.948  16.597 -0.0362 -0.1273 -0.1087
 4393W        W22597  16.167  16.250   5.590  0.0860  0.0270  0.3062
 4394W        W22598  13.031  10.538  14.604 -0.0718  0.1966 -0.2275
 4395W        W22599  10.853  16.633  14.347 -0.3627  0.0265  0.0554
 4396W        W22600  17.411   1.133  14.791  0.4985 -0.1318  0.2126
 4397W        W22601  10.520   7.038  14.785  0.2682  0.0623  0.1678
 4398W        W22602   4.690   5.324   2.714 -0.1006 -0.2020 -0.2764
 4399W        W22603  14.247   6.130  11.833  0.1820 -0.3433 -0.1770
 4400W        W22604  15.358   4.962   2.083  0.2958  0.1358  0.0158
 4401W        W22605   7.262   0.633  16.514  0.1031  0.1679  0.1521
 4402W        W22606  14.807   5.521   3.070 -0.0900 -0.0667  0.0924
 4403W        W22607  13.104   8.834   4.378 -0.0304  0.2309 -0.1024
 4404W        W22608   7.688  12.010   5.243  0.0919  0.0900  0.0318
 4405W        W22609   7.351   2.105  14.134  0.0133  0.0775  0.0447
 4406W        W22610   4.758  17.384  16.108  0.0261 -0.1329  0.1824
 4407W        W22611   9.243   5.027   4.583 -0.0515  0.0219 -0.2030
 4408W        W22612   4.002   9.765   2.634 -0.3562 -0.1104  0.0836
 4409W        W22613  12.518   3.893  12.153  0.1727 -0.1372  0.2494
 4410W        W22614   9.532  14.074  11.393  0.1197 -0.2380  0.4706
 4411W        W22615  15.647   2.435  13.684 -0.3322 -0.1687 -0.2083
 4412W        W22616  12.489  10.813  17.171 -0.1719  0.1450 -0.1003
 4413W        W22617   9.191   4.291   2.108 -0.1763  0.1061 -0.1056
 4414W        W22618   7.939   2.948   1.113  0.1434  0.0072 -0.2396
 4415W        W22619   4.709   5.652  14.565 -0.1360 -0.0290 -0.1817
 4416W        W22620  17.310  17.335  13.398 -0.0941 -0.3139  0.1235
 4417W        W22621   2.308  16.438   3.160 -0.1854  0.0380 -0.3194
 4418W        W22622  11.024  10.941  10.543  0.1089  0.1226 -0.0295
 4419W        W22623   7.236   3.659  16.193  0.2226 -0.0573  0.1138
 4420W        W22624  11.088   4.226   2.492  0.1574 -0.1872 -0.1294
 4421W        W22625  12.867   8.236  14.437 -0.0234  0.0747 -0.3439
 4422W        W22626   5.842   5.232  12.937  0.0175 -0.0535 -0.0046
 4423W        W22627   3.555  10.681  14.719 -0.0777  0.0761  0.1239
 4424W        W22628   5.688  12.499  13.287 -0.0765 -0.0467 -0.2900
 4425W        W22629   8.059   9.241   2.183  0.0234 -0.0649  0.2964
 4426W        W22630   5.726   4.741  12.692  0.1239 -0.2182  0.1694
 4427W        W22631   0.327  15.099   4.898  0.0487 -0.1889  0.1039
 4428W        W22632  11.976   9.299  15.502  0.3209 -0.0158  0.0362
 4429W        W22633   5.052   2.690  12.927  0.0225 -0.0097  0.1223
 4430W        W22634   3.324  13.208  16.276 -0.0983 -0.1491 -0.0431
 4431W        W22635   5.840  14.253  15.946 -0.2125  0.0833  0.2600
 4432W        W22636   4.817  17.289  12.538  0.1634 -0.0663  0.1447
 4433W        W22637   6.468  15.925   2.260  0.2038 -0.2229 -0.0011
 4434W        W22638   9.118  14.037  15.440 -0.0257 -0.1715 -0.1455
 4435W        W22639   4.529   1.225   0.507 -0.2463  0.1290 -0.1210
 4436W        W22640   6.903   9.139  12.042 -0.1422  0.1043  0.0564
 4437W        W22641   4.600   7.838   0.597  0.0937 -0.2431 -0.0860
 4438W        W22642  15.062   3.576  13.983 -0.3924  0.0104  0.2132
 4439W        W22643   0.904  13.991   1.724  0.1498 -0.1806  0.1593
 4440W        W22644   2.238  15.587  12.103 -0.4658 -0.2107  0.0827
 4441W        W22645  15.404   4.217  14.530 -0.0693 -0.0039  0.1969
 4442W        W22646  17.074   9.079   4.728  0.0282 -0.0299 -0.0862
 4443W        W22647  13.199   6.304   2.582  0.4249 -0.0720  0.1175
 4444W        W22648   7.460   2.826  16.180 -0.0914  0.0515  0.3899
 4445W        W22649  10.027   1.321   0.224 -0.2668  0.2991  0.2718
 4446W        W22650   0.165   4.474  15.317  0.0954 -0.0393 -0.1532
 4447W        W22651   7.464   5.179  17.275 -0.2260  0.4406  0.0358
 4448W        W22652   0.103   7.272  15.013  0.1032  0.2441 -0.0838
 4449W        W22653   4.309  11.480   4.094  0.1563 -0.2663 -0.0516
 4450W        W22654   3.372   9.380  12.430 -0.1433  0.1738 -0.1026
 4451W        W22655  12.542  12.557  12.669 -0.0916 -0.1809  0.0541
 4452W        W22656  13.588   0.396   5.038  0.2126  0.0746 -0.1222
 4453W        W22657  10.586  11.694  15.751  0.0213  0.0238 -0.3661
 4454W        W22658  13.864   1.871   1.018  0.0868  0.0908 -0.2357
 4455W        W22659  10.861   0.463   5.491 -0.0089  0.1512  0.2134
 4456W        W22660   8.761   3.432   2.173  0.3269 -0.0349  0.1311
 4457W        W22661  16.204   4.947   2.669 -0.3133  0.2653 -0.1710
 4458W        W22662   1.471  10.169  16.326  0.1592 -0.1920 -0.3740
 4459W        W22663  16.264   6.486   5.030 -0.1684 -0.0565 -0.1181
 4460W        W22664   1.411   3.735  14.118 -0.1400 -0.0924  0.2428
 4461W        W22665  12.416  10.446   2.698 -0.3670 -0.0059  0.0240
 4462W        W22666  16.983  13.709  13.008 -0.0442 -0.2203 -0.2884
 4463W        W22667   7.337   7.945   0.592 -0.0485 -0.2144  0.1811
 4464W        W22668   9.075   4.195   1.592 -0.0486 -0.0826 -0.1939
 4465W        W22669   5.764  12.992  12.409 -0.1032  0.2331 -0.2326
 4466W        W22670   4.437  11.354   1.979  0.4082  0.1473  0.0644
 4467W        W22671  12.081  10.584   0.939  0.0170 -0.0775  0.0703
 4468W        W22672   5.404   3.359   5.114 -0.0346 -0.1323  0.0009
 4469W        W22673  12.233  17.336  12.913 -0.2209  0.0563 -0.2341
 4470W        W22674  10.830   9.382   2.825  0.0143  0.1676 -0.0252
 4471W        W22675   6.862   0.874   5.184 -0.2321  0.1995 -0.0704
 4472W        W22676   2.365   3.686   2.443  0.2552 -0.1629  0.2480
 4473W        W22677  14.559  13.882  11.240  0.1303  0.1223  0.1782
 4474W        W22678  14.787  11.982  11.576 -0.3967 -0.0252  0.0126
 4475W        W22679   7.455   3.074  12.329 -0.1625 -0.0438 -0.0521
 4476W        W22680   9.175   2.140   3.209  0.0780 -0.0417  0.1950
 4477W        W22681   7.662  13.215  10.496  0.0111 -0.0578 -0.2823
 4478W        W22682   8.609  16.083  17.117 -0.3758  0.2768 -0.2641
 4479W        W22683   7.216   6.987  15.189 -0.2400  0.3452  0.0178
 4480W        W22684  11.846   6.067   2.740 -0.2011  0.2290 -0.1590
 4481W        W22685   9.695   7.394  13.518  0.1775  0.1617  0.2304
 4482W        W22686   9.398   1.280   3.928 -0.1299 -0.2485 -0.2080
 4483W        W22687   9.217  14.171  12.385  0.0569  0.2005 -0.0211
 4484W        W22688   1.988   0.178   1.304 -0.1625 -0.0251 -0.0526
 4485W        W22689   9.257  10.108   2.282 -0.0200 -0.1815  0.0414
 4486W        W22690   7.946   3.576   1.002  0.1241 -0.1234 -0.3911
 4487W        W22691  16.046  10.640   4.410  0.2210  0.3291 -0.2176
 4488W        W22692  13.370   2.284  15.799 -0.4374  0.1574  0.0910
 4489W        W22693   4.942  11.129  16.520  0.0391  0.0509 -0.3377
 4490W        W22694  10.178   3.522   5.020 -0.1989  0.2372 -0.0653
 4491W        W22695   9.233   8.449   2.663 -0.2022  0.2008 -0.1149
 4492W        W22696   1.017   3.530  13.890  0.0374 -0.1303 -0.0286
 4493W        W22697  14.692   4.793   1.073 -0.0272 -0.3145 -0.1139
 4494W        W22698  17.003   1.454   1.675  0.0234  0.0098 -0.1615
 4495W        W22699  10.513   0.581  14.637 -0.2632 -0.0317 -0.1788
 4496W        W22700  14.572  11.303   3.212  0.0318  0.0222 -0.2415
 4497W        W22701  13.141  11.816   5.829 -0.0844 -0.0293  0.2623
 4498W        W22702   9.880   0.957   0.786 -0.0552 -0.0665 -0.0550
 4499W        W22703   8.315   1.351   0.075  0.0864  0.1378 -0.1829
 4500W        W22704  10.613  12.458  15.034  0.0047  0.2052 -0.0138
 4501W        W22705   7.964   1.458   4.282 -0.1050  0.3480  0.0324
 4502W        W22706   6.452  13.666   1.758  0.0342 -0.2323  0.1438
 4503W        W22707   2.843   1.648  12.676  0.2911  0.3451  0.2810
 4504W        W22708   0.510  11.956  15.937 -0.3258 -0.3767 -0.3741
 4505W        W22709  10.280   0.023   0.942  0.0495  0.0921 -0.3463
 4506W        W22710   6.974   6.858  12.034 -0.1649  0.1654  0.1623
 4507W        W22711   1.074   6.261  11.721  0.0536 -0.3707  0.1449
 4508W        W22712  16.887   6.326   1.187  0.0770 -0.0975 -0.2382
 4509W        W22713   9.826  16.085   0.462  0.0712  0.3139  0.1794
 4510W        W22714  13.294  11.735   4.886 -0.1899 -0.3592  0.2447
 4511W        W22715   7.500  13.805  13.105  0.1805  0.3232  0.0163
 4512W        W22716   9.550   0.891   2.065  0.1822  0.2518 -0.2326
 4513W        W22717   3.067  12.639   5.097  0.3260  0.2581  0.1096
 4514W        W22718   4.932   3.099  12.628 -0.0196  0.2102 -0.0859
 4515W        W22719   9.763   1.589   4.207  0.1757 -0.0246  0.1155
 4516W        W22720   2.880   5.149   2.043  0.0132  0.0475  0.0644
 4517W        W22721  17.035  14.012   2.390 -0.5231  0.0999  0.1475
 4518W        W22722  10.049   2.619  12.374 -0.2079 -0.1254 -0.0902
 4519W        W22723   8.980  13.204   0.938 -0.1756  0.1585  0.2331
 4520W        W22724   9.335  15.132   4.220  0.0618  0.1353  0.0246
 4521W        W22725  11.395  11.681  15.460 -0.3312  0.1172  0.2244
 4522W        W22726  10.960  14.591  12.502 -0.1695 -0.0430  0.0316
 4523W        W22727  10.835  12.055  14.654 -0.0057 -0.0428  0.0434
 4524W        W22728  13.672  11.344   0.985  0.2052 -0.2676 -0.0587
 4525W        W22729   3.058   0.289  13.641  0.1399  0.2003 -0.0974
 4526W        W22730   2.593   1.909  16.899  0.0309  0.2317  0.2606
 4527W        W22731   4.338  15.490  13.348  0.1106 -0.2994  0.3652
 4528W        W22732   0.893   7.743   5.124 -0.0284  0.1066  0.1146
 4529W        W22733   6.453   6.662   0.673 -0.1497  0.1733 -0.1732
 4530W        W22734   5.264  15.274   3.051 -0.2170  0.0996 -0.0432
 4531W        W22735  16.577  13.971   1.088  0.0113 -0.1357 -0.2685
 4532W        W22736  15.338  11.024   0.250  0.0141 -0.1203 -0.1005
 4533W        W22737   0.766   3.192  16.863 -0.1317 -0.2690 -0.2980
 4534W        W22738  16.376  11.459   4.757  0.0718 -0.2632 -0.0067
 4535W        W22739   9.788   7.802  13.248 -0.1418  0.1384 -0.0392
 4536W        W22740   1.320   5.800   3.814 -0.2688  0.0561 -0.1489
 4537W        W22741   1.784   6.101  15.231  0.0024 -0.0891  0.0280
 4538W        W22742   5.861   1.083   5.386 -0.2459  0.1576 -0.1437
 4539W        W22743   8.914   1.842  14.038  0.2274 -0.0333 -0.0451
 4540W        W22744  16.217  12.618   2.996 -0.3163 -0.4348 -0.0533
 4541W        W22745   1.578   8.284   4.141  0.0908 -0.0118  0.2176
 4542W        W22746  13.806   0.432  12.818 -0.2401 -0.2761  0.0903
 4543W        W22747  13.701   0.886  12.588 -0.2457  0.0330 -0.0080
 4544W        W22748   0.531  15.977  13.466  0.2481  0.0594  0.0570
 4545W        W22749   8.525   7.990  14.027  0.2484 -0.0568 -0.1071
 4546W        W22750   2.906  16.262  14.957 -0.2397 -0.0729 -0.4653
 4547W        W22751   6.736  15.603  13.261 -0.3335 -0.3168 -0.2892
 4548W        W22752   4.083   6.925  12.573 -0.1883  0.0613  0.2250
 4549W        W22753   7.342   1.559   3.045 -0.4334  0.2080  0.1884
 4550W        W22754   2.437  15.126  13.273  0.2405  0.1511 -0.2532
 4551W        W22755  16.583  16.726   0.873  0.3115  0.3006 -0.1176
 4552W        W22756  16.610   8.262  11.105  0.0284 -0.0293  0.0809
 4553W        W22757   4.057   9.149  13.691  0.1778 -0.2350  0.0021
 4554W        W22758  16.343  11.287  15.465  0.1388 -0.1565 -0.1026
 4555W        W22759  15.996   8.509  13.169 -0.2644 -0.0356 -0.0168
 4556W        W22760   7.252  11.743   1.551 -0.0039 -0.0443 -0.1039
 4557W        W22761   7.046  15.696  14.957  0.1180  0.0696 -0.1617
 4558W        W22762   4.302   5.432   2.369  0.0130 -0.5268 -0.1290
 4559W        W22763   8.560  13.790   2.638  0.0122 -0.0104  0.3393
 4560W        W22764  17.142   5.253   1.674  0.0262  0.1749  0.4010
 4561W        W22765   2.244  16.966  13.240 -0.0500 -0.0026  0.1191
 4562W        W22766  15.805   6.715  13.792  0.4800  0.0367  0.0310
 4563W        W22767  15.952   4.218   0.028  0.2402  0.1340  0.2657
 4564W        W22768  10.713   0.210   1.655 -0.0059  0.1404 -0.1962
 4565W        W22769  17.208   7.555   3.848  0.4728  0.0119 -0.0024
 4566W        W22770  11.855  10.536   0.475 -0.0215 -0.4284 -0.0761
 4567W        W22771   2.371   1.514  14.779  0.1471  0.1203  0.0727
 4568W        W22772  11.837   5.695  16.551  0.0588 -0.0280  0.1356
 4569W        W22773   3.745  11.793   5.691 -0.1180  0.0038  0.4069
 4570W        W22774   0.104   6.421   4.397  0.1746  0.0882 -0.1828
 4571W        W22775   4.406  12.930  13.728 -0.0714  0.0817 -0.0052
 4572W        W22776   8.573   5.847   2.321  0.0017 -0.1076 -0.1558
 4573W        W22777   3.613  13.651  12.668 -0.1613  0.4483 -0.0953
 4574W        W22778  16.932   3.811   0.890  0.1909  0.1986  0.2035
 4575W        W22779   8.496  17.315   3.720  0.1223  0.0457  0.3569
 4576W        W22780   4.643   7.052   3.959  0.2055  0.0825  0.1223
 4577W        W22781   0.035   0.380  16.923  0.1222  0.2167  0.0805
 4578W        W22782   3.813  15.341  15.678  0.0073  0.0345  0.3902
 4579W        W22783  16.714   1.188   0.301  0.2067 -0.3429  0.1695
 4580W        W22784   7.918   9.842  12.416 -0.1687  0.0405  0.1623
 4581W        W22785   2.881   7.822   1.854  0.0146 -0.0737 -0.2048
 4582W        W22786  13.571  12.911  17.111  0.1200  0.1853 -0.0189
 4583W        W22787   6.508   7.890  12.182 -0.1291 -0.1263 -0.0823
 4584W        W22788   5.719  14.824   5.025 -0.3299 -0.1051 -0.2126
 4585W        W22789  13.211   0.701  13.847  0.0628  0.0555 -0.1000
 4586W        W22790   0.630  14.031  16.874  0.0140  0.1336  0.1800
 4587W        W22791   1.050   4.066  13.891 -0.0376 -0.0191  0.0102
 4588W        W22792   9.999  10.215   1.634 -0.1686 -0.0980 -0.1399
 4589W        W22793   9.463  15.201   1.612 -0.0514 -0.0289  0.0383
 4590W        W22794   0.064   1.893  15.945  0.0708 -0.0227 -0.0294
 4591W        W22795   2.728   6.987  13.657  0.3072  0.2216  0.1570
 4592W        W22796  13.344   8.467  16.665  0.1684 -0.1905 -0.3382
 4593W        W22797  16.139  11.562  12.134  0.1993 -0.2885 -0.2762
 4594W        W22798   6.295  10.793  16.286  0.3856  0.0915 -0.0881
 4595W        W22799  17.450   9.274  15.672  0.2987  0.0561 -0.0361
 4596W        W22800  10.832   8.228  13.518 -0.0822  0.3325  0.2138
 4597W        W22801  14.470  13.249   0.975  0.2020 -0.0695  0.0756
 4598W        W22802  13.715   9.607  16.099 -0.0529 -0.1051 -0.0347
 4599W        W22803   5.609   2.505  15.313 -0.0647  0.0656 -0.3460
 4600W        W22804  12.836  11.123   5.258 -0.0891  0.2360  0.1313
 4601W        W22805   7.915   4.951   2.068  0.1071 -0.1341  0.0009
 4602W        W22806   4.230   8.326  16.566 -0.1459  0.0089  0.2594
 4603W        W22807   2.989   3.451   3.868  0.0149  0.0347  0.0683
 4604W        W22808  14.375   3.847   2.193 -0.1068 -0.1521  0.1597
 4605W        W22809   7.739   0.930  13.211 -0.2710 -0.0047  0.0543
 4606W        W22810   4.863  11.340   4.910 -0.0702 -0.2752  0.1423
 4607W        W22811  12.834  12.270  16.315  0.1403 -0.0660 -0.0443
 4608W        W22812  11.796  11.245   1.061 -0.2839 -0.1183 -0.1442
 4609W        W22813   2.158  15.677   3.260  0.3607  0.2844  0.1114
 4610W        W22814  13.055   1.860   0.727  0.2135 -0.0836 -0.2693
 4611W        W22815   1.487  15.001   5.235 -0.0984 -0.1865  0.1997
 4612W        W22816   7.981   9.714   0.409 -0.0414 -0.1142 -0.2982
 4613W        W22817   4.512  12.791  16.651  0.0193  0.2066 -0.0213
 4614W        W22818   0.045   2.141   4.777 -0.0011  0.0197 -0.0063
 4615W        W22819   2.466  13.516  15.863  0.2578 -0.0083 -0.0040
 4616W        W22820   6.672  12.263  12.575  0.1547  0.1265  0.1162
 4617W        W22821   2.159   7.952   4.874  0.0723  0.3445 -0.0955
 4618W        W22822   4.553   4.106   2.623 -0.1797  0.0308 -0.1103
 4619W        W22823   1.466   9.291  16.099 -0.4462 -0.0062 -0.3727
 4620W        W22824  12.184  13.342   0.989  0.2087  0.1280 -0.3424
 4621W        W22825  14.946  13.480   1.857  0.0096  0.0105  0.3075
 4622W        W22826  16.179  11.765   5.104  0.1953 -0.2279 -0.0308
 4623W        W22827  17.292   4.620  12.155  0.0936  0.1248 -0.2011
 4624W        W22828  14.504  14.036  13.623 -0.3299  0.5936 -0.3117
 4625W        W22829   1.709   4.296   4.715  0.3289  0.2772  0.0128
 4626W        W22830   1.211  17.193   2.806  0.0099  0.0329 -0.0149
 4627W        W22831   8.135   7.625  13.483  0.0533  0.2116  0.1184
 4628W        W22832   5.019   1.109   4.055 -0.0248 -0.2436  0.2013
 4629W        W22833  14.956   3.046  13.239  0.0700  0.2079 -0.1597
 4630W        W22834   1.405  13.025   3.697 -0.1652 -0.0341 -0.1860
 4631W        W22835   2.474  12.092   1.627 -0.4457 -0.0500 -0.1503
 4632W        W22836   3.805   1.308   1.220  0.0106 -0.1729  0.1306
 4633W        W22837  13.469  14.357  17.085  0.0216  0.1293 -0.1715
 4634W        W22838   1.001   5.507  16.520  0.1990 -0.0687  0.3198
 4635W        W22839   6.694   0.839   4.720  0.0428 -0.2695 -0.0958
 4636W        W22840   4.545   6.357   4.966  0.0661 -0.0811  0.2118
 4637W        W22841   6.980  12.001   1.129 -0.1677  0.0547 -0.1242
 4638W        W22842  15.911   9.401  12.711 -0.1026 -0.2547  0.1703
 4639W        W22843  10.039   4.116   2.018  0.1087 -0.0876 -0.2214
 4640W        W22844  13.211   0.017   1.164  0.4578  0.5375  0.3214
 4641W        W22845  11.013   0.912  13.525 -0.2382 -0.1044  0.0947
 4642W        W22846   2.565  13.986   3.825  0.5066 -0.1459 -0.1420
 4643W        W22847   5.569   5.811  16.896 -0.0230  0.1136  0.1118
 4644W        W22848   8.323  12.982  12.416  0.2175  0.0070 -0.2151
 4645W        W22849   5.325  11.235   5.062  0.3081 -0.2882 -0.0208
 4646W        W22850   3.803  15.727   0.769 -0.2302 -0.0095 -0.0498
 4647W        W22851  11.544   1.755   1.585  0.3066 -0.0369  0.0224
 4648W        W22852   7.609   8.063  14.539  0.1818  0.1521  0.0128
 4649W        W22853   9.414  11.931   0.621 -0.2163  0.2389 -0.0394
 4650W        W22854   7.974   3.647   1.486  0.0694 -0.3210  0.0901
 4651W        W22855  16.777   4.833  13.687  0.0197  0.0506  0.1790
 4652W        W22856  15.267  12.389   1.261  0.0327 -0.3408  0.2622
 4653W        W22857  16.014  14.229   3.083 -0.3793  0.1413  0.3690
 4654W        W22858   3.091   4.595  13.520 -0.2258 -0.0513 -0.1973
 4655W        W22859   8.334   0.655   1.122 -0.0302  0.1606  0.4617
 4656W        W22860   5.061   9.807  15.750 -0.1926  0.0035  0.1891
 4657W        W22861  13.840  16.213  14.700  0.0017  0.1834 -0.0076
 4658W        W22862   6.372   9.316   0.411 -0.0152 -0.3827  0.0290
 4659W        W22863   4.664   7.342   1.659 -0.0718 -0.1878 -0.0777
 4660W        W22864   9.765   4.243   4.390 -0.0781 -0.2226  0.0811
 4661W        W22865  11.879  11.573  13.241 -0.1026  0.0966  0.1156
 4662W        W22866   2.075  17.416  12.667  0.1435  0.1652  0.1237
 4663W        W22867  11.262   8.910   0.389 -0.0335 -0.1908  0.1839
 4664W        W22868   0.121  13.684  14.652  0.2026  0.1452  0.2171
 4665W        W22869   2.230   9.892  15.984  0.2335 -0.2853  0.2120
 4666W        W22870  10.409   4.251  16.813  0.0019 -0.3849  0.0295
 4667W        W22871  15.015   8.290   3.774  0.0711 -0.1982  0.0316
 4668W        W22872   2.607  14.610   5.351  0.1053 -0.1311 -0.2080
 4669W        W22873   5.498  14.729  16.627  0.1647  0.2151  0.2135
 4670W        W22874  16.637  10.945   1.542 -0.2529  0.1966  0.0983
 4671W        W22875   2.748   0.398  14.038  0.2055 -0.2015  0.0098
 4672W        W22876   7.172   5.590   4.099  0.0675  0.0206  0.4484
 4673W        W22877  12.111   8.783  12.284 -0.1070 -0.2294  0.0214
 4674W        W22878   0.961  13.473  12.161  0.1488 -0.0480 -0.1949
 4675W        W22879   3.344   0.810   1.731 -0.1809  0.2202  0.0822
 4676W        W22880   9.885  16.500  15.513  0.2492 -0.2614 -0.1494
 4677W        W22881   5.374   5.292   1.487 -0.3759 -0.0126  0.1190
 4678W        W22882  17.217   5.733  16.431 -0.2979 -0.2728 -0.0859
 4679W        W22883   4.236   0.237   0.028 -0.2108 -0.1701 -0.0661
 4680W        W22884   3.218   4.260  13.194 -0.2554  0.0708 -0.1667
 4681W        W22885   8.305  12.360  17.060  0.1966  0.5168  0.1090
 4682W        W22886  12.749   9.998  13.865 -0.1355 -0.2303 -0.0530
 4683W        W22887  16.704   0.605  15.103 -0.0491  0.0880  0.4380
 4684W        W22888   9.441   6.289  14.797 -0.0753  0.1363  0.1342
 4685W        W22889   2.330   2.089  15.321 -0.0045  0.0830 -0.0747
 4686W        W22890  16.481  13.442   1.456  0.0982 -0.2883  0.0570
 4687W        W22891  11.889   7.978   3.733  0.2171  0.1288  0.0340
 4688W        W22892  12.430  13.203  15.860  0.3107 -0.1881 -0.1783
 4689W        W22893   0.341   2.932  15.916  0.2689  0.2754 -0.0807
 4690W        W22894  14.410   7.554   0.698  0.0977 -0.0028  0.1168
 4691W        W22895   5.874  11.972  14.676  0.3800 -0.0758  0.4499
 4692W        W22896  12.610  12.795  15.711 -0.0410 -0.0110  0.1050
 4693W        W22897   8.537  11.774  10.986  0.0560 -0.0195 -0.0250
 4694W        W22898  10.492   1.816   1.271  0.1300  0.0520  0.2698
 4695W        W22899   1.497   5.307  16.383 -0.1796 -0.1253  0.0086
 4696W        W22900  10.901   9.704   4.260  0.1746  0.3061  0.1159
 4697W        W22901   8.477   4.901   1.938 -0.1881 -0.0716 -0.1613
 4698W        W22902  17.338  11.223  16.866 -0.0791 -0.2037  0.0730
 4699W        W22903  13.809  14.650   3.357 -0.0598  0.0876  0.1631
 4700W        W22904  17.309   1.881  13.160  0.1524  0.0999 -0.0971
 4701W        W22905   7.927  13.214   1.009 -0.0767 -0.1323  0.0992
 4702W        W22906   6.149  12.745   3.242 -0.1055 -0.0696 -0.0499
 4703W        W22907   8.157  10.390   0.962 -0.1630 -0.1345  0.3135
 4704W        W22908  13.733   5.595  16.070 -0.1901 -0.1189 -0.4647
 4705W        W22909  15.666   3.878  15.897 -0.1734 -0.1331 -0.2001
 4706W        W22910  14.081  13.782   4.015 -0.0936  0.3531 -0.1402
 4707W        W22911  13.244  14.246  15.714  0.2507 -0.0942  0.3071
 4708W        W22912  14.404   6.123   1.156 -0.1215  0.2597  0.0358
 4709W        W22913  13.607   7.547   3.448  0.0557  0.0853 -0.0311
 4710W        W22914   6.376  13.935  16.721 -0.0396 -0.0745 -0.0199
 4711W        W22915   0.086  16.807   2.535  0.0724 -0.4037  0.3229
 4712W        W22916   5.602   3.372  12.733 -0.0135  0.2357 -0.0812
 4713W        W22917  13.803   4.296   5.108  0.3714  0.2412  0.0331
 4714W        W22918  14.563  14.558  16.055 -0.0699 -0.2205 -0.2495
 4715W        W22919   7.363  10.853  16.171 -0.4085 -0.4475 -0.4868
 4716W        W22920   7.399  15.002   2.145  0.0842 -0.3188  0.0675
 4717W        W22921   7.989  12.100  14.588  0.2409  0.1150  0.0462
 4718W        W22922  13.989  16.331   4.257 -0.1790  0.0451  0.0039
 4719W        W22923   4.426  12.575   0.079  0.0963  0.0103 -0.0068
 4720W        W22924   9.978  10.009   0.009 -0.0564  0.3267  0.2587
 4721W        W22925   4.909  14.861   4.681 -0.1112  0.1587 -0.2030
 4722W        W22926  16.067   7.044  16.459 -0.2703 -0.0796 -0.1424
 4723W        W22927   4.840  10.876  13.838 -0.0315  0.0990 -0.1704
 4724W        W22928   1.889   2.728  13.142  0.2425 -0.4865  0.1077
 4725W        W22929  14.473  15.711   4.838  0.1138  0.2050  0.0085
 4726W        W22930  12.752  17.270  12.932  0.3590  0.1190  0.1956
 4727W        W22931  13.148   9.196   0.107  0.0853  0.0291 -0.0444
 4728W        W22932   2.453  16.358  15.144 -0.0771  0.3100  0.1616
 4729W        W22933  10.792   2.813  15.001  0.1334 -0.0791 -0.2520
 4730W        W22934  14.728  13.429  13.611  0.0981  0.0663  0.1563
 4731W        W22935   0.428  14.555   3.669  0.0306  0.1878  0.2340
 4732W        W22936   7.109  10.376  16.327  0.0273 -0.4086  0.0064
 4733W        W22937  14.141   7.279  13.867 -0.1074 -0.0886  0.0017
 4734W        W22938   3.531  16.518  16.294  0.3748  0.1391  0.1520
 4735W        W22939   3.680   7.228  13.986 -0.4877  0.0129  0.1093
 4736W        W22940   6.152   9.888  16.432 -0.0607 -0.0732 -0.2037
 4737W        W22941   2.132   4.291   5.024 -0.2203  0.0211 -0.1271
 4738W        W22942   5.875   2.840  12.657 -0.1081 -0.0984  0.0639
 4739W        W22943  11.139   9.354  14.163 -0.2024 -0.0113 -0.0899
 4740W        W22944   2.859   9.135   5.179 -0.0657 -0.0633  0.1231
 4741W        W22945   6.976  11.427   2.588  0.0340  0.0749 -0.2124
 4742W        W22946  13.062  13.599   2.005  0.0239  0.0941 -0.0927
 4743W        W22947  13.230   7.065   0.631  0.1162  0.0951 -0.0362
 4744W        W22948  12.480  15.191   3.807  0.1888 -0.0280 -0.3970
 4745W        W22949   7.590  17.517   4.087  0.1406 -0.0892  0.2741
 4746W        W22950   8.062  13.608   2.552  0.0184  0.1027  0.0768
 4747W        W22951   6.920   9.957   0.882 -0.0931  0.0555 -0.0834
 4748W        W22952  17.407  14.137  14.631 -0.1808  0.2155  0.2102
 4749W        W22953  13.304   9.667  15.463  0.0847 -0.0398 -0.0240
 4750W        W22954  10.545  16.691  17.045 -0.0684  0.0950  0.1077
 4751W        W22955  12.978   9.091   0.978 -0.0391  0.1948  0.0632
 4752W        W22956  15.873   5.666   4.968 -0.0514  0.0578 -0.0628
 4753W        W22957  11.445   0.629   0.373 -0.2171 -0.3625  0.1917
 4754W        W22958   5.363  12.149  13.041  0.1718  0.0451  0.1809
 4755W        W22959  15.426   3.393   0.494 -0.0184  0.2953 -0.1692
 4756W        W22960  11.279  14.271   4.873 -0.0401 -0.2255  0.0262
 4757W        W22961   3.479   6.828   3.565 -0.1358  0.1836  0.3043
 4758W        W22962  16.654   7.173  16.071  0.5597  0.3426  0.0015
 4759W        W22963   0.681   6.926  14.387  0.0960 -0.2598  0.3061
 4760W        W22964  14.726  13.551   4.592 -0.1624  0.0435 -0.2215
 4761W        W22965   8.700   9.082  13.722  0.1429 -0.2370  0.2451
 4762W        W22966   6.557   2.202  15.778 -0.0104 -0.1546  0.0396
 4763W        W22967   1.668   0.483  13.768 -0.2191  0.1299 -0.2137
 4764W        W22968  17.425   8.058  13.100 -0.1128 -0.2083  0.0962
 4765W        W22969   6.690  10.503  15.096  0.0485 -0.0993  0.1074
 4766W        W22970   1.897   4.726  17.185 -0.4238  0.1604  0.0312
 4767W        W22971  13.743  13.876  11.343 -0.2344  0.0865  0.0324
 4768W        W22972   1.705   1.165  16.977 -0.1714  0.2555  0.3802
 4769W        W22973  12.139   8.257  13.555 -0.1514  0.3774  0.2361
 4770W        W22974   8.976  15.237  12.630  0.1910  0.0292 -0.0891
 4771W        W22975   4.008   3.396   0.489 -0.1043 -0.0522 -0.0779
 4772W        W22976  10.984   1.153   1.285  0.0826 -0.2415  0.0441
 4773W        W22977   2.273  13.116   3.669 -0.0146 -0.0631  0.1393
 4774W        W22978   8.513   3.385  11.599 -0.4064 -0.0607  0.1724
 4775W        W22979   4.547  11.705   0.166  0.2673 -0.0584 -0.0532
 4776W        W22980  16.060   4.555  14.061 -0.2553 -0.0118  0.1083
 4777W        W22981   2.932  12.759   2.915 -0.3320 -0.3192  0.2029
 4778W        W22982   7.058   8.181   3.660  0.1583 -0.0797 -0.0754
 4779W        W22983   1.724  13.335  13.333  0.0891 -0.2079 -0.1565
 4780W        W22984   7.827   1.198  14.092  0.2377 -0.1801  0.0067
 4781W        W22985  16.163   0.436  13.135  0.0864  0.0772 -0.0181
 4782W        W22986  14.826   4.838  16.265 -0.1459  0.3276 -0.0998
 4783W        W22987  10.969  15.899  16.326 -0.1638  0.0970  0.1007
 4784W        W22988   9.232   9.420  13.255  0.1838  0.0568  0.1898
 4785W        W22989   5.755  12.479  12.276 -0.0058 -0.3783  0.0634
 4786W        W22990   4.810  13.813   0.451 -0.0507  0.0280  0.0799
 4787W        W22991   8.354  16.162  14.767 -0.1075 -0.0497 -0.2382
 4788W        W22992   4.175   8.245  13.811 -0.1265 -0.1334 -0.1810
 4789W        W22993   8.295   0.378  13.804 -0.4110  0.0584  0.1750
 4790W        W22994   0.357  17.195  16.472 -0.0123  0.1217 -0.1561
 4791W        W22995   2.636  15.458  17.177  0.2168 -0.1478 -0.0791
 4792W        W22996   7.947   9.453   4.633  0.1494  0.1000  0.1447
 4793W        W22997  13.341   4.456   3.201  0.1091  0.0295  0.2364
 4794W        W22998   3.393   9.847   2.542  0.0925 -0.1600  0.2864
 4795W        W22999  13.940  10.331   3.752  0.3539 -0.0574 -0.0066
 4796W        W23000   2.600   8.184   3.257 -0.3097  0.0344 -0.0186
 4797W        W23001   2.846  12.875   2.439  0.0304  0.1246 -0.1140
 4798W        W23002  17.132   6.815   1.091  0.0561 -0.2849  0.3688
 4799W        W23003   1.950  11.624  13.510 -0.0398  0.1894 -0.1153
 4800W        W23004   2.146  11.230  14.403 -0.0437  0.0018  0.0950
 4801W        W23005   9.543   6.132  12.298  0.1957  0.0855  0.0813
 4802W        W23006  11.818   9.859  12.158 -0.1861 -0.1748  0.4076
 4803W        W23007  10.995   1.274  15.003 -0.4290 -0.0033 -0.0643
 4804W        W23008  15.460  17.411   5.099  0.1094 -0.0260  0.0900
 4805W        W23009   0.299   9.316  16.723 -0.0560 -0.1852 -0.0386
 4806W        W23010   2.687  16.976  13.019  0.0953  0.0165  0.0783
 4807W        W23011   7.465   0.312   2.399  0.4631  0.0217  0.1663
 4808W        W23012   5.151  11.652   4.127  0.2172 -0.3365 -0.0534
 4809W        W23013   9.628   3.652   2.439 -0.2291  0.4029 -0.1968
 4810W        W23014  17.019   4.757   2.577  0.2512  0.1831  0.0025
 4811W        W23015   2.843   8.735   2.193  0.1287 -0.0958 -0.1212
 4812W        W23016  15.607  10.381  14.820 -0.2272 -0.0400 -0.0630
 4813W        W23017   1.576  15.062  15.031 -0.0633 -0.4703  0.3337
 4814W        W23018  11.934  12.104  15.384 -0.2628  0.2714  0.4765
 4815W        W23019  15.797   9.883  13.955  0.2213 -0.0717  0.0355
 4816W        W23020   1.826   5.796   3.912 -0.1652  0.2275  0.1492
 4817W        W23021  13.632  13.924  17.076 -0.1224  0.2304 -0.3028
 4818W        W23022   3.130  16.924   0.316 -0.0164  0.0711 -0.0483
 4819W        W23023   4.220   4.743  13.442 -0.0476 -0.0947 -0.1465
 4820W        W23024   9.686  13.310  15.097  0.3129 -0.2804 -0.0089
 4821W        W23025  11.158   0.323   2.395 -0.7090  0.0081 -0.1816
 4822W        W23026  10.677  16.103  13.395  0.2017  0.2962  0.2786
 4823W        W23027  14.762  15.551  13.967 -0.0713  0.1798  0.2543
 4824W        W23028   2.199   9.680  13.396  0.0434  0.2364 -0.3684
 4825W        W23029   0.576  17.451   1.704 -0.2805 -0.1052 -0.0644
 4826W        W23030   3.087  16.991  13.615  0.1114 -0.4606 -0.0347
 4827W        W23031  10.798  11.224  17.056  0.0798  0.0079 -0.1040
 4828W        W23032  10.102  12.944  15.900 -0.2711  0.1096  0.3779
 4829W        W23033   9.065   3.736  14.800  0.0617 -0.1179 -0.2527
 4830W        W23034  10.390   0.010  14.783 -0.3106  0.0195  0.1079
 4831W        W23035   8.815   1.290  13.541  0.1148 -0.2352 -0.0000
 4832W        W23036   9.765  17.494   0.186 -0.0018  0.2913  0.2773
 4833W        W23037  13.229   2.349   1.331 -0.1635 -0.3213 -0.0455
 4834W        W23038   7.136   7.330   2.836  0.2887  0.1198 -0.1352
 4835W        W23039  13.866   9.248   2.505 -0.2229  0.2313  0.0352
 4836W        W23040  12.754   5.095   4.977  0.2236 -0.0685 -0.2594
 4837W        W23041   9.818   2.545   5.320 -0.1049 -0.0985 -0.1618
 4838W        W23042  12.497   8.962  13.985 -0.0171  0.0440  0.1060
 4839W        W23043  13.463  14.861  13.562 -0.1816 -0.1949 -0.3322
 4840W        W23044  12.735  16.476   4.296 -0.3015  0.0717  0.0888
 4841W        W23045   3.681   3.912  12.305 -0.1713 -0.1121  0.0296
 4842W        W23046  13.744   3.731  16.792  0.0992 -0.0916 -0.1643
 4843W        W23047   4.309  17.334  13.379  0.1057 -0.1585 -0.5111
 4844W        W23048   9.354  12.306  13.328 -0.2164  0.0206  0.0247
 4845W        W23049  15.429   3.959   4.719 -0.0363 -0.3077  0.2547
 4846W        W23050   3.769  17.529  16.443  0.2245 -0.0711  0.0050
 4847W        W23051  14.273   0.474  14.289  0.0143 -0.0975  0.1883
 4848W        W23052   0.768   3.218   1.835  0.0317 -0.2316 -0.1153
 4849W        W23053   6.350   6.358   3.720  0.2041 -0.2542  0.1206
 4850W        W23054  13.795  11.036   4.254 -0.1492  0.1088 -0.1688
 4851W        W23055  15.748  11.056   2.367 -0.0841  0.1868  0.2298
 4852W        W23056  15.833   4.653   4.290 -0.0605 -0.0952  0.2122
 4853W        W23057  14.646   8.897  12.529 -0.1395  0.0137 -0.0302
 4854W        W23058   0.398   3.254   2.631 -0.1923  0.0912  0.3161
 4855W        W23059   6.445   7.916  16.799  0.3392  0.4388  0.4369
 4856W        W23060  13.220   3.914  15.948 -0.1437  0.1251 -0.1139
 4857W        W23061  15.046   1.599  15.476  0.1494  0.2274 -0.0305
 4858W        W23062  13.409   0.740   3.801  0.0025  0.3227 -0.4737
 4859W        W23063   0.943   2.012   0.773  0.0760  0.2172  0.0260
 4860W        W23064   8.727   0.971  17.185  0.2021 -0.1000 -0.0533
 4861W        W23065  17.370  12.114  15.241  0.2147  0.4169 -0.0441
 4862W        W23066  12.637   4.941  11.612 -0.0592 -0.2088  0.2385
 4863W        W23067   0.336  11.873   1.079  0.1908 -0.2100  0.1042
 4864W        W23068   1.360   5.898  12.112  0.0891  0.2394 -0.1297
 4865W        W23069  17.466  15.014  15.372 -0.0509  0.1202 -0.0852
 4866W        W23070   3.186   9.376   3.183 -0.0959 -0.2179  0.3026
 4867W        W23071  13.819   7.505   4.374 -0.0598 -0.1377 -0.0252
 4868W        W23072   8.529   4.353  17.080  0.3657 -0.0359  0.3594
 4869W        W23073   2.762  13.531   2.937 -0.4511  0.2591 -0.0321
 4870W        W23074  13.183   5.347   0.331 -0.1042  0.0699  0.0139
 4871W        W23075  14.600   2.151  12.797 -0.3608  0.1093 -0.0868
 4872W        W23076  10.849   4.403   3.459 -0.3669  0.0227 -0.0407
 4873W        W23077   2.861   7.580  12.390 -0.1118  0.0543  0.0681
 4874W        W23078  16.760   3.628  13.116  0.2378  0.2135  0.1148
 4875W        W23079  11.340  16.957   4.312  0.0018  0.0133 -0.3832
 4876W        W23080   8.097   4.473   3.887 -0.2356 -0.1166 -0.2740
 4877W        W23081   3.981  13.589   5.376 -0.2655 -0.0446 -0.1404
 4878W        W23082   5.749  10.069   4.683  0.1221  0.0556 -0.0739
 4879W        W23083  11.288   1.141   0.392 -0.3456 -0.1038 -0.0422
 4880W        W23084  10.572   5.491  14.618 -0.0755 -0.0612  0.2905
 4881W        W23085  15.753   1.306  13.308  0.0921 -0.0312 -0.0287
 4882W        W23086   9.939   9.010  12.495 -0.1905 -0.4233 -0.2321
 4883W        W23087   5.023  14.422   1.290  0.1725  0.2714  0.0638
 4884W        W23088   4.903  16.531   4.830  0.0719  0.0570 -0.0844
 4885W        W23089   7.901   0.163   0.347 -0.2180  0.1125  0.3325
 4886W        W23090  11.455   4.720   0.980 -0.1537  0.0491  0.0277
 4887W        W23091  14.155   6.352   1.555 -0.0141  0.0927 -0.3635
 4888W        W23092  11.128   5.469   1.088  0.3216 -0.1269 -0.2232
 4889W        W23093   0.488   5.310  17.004 -0.0894  0.1238 -0.1559
 4890W        W23094   8.355   3.300   0.884  0.1095  0.2357 -0.0269
 4891W        W23095   0.668   0.403   1.937 -0.1310 -0.1406 -0.0638
 4892W        W23096   1.493  14.043   3.120 -0.1548  0.1670 -0.6262
 4893W        W23097   0.545  16.844   4.952  0.2197  0.2074 -0.0340
 4894W        W23098   5.641  13.623   0.158 -0.0776  0.0643  0.1496
 4895W        W23099  17.538   3.259   6.622 -0.0756  0.1613 -0.0375
 4896W        W23100   1.069   3.969  16.523  0.0895 -0.0022  0.1264
 4897W        W23101   7.119   9.346  14.619 -0.0221 -0.0917  0.1743
 4898W        W23102  13.477   2.265  13.458 -0.2072  0.0060  0.0617
 4899W        W23103  12.289  14.881   2.306  0.0334  0.1692 -0.0175
 4900W        W23104   5.459  11.747  15.862  0.1121 -0.0062 -0.0412
 4901W        W23105   4.102  10.598   0.130  0.0848  0.1521  0.0826
 4902W        W23106  14.553  11.831  12.222  0.0522 -0.1966 -0.2371
 4903W        W23107  13.660   8.000   4.340  0.1617  0.2062 -0.0572
 4904W        W23108   4.859   6.379  12.090  0.2202 -0.0115  0.0374
 4905W        W23109  11.971  13.978  13.196  0.0900  0.1888  0.0218
 4906W        W23110   2.152   6.490  12.315 -0.1181  0.3262 -0.0493
 4907W        W23111  10.685  10.909   5.152 -0.2493 -0.0452 -0.2373
 4908W        W23112   4.790  13.011   3.718  0.1507 -0.1093  0.0872
 4909W        W23113   1.180  15.597   3.449  0.3151  0.3778 -0.1202
 4910W        W23114  13.114  12.158   3.614  0.0218  0.0583 -0.2546
 4911W        W23115   5.647  17.369  13.767 -0.1915  0.1123 -0.2508
 4912W        W23116   0.410   9.281   2.577  0.2435  0.3277 -0.2392
 4913W        W23117   7.926   1.944   4.002  0.5017  0.0828 -0.1181
 4914W        W23118  14.360   6.704   5.667  0.2636  0.1177  0.0963
 4915W        W23119   1.746   4.216  17.080  0.1849  0.1593 -0.0758
 4916W        W23120   0.040   3.778  14.811  0.0826 -0.0697 -0.3578
 4917W        W23121   1.003   1.468   0.857 -0.2503 -0.1084  0.3634
 4918W        W23122   2.224  14.187  16.824  0.1844 -0.0176  0.3870
 4919W        W23123   9.047   2.872   5.012 -0.0125  0.0234 -0.0154
 4920W        W23124   0.706   5.846   2.467 -0.1508 -0.1515  0.1435
 4921W        W23125   1.648  10.736   0.732  0.1642  0.0368  0.0111
 4922W        W23126   4.224   2.718  12.307  0.0859 -0.0188 -0.2755
 4923W        W23127   2.567  12.095  16.144  0.1021  0.4031  0.1903
 4924W        W23128   7.932  12.379  13.005  0.0916  0.1466  0.0519
 4925W        W23129   0.779   2.190  14.092  0.1019 -0.0481  0.2252
 4926W        W23130  13.710  14.374  11.441 -0.3399 -0.0738  0.0729
 4927W        W23131   0.103  16.545   2.085  0.1251  0.0845  0.0228
 4928W        W23132   2.929  15.405  13.403  0.0706 -0.2054  0.0427
 4929W        W23133   8.214   8.985  13.814 -0.0910  0.0017  0.0663
 4930W        W23134  12.791  16.711  13.947 -0.0910  0.0383 -0.1566
 4931W        W23135   0.312   0.776   4.973  0.1449 -0.2053 -0.2180
 4932W        W23136  16.727   0.305   0.233 -0.4277  0.1566 -0.1428
 4933W        W23137   5.322   5.223  16.786  0.1752  0.4139  0.0478
 4934W        W23138   0.856   0.764   3.771 -0.0787 -0.1602  0.0373
 4935W        W23139  17.521   6.853   1.626  0.0355 -0.0588  0.0049
 4936W        W23140   6.362  16.321  14.164 -0.1578 -0.1857  0.1548
 4937W        W23141   9.330   2.477   5.044 -0.0462 -0.3904 -0.2647
 4938W        W23142   7.283  11.895  15.293  0.0982  0.4109 -0.3087
 4939W        W23143   5.589  16.287   1.834  0.2284 -0.0852  0.1180
 4940W        W23144   7.093   1.643  17.045  0.1106  0.0343 -0.0856
 4941W        W23145  16.483   6.377   4.608 -0.0458 -0.1074  0.1065
 4942W        W23146   5.967  11.652  13.968 -0.1822 -0.3441 -0.2536
 4943W        W23147  11.783   5.290   4.867  0.0529 -0.2139 -0.0973
 4944W        W23148   0.611  10.641   0.817 -0.0592 -0.0196 -0.1298
 4945W        W23149  15.547  12.989  13.261  0.1288 -0.1796  0.1358
 4946W        W23150  14.919  17.195  14.335 -0.0889  0.1042 -0.1833
 4947W        W23151  11.308   3.325  14.370  0.0391 -0.1850  0.0178
 4948W        W23152   4.623   5.863   5.082 -0.0289  0.1119  0.1895
 4949W        W23153   6.724  12.828  13.139  0.1147  0.0756 -0.1900
 4950W        W23154  11.092   1.875   2.698 -0.0987  0.2434  0.0880
 4951W        W23155  11.633   0.433   1.504 -0.1493  0.2107  0.3349
 4952W        W23156   8.373  11.949   2.295 -0.0143 -0.1138  0.1002
 4953W        W23157   6.579   8.353   3.480  0.1661 -0.1233  0.1378
 4954W        W23158   4.164   5.979   2.807  0.1936 -0.0805  0.1179
 4955W        W23159  16.073  14.653  14.705 -0.0373  0.3414 -0.2870
 4956W        W23160   9.070   7.874   2.122 -0.0193 -0.2080  0.0105
 4957W        W23161  11.415   0.176   4.355  0.0506  0.2418  0.2012
 4958W        W23162   0.240   0.866  16.850 -0.0724  0.1676  0.1148
 4959W        W23163  12.057   4.821   3.234  0.1659 -0.0771  0.2102
 4960W        W23164   4.594  12.982  17.096  0.2209  0.0223 -0.0852
 4961W        W23165   1.347   4.721   5.545  0.0451 -0.3696 -0.1610
 4962W        W23166   0.507   0.356  12.656  0.0479 -0.1344  0.1955
 4963W        W23167   9.393   8.514  16.019  0.2347  0.2093 -0.0670
 4964W        W23168   0.510   6.278  16.871  0.5918 -0.1357  0.1188
 4965W        W23169  13.998  16.535   3.375  0.1684 -0.1844  0.1937
 4966W        W23170  16.386  15.027   3.761  0.0031 -0.1502 -0.1370
 4967W        W23171   8.779  10.871  13.873  0.0883 -0.1697  0.1624
 4968W        W23172   0.163  15.298  13.792  0.0845  0.0414  0.3557
 4969W        W23173   5.364  12.222  14.315 -0.0781  0.0112 -0.1205
 4970W        W23174   0.904   7.274  13.707  0.1854 -0.0180 -0.0396
 4971W        W23175   5.724   4.969   0.995 -0.1724 -0.2272 -0.0188
 4972W        W23176  13.069  13.779   0.812 -0.0711  0.1297 -0.2437
 4973W        W23177   4.516  15.414  16.817  0.0092 -0.1319 -0.0282
 4974W        W23178   6.432  13.586   3.603  0.2789  0.1350  0.0490
 4975W        W23179  15.633  17.037  16.642 -0.0516 -0.1983 -0.1616
 4976W        W23180   1.148   7.321  15.166  0.1029  0.0050 -0.2481
 4977W        W23181   6.485  16.338  15.545 -0.0671 -0.1257 -0.1860
 4978W        W23182   6.278   8.699   1.023 -0.0108  0.1578  0.1262
 4979W        W23183   9.799   3.958   2.921 -0.2309 -0.1645 -0.1974
 4980W        W23184  12.718   6.260   1.748  0.0239 -0.3311 -0.1185
 4981W        W23185  13.387  13.368  15.972 -0.0513 -0.0249  0.1800
 4982W        W23186  13.801   5.174  12.763  0.0314 -0.1770 -0.0076
 4983W        W23187   2.668   7.150  16.870 -0.1908 -0.2270 -0.0761
 4984W        W23188  11.257  15.063  12.042  0.1192 -0.1380  0.0185
 4985W        W23189   2.128  16.959   1.440  0.1703  0.0720  0.2614
 4986W        W23190  12.839  15.753  11.547 -0.1274  0.1485  0.0783
 4987W        W23191   4.945   1.608   0.530  0.1648  0.0404  0.4675
 4988W        W23192   9.319  10.281  14.404 -0.1179 -0.0380 -0.1524
 4989W        W23193  13.914   8.331  16.707 -0.0523  0.0618  0.0208
 4990W        W23194  14.955  15.520  12.847 -0.2281  0.0001  0.3629
 4991W        W23195   0.501   5.491  16.112 -0.0668 -0.1075 -0.0367
 4992W        W23196   9.191  15.376  14.008  0.1297  0.0138  0.2984
 4993W        W23197  11.873  15.421   2.907  0.5302 -0.3809 -0.0853
 4994W        W23198   4.175  14.558  17.181  0.0215  0.0476 -0.0011
 4995W        W23199   1.618  13.566   0.074  0.1540  0.4643 -0.0279
 4996W        W23200   4.545   3.862  14.611  0.0895 -0.2114  0.1489
 4997W        W23201  16.836   7.312  15.394  0.0546  0.1259  0.2332
 4998W        W23202   7.958  13.892  14.813 -0.2235 -0.3740 -0.0193
 4999W        W23203   8.237  14.259  14.955 -0.1263  0.1088 -0.0466
 5000W        W23204  10.154  11.118  13.616 -0.0924 -0.0109  0.0910
 5001W        W23205   7.858   1.004   4.168  0.1895  0.1041  0.0923
 5002W        W23206   1.883   3.938  12.340 -0.5437 -0.2608 -0.0155
 5003W        W23207  14.958  14.932   2.341 -0.0197  0.1512  0.0855
 5004W        W23208  11.277  17.241   2.132 -0.0791 -0.0817  0.3247
 5005W        W23209   9.612  16.768  16.940 -0.1226 -0.0080  0.1725
 5006W        W23210   2.317   1.955   0.022  0.0556  0.0886 -0.1553
 5007W        W23211   2.011   0.320  13.362 -0.0099  0.2990  0.0393
 5008W        W23212   6.029   3.486  12.334 -0.0242  0.1221 -0.0915
 5009W        W23213   7.632  15.351   4.751 -0.1691 -0.2839 -0.2075
 5010W        W23214   5.361  10.674   0.680  0.4457 -0.0294 -0.1619
 5011W        W23215   5.723  17.349  15.669  0.1734 -0.3130  0.0980
 5012W        W23216  15.229  10.548   0.229  0.0577  0.0112 -0.1452
 5013W        W23217  10.912  10.289   2.602  0.2716 -0.0082 -0.1571
 5014W        W23218   1.490   0.424  14.528  0.0466 -0.1252  0.2577
 5015W        W23219   3.632  10.778  12.164 -0.1717 -0.1184  0.3280
 5016W        W23220  10.489   7.891   3.699  0.2301 -0.0045  0.0145
 5017W        W23221  12.551  15.806   4.994 -0.1185 -0.3392  0.2258
 5018W        W23222   2.529   8.106  17.037 -0.0348  0.3644 -0.0888
 5019W        W23223   6.798   8.091   4.096  0.4632 -0.0532  0.1248
 5020W        W23224   0.334  11.080   1.665  0.0740  0.0727 -0.1064
 5021W        W23225  11.583   3.425   2.710 -0.0647 -0.3124  0.1018
 5022W        W23226  11.089   1.991  15.493 -0.3361 -0.1206  0.0934
 5023W        W23227   1.991   9.866  12.591 -0.1020  0.0865  0.1721
 5024W        W23228  11.171  13.389   1.122  0.1368  0.3171  0.0548
 5025W        W23229   1.053  11.207  15.784  0.0627  0.0595  0.4474
 5026W        W23230   0.335   4.976   0.475  0.0115 -0.0588  0.0171
 5027W        W23231  14.606   4.358   0.271  0.0878  0.0308 -0.2163
 5028W        W23232   6.252  14.992   4.872  0.3127  0.1673  0.0974
 5029W        W23233   5.530  13.067   1.503 -0.0034 -0.1764 -0.4641
 5030W        W23234   0.102  10.114  17.181  0.0703  0.0372  0.0503
 5031W        W23235   0.846  10.505  17.220 -0.0915 -0.2255 -0.0553
 5032W        W23236  11.725   2.588  13.934  0.4502  0.0683  0.2213
 5033W        W23237  14.971   9.854   2.203 -0.3595  0.2159 -0.1024
 5034W        W23238   6.469  13.590   3.097 -0.0004  0.0036  0.0569
 5035W        W23239   6.717  12.336  13.065 -0.2198 -0.0793 -0.2383
 5036W        W23240  10.853   0.255   4.437  0.0151  0.0530 -0.1334
 5037W        W23241  11.514  16.014  16.528  0.0718  0.2207 -0.2226
 5038W        W23242  12.209   8.812   3.767  0.0353  0.3475  0.2106
 5039W        W23243   8.048  14.071  13.922 -0.0094 -0.0779 -0.1132
 5040W        W23244  11.047   4.386   5.008 -0.2812  0.3845  0.0631
 5041W        W23245   9.182   3.934   2.815  0.0462 -0.2086 -0.1450
 5042W        W23246   0.198   3.875  16.405 -0.1212  0.1837  0.0687
 5043W        W23247   1.241   2.860  15.444  0.1064 -0.0458 -0.1632
 5044W        W23248  13.549   9.372  11.974  0.2374  0.2222  0.1433
 5045W        W23249   7.591   1.088  14.973  0.1344  0.1037 -0.3422
 5046W        W23250   0.318   3.058   5.206 -0.0058 -0.0137 -0.1600
 5047W        W23251  16.126   1.666   1.950  0.0612  0.5656  0.1217
 5048W        W23252   8.468  10.761  14.341 -0.1717 -0.0380  0.0748
 5049W        W23253   2.684   5.182  15.335 -0.1226 -0.1709  0.1348
 5050W        W23254  15.934  15.215  14.578 -0.1057  0.0167 -0.1818
 5051W        W23255   1.582   9.485  17.167 -0.1085  0.0478 -0.3138
 5052W        W23256   1.554  15.260  13.561 -0.0850  0.0684 -0.2508
 5053W        W23257   5.972   8.554   0.283  0.3435  0.2270  0.0587
 5054W        W23258  15.721  11.985   4.717 -0.2911  0.0743 -0.2202
 5055W        W23259   6.316   4.715   2.970 -0.0634  0.0212 -0.2063
 5056W        W23260   0.260   8.298   2.739 -0.0281 -0.0683 -0.1240
 5057W        W23261  14.388  13.730   3.534  0.1074 -0.2864  0.0860
 5058W        W23262  10.291  16.310  13.119 -0.1699 -0.3442  0.3512
 5059W        W23263  14.291  10.613  11.665 -0.0230  0.1682  0.2903
 5060W        W23264   2.858   9.291   4.143 -0.0812  0.4475  0.0967
 5061W        W23265   8.658  10.928  13.237  0.1947  0.1558 -0.1973
 5062W        W23266  13.400  11.535  15.288  0.3778  0.1568  0.0401
 5063W        W23267   5.360   0.671   5.247  0.0343  0.1713  0.0825
 5064W        W23268   9.288   7.487   4.705  0.1209  0.1856 -0.0912
 5065W        W23269  17.285  15.942  13.074 -0.0450 -0.3305  0.0111
 5066W        W23270  12.430  14.082  12.866  0.1990 -0.1402  0.1546
 5067W        W23271   9.905   5.180   0.085  0.2952 -0.0663 -0.1410
 5068W        W23272  14.639   3.785   4.238  0.1389  0.1191 -0.0454
 5069W        W23273  11.392   3.383   1.285  0.0725 -0.1487 -0.3210
 5070W        W23274   3.357  11.080   0.431 -0.0176 -0.1234  0.0148
 5071W        W23275   4.786   0.989   4.473 -0.0518 -0.1140  0.0859
 5072W        W23276   8.637   4.171   0.741 -0.2084 -0.0889  0.0428
 5073W        W23277   4.634  16.087  12.213 -0.1812  0.1064  0.3514
 5074W        W23278  13.665   3.194  16.652 -0.0609  0.1110 -0.0696
 5075W        W23279   8.560  14.265   4.052  0.1730  0.1595 -0.0480
 5076W        W23280  16.640   8.277  16.992  0.2561  0.0147 -0.3257
 5077W        W23281   0.586  15.521  13.611 -0.2666  0.1322  0.2369
 5078W        W23282  15.180   6.286  11.659  0.1374 -0.2790  0.4530
 5079W        W23283   8.609   6.205  15.137 -0.1524  0.1031 -0.2617
 5080W        W23284   8.070  15.979   2.937  0.0321 -0.0513  0.0038
 5081W        W23285  13.855   6.729   0.817  0.0922  0.0760 -0.0279
 5082W        W23286  13.013   6.125  13.208 -0.0621  0.3569  0.2546
 5083W        W23287   0.036   4.402  14.073  0.0029 -0.1965 -0.1266
 5084W        W23288   4.377   3.808   0.419  0.1322  0.1897  0.0642
 5085W        W23289   6.120   1.141   0.969  0.0111  0.2240  0.2087
 5086W        W23290   7.817   9.421   4.139 -0.0583 -0.1220 -0.2668
 5087W        W23291  13.572  15.318  11.932  0.0321  0.0003  0.0259
 5088W        W23292   5.146   5.575  15.505  0.1276  0.1938  0.3178
 5089W        W23293   4.570  16.945  16.190  0.1499  0.1504  0.2574
 5090W        W23294   0.195   9.674   4.535 -0.0063 -0.1632  0.1739
 5091W        W23295   6.610  10.057  15.691  0.0349  0.3823  0.3695
 5092W        W23296  14.459   8.516   2.519  0.0455 -0.1566  0.1621
 5093W        W23297   5.887   1.076  16.931 -0.0078 -0.3198  0.1076
 5094W        W23298   7.607   1.688   5.189 -0.0648 -0.0507  0.1002
 5095W        W23299   4.510  16.319  13.608  0.3439  0.1621  0.1732
 5096W        W23300   7.609  12.246   0.469 -0.2286 -0.0195  0.0489
 5097W        W23301  15.623   1.261  15.795 -0.1598  0.1061 -0.0053
 5098W        W23302   1.667   8.062  14.729 -0.0007  0.2040  0.0019
 5099W        W23303   7.365   3.602  15.440 -0.1967  0.1393  0.1195
 5100W        W23304   9.525  13.974  12.857 -0.0345  0.2060 -0.2148
 5101W        W23305  12.918  15.149  12.296 -0.0172  0.3270  0.1170
 5102W        W23306  13.871   5.722   2.034 -0.1213 -0.1552 -0.0550
 5103W        W23307   6.441   7.125  12.174 -0.0027  0.2888  0.2736
 5104W        W23308   8.153   8.217   2.954  0.1860  0.1047 -0.1449
 5105W        W23309  14.215  12.328   0.239 -0.3265  0.1536  0.1783
 5106W        W23310   9.681   7.949   3.463 -0.3088  0.2032 -0.1161
 5107W        W23311   7.893  11.854  15.619 -0.0691 -0.1919 -0.2719
 5108W        W23312  15.389   9.611   0.286 -0.1986  0.1472 -0.0641
 5109W        W23313   7.384   0.608   1.016 -0.0252  0.1701  0.3939
 5110W        W23314   9.798   5.656   0.824  0.2054  0.3793  0.2873
 5111W        W23315   1.552   9.648  12.409  0.2695 -0.2043 -0.1438
 5112W        W23316  16.740  12.206   1.115 -0.4561 -0.0001 -0.4781
 5113W        W23317  16.718  12.919   3.455  0.2274 -0.3827  0.1106
 5114W        W23318  14.769   2.134  17.004  0.0828  0.0719 -0.2174
 5115W        W23319  15.620  10.586  15.669 -0.0627  0.1056 -0.0058
 5116W        W23320   4.867   5.485   4.521 -0.0229 -0.0884 -0.1410
 5117W        W23321  10.696   9.818  14.914 -0.0745  0.0485  0.0326
 5118W        W23322   3.246   8.402  12.470  0.0566 -0.1576 -0.0886
 5119W        W23323  13.631  12.773   4.856 -0.3580 -0.1051  0.1224
 5120W        W23324   6.760   2.235  16.253  0.0931  0.0158 -0.3576
 5121W        W23325  16.506  14.225   2.754  0.1102 -0.2501 -0.0187
 5122W        W23326   4.812  11.852   1.289  0.0576  0.0267 -0.0400
 5123W        W23327   6.784   6.881  14.133 -0.0681  0.0164 -0.0758
 5124W        W23328   7.292   3.721   2.273 -0.0489  0.2163 -0.0223
 5125W        W23329   8.412  13.198   4.354  0.3567 -0.2018  0.1139
 5126W        W23330   2.701  17.051  16.544  0.1171  0.2325  0.1423
 5127W        W23331   8.483  16.773  12.659  0.1932 -0.2228  0.0571
 5128W        W23332   9.382   6.304   0.237 -0.2437  0.0970 -0.1060
 5129W        W23333   8.682   5.442   3.247 -0.1205  0.0883 -0.0051
 5130W        W23334  14.811  15.553   2.697 -0.2243 -0.2351 -0.4174
 5131W        W23335   6.662   1.863   4.809  0.4916  0.3984 -0.0236
 5132W        W23336  17.168   6.671  16.523  0.0375 -0.1629  0.1445
 5133W        W23337   1.403  11.635  12.604  0.2093  0.2995  0.0751
 5134W        W23338  10.837  16.150  15.929 -0.1799  0.1856  0.0150
 5135W        W23339   6.025   8.240   0.747 -0.3027 -0.0452 -0.0239
 5136W        W23340   1.253   5.235  12.706 -0.0950 -0.0516  0.2843
 5137W        W23341  15.397  11.503  16.294 -0.0643  0.1902 -0.2324
 5138W        W23342  13.850  12.373  15.529 -0.3717  0.3980 -0.0818
 5139W        W23343  10.594   3.118   3.643 -0.0418 -0.3513  0.1332
 5140W        W23344  16.989   3.333   1.599  0.4102  0.3243  0.1014
 5141W        W23345  15.812  14.103   5.766  0.2748  0.1481  0.0955
 5142W        W23346  13.724   5.609   0.867  0.1741  0.0681  0.0341
 5143W        W23347  12.535   9.271  15.030  0.1302  0.2761 -0.2342
 5144W        W23348  15.376   7.032   4.065  0.1057 -0.1048 -0.3070
 5145W        W23349   9.899   1.908  14.729  0.0846 -0.3818  0.3056
 5146W        W23350  12.011   7.490   1.831 -0.3466 -0.0252  0.1846
 5147W        W23351  10.263   4.294   2.972 -0.1556  0.1865  0.0541
 5148W        W23352  12.435  16.348  12.847  0.3857 -0.2620 -0.0167
 5149W        W23353  16.492  12.346  12.635 -0.0300 -0.1464 -0.0603
 5150W        W23354  16.822  16.301  16.224 -0.0914  0.0888  0.0036
 5151W        W23355   2.366   8.571  13.623 -0.0844 -0.0175 -0.1482
 5152W        W23356   9.326  15.652   0.812  0.0916 -0.0690 -0.0306
 5153W        W23357  15.392   3.468   2.474 -0.0145  0.0334  0.1357
 5154W        W23358  15.803   1.726  15.141  0.0626 -0.0626  0.1880
 5155W        W23359   2.631   8.052  13.515  0.1751  0.0128 -0.0197
 5156W        W23360   8.070   8.866   1.816 -0.1172  0.2455 -0.1277
 5157W        W23361  14.439  12.976   5.175 -0.0944  0.3032 -0.1619
 5158W        W23362   9.110  16.199   0.310  0.0577 -0.1429 -0.0016
 5159W        W23363  16.300   3.481  15.149 -0.3126 -0.4852 -0.1932
 5160W        W23364   4.975   8.891   3.931  0.1478 -0.0545 -0.0129
 5161W        W23365  15.757   4.144   5.141 -0.3032 -0.1302  0.1485
 5162W        W23366  16.257   0.343   5.281 -0.1456 -0.2699  0.0515
 5163W        W23367   4.246   1.596   0.326  0.0470 -0.1904  0.3573
 5164W        W23368  11.057   6.929   4.436 -0.1751  0.4012 -0.1210
 5165W        W23369   9.681   6.928  14.170 -0.0654 -0.1537  0.0596
 5166W        W23370   4.380   1.528   5.355  0.0684  0.1831 -0.0498
 5167W        W23371   6.708   5.803   4.259 -0.1651  0.1700  0.1779
 5168W        W23372  17.182   3.467   2.660  0.2471 -0.1459 -0.1777
 5169W        W23373   6.189   4.401  15.136  0.0044 -0.1219  0.3730
 5170W        W23374  11.530   7.396   0.997 -0.2195 -0.0481  0.0240
 5171W        W23375   6.229   5.545   4.968  0.0796 -0.0923 -0.1051
 5172W        W23376   8.449  10.584   4.122 -0.1330  0.1037 -0.1245
 5173W        W23377   0.773   0.783   1.586  0.2031  0.1550  0.2023
 5174W        W23378   9.677   6.494   4.267  0.0080 -0.0317  0.2563
 5175W        W23379  15.737   9.650  13.270  0.1048  0.0711  0.0902
 5176W        W23380   6.814   4.989   2.996  0.0240 -0.1589 -0.1022
 5177W        W23381   8.016  12.562   3.126 -0.0691 -0.2037  0.1313
 5178W        W23382  17.422   9.876  16.351 -0.0866  0.0527 -0.0398
 5179W        W23383   4.603  15.489  12.861  0.0551  0.0375 -0.0161
 5180W        W23384  16.381   5.591  15.279 -0.0797  0.0411 -0.3727
 5181W        W23385   3.802   5.487   0.770 -0.1353  0.1098  0.0973
 5182W        W23386   6.437  14.802  13.331 -0.3362 -0.0143 -0.0068
 5183W        W23387  14.296   3.738  16.908  0.0383  0.0694  0.0720
 5184W        W23388   8.103   9.703   1.941 -0.2394 -0.0617  0.1290
 5185W        W23389   2.424  11.049  16.964  0.1424 -0.1042  0.0661
 5186W        W23390  12.013   9.553  12.678 -0.0832  0.1930 -0.2324
 5187W        W23391  16.151  10.855   1.394 -0.0230 -0.1144 -0.2820
 5188W        W23392   9.580   3.019   1.446 -0.0203  0.2619  0.1778
 5189W        W23393   2.409   0.053  12.283 -0.0136 -0.1025 -0.0729
 5190W        W23394  16.564   4.113  15.822 -0.3642  0.1102  0.1590
 5191W        W23395   3.605   8.551  12.841  0.3258 -0.1379 -0.3985
 5192W        W23396  17.488  14.410   1.256  0.2397 -0.0423 -0.1247
 5193W        W23397  12.702   9.571  11.971 -0.0172  0.0800  0.0274
 5194W        W23398  15.037   1.467   2.858 -0.1461  0.2190  0.1775
 5195W        W23399  13.127  15.764   1.063 -0.2113  0.1603  0.2659
 5196W        W23400   5.347   8.493  16.383  0.2146 -0.1882  0.0268
 5197W        W23401  16.508  11.391   3.360  0.1400  0.2089 -0.2855
 5198W        W23402  17.019   8.015   2.188  0.0123  0.2299  0.0802
 5199W        W23403  14.288   5.737  13.505 -0.1562  0.2111  0.0664
 5200W        W23404  13.376  15.998  15.563 -0.0940  0.0995  0.0319
 5201W        W23405   1.484   7.465  17.026  0.0911  0.1823  0.0283
 5202W        W23406  16.135   0.878   2.706  0.0260  0.4213  0.0066
 5203W        W23407  14.508  13.726  16.472  0.0222 -0.3019 -0.1517
 5204W        W23408   8.849   1.917   5.132  0.2307 -0.0296 -0.0289
 5205W        W23409  17.436  13.678  14.192  0.1928  0.2683 -0.0752
 5206W        W23410   8.037  14.534  16.333 -0.1208 -0.2366 -0.1248
 5207W        W23411   9.453   7.671  14.873  0.1124  0.2236  0.1837
 5208W        W23412  14.300   1.219   5.181 -0.2690  0.1761  0.0477
 5209W        W23413  14.787  12.023   3.773 -0.0267 -0.1475 -0.0241
 5210W        W23414   7.087  15.560   4.739  0.0494 -0.1941  0.0985
 5211W        W23415   3.228  13.552  13.773 -0.1030 -0.0758 -0.1429
 5212W        W23416   4.831  13.080  13.950  0.1664 -0.0376 -0.0555
 5213W        W23417   5.619   5.676   0.501 -0.0468 -0.2840 -0.3213
 5214W        W23418   7.343   1.925   0.956 -0.3612  0.1525  0.2752
 5215W        W23419  11.191   1.652  12.701  0.2469  0.0887 -0.0497
 5216W        W23420  15.129  14.545  12.600  0.3679  0.4176 -0.1644
 5217W        W23421  11.608   5.709   2.457 -0.1510  0.2137  0.3240
 5218W        W23422  14.320   3.988   0.455  0.1310 -0.1406 -0.0242
 5219W        W23423   6.464   1.815  13.485  0.3318 -0.1814  0.1227
 5220W        W23424  14.581  13.552  15.954 -0.0754 -0.2911  0.3184
 5221W        W23425  17.071   9.406   5.380  0.4702 -0.0786  0.2406
 5222W        W23426   9.828  15.174   3.006 -0.1544  0.1181 -0.0423
 5223W        W23427  12.285  15.831  15.837  0.1555  0.2024 -0.1798
 5224W        W23428  13.269   9.712   4.709 -0.0858 -0.1173 -0.0215
 5225W        W23429   5.172   8.920   0.556  0.0325 -0.2472  0.0767
 5226W        W23430   7.924   8.971  11.962  0.5082  0.0085 -0.2728
 5227W        W23431   6.301  11.954  12.314  0.2610  0.0097  0.2869
 5228W        W23432   2.473   9.448  11.996 -0.1427  0.1619  0.0389
 5229W        W23433   0.100   0.981  14.362 -0.0307  0.0168 -0.1722
 5230W        W23434  14.060  14.402   1.379 -0.1336 -0.1040 -0.2808
 5231W        W23435  15.145   9.018  13.501  0.0229 -0.0116 -0.0974
 5232W        W23436   8.952   4.761  15.159 -0.1432 -0.1141 -0.1175
 5233W        W23437   6.576  12.546   2.935 -0.1626  0.0243 -0.0180
 5234W        W23438   8.902   1.600   3.933  0.1597  0.3207  0.2094
 5235W        W23439   4.027   4.554   3.821  0.2567 -0.2263 -0.0475
 5236W        W23440  13.952   3.661   0.419  0.0305  0.1081 -0.1900
 5237W        W23441  16.854  16.376  13.465 -0.1785  0.3724 -0.1622
 5238W        W23442   7.117   0.387   0.203 -0.1704 -0.3956  0.0261
 5239W        W23443   3.873   2.393   0.507  0.1863 -0.1240 -0.0547
 5240W        W23444  11.494   5.112   3.127 -0.2401 -0.1402 -0.0630
 5241W        W23445   3.770  15.343   4.091  0.0137  0.0982 -0.1625
 5242W        W23446  13.920  17.184   4.487  0.1181 -0.0027  0.3763
 5243W        W23447   3.106  15.820  15.904 -0.0138 -0.2009  0.3219
 5244W        W23448   7.162   8.842  14.702 -0.1214 -0.0391 -0.1343
 5245W        W23449  16.034   3.401  12.729 -0.0438 -0.2200 -0.0038
 5246W        W23450   8.888  16.132   5.213 -0.0545 -0.0256  0.2606
 5247W        W23451   9.680   0.964   2.954 -0.0724 -0.0287  0.3748
 5248W        W23452   0.718   4.348  14.342  0.0682  0.0006 -0.0154
 5249W        W23453   5.688   7.789   1.842 -0.1497 -0.1147 -0.0880
 5250W        W23454  11.302   9.911   0.857 -0.0371  0.1726  0.0857
 5251W        W23455   8.592   6.479  14.690 -0.0977 -0.0376 -0.0778
 5252W        W23456   8.247   8.957  10.968  0.0840 -0.0172  0.0817
 5253W        W23457   6.512   5.864   3.445 -0.2589  0.3280  0.3020
 5254W        W23458   0.024   0.222  15.239  0.2761  0.2455  0.0656
 5255W        W23459  14.780  13.011   4.810  0.0058  0.2402 -0.3662
 5256W        W23460   5.315   2.930  15.974 -0.3012 -0.0335  0.0199
 5257W        W23461   6.968   5.009  17.227  0.0291 -0.1866  0.1877
 5258W        W23462   9.379   1.884  14.581  0.4612  0.0685  0.1879
 5259W        W23463   9.836  11.846  14.913 -0.0611 -0.1889 -0.0636
 5260W        W23464   1.053   9.211   1.812 -0.2021  0.0758 -0.2809
 5261W        W23465  12.199   8.874  15.356 -0.0502  0.0140 -0.0311
 5262W        W23466   8.791   4.385   2.945  0.0826  0.0132  0.3356
 5263W        W23467   9.140   6.473   1.754 -0.0170 -0.2581 -0.2329
 5264W        W23468   0.718   8.578  17.234 -0.0444  0.0475 -0.3558
 5265W        W23469   0.014  16.464   2.852 -0.1317  0.1972  0.0206
 5266W        W23470   1.061  12.781   2.340 -0.4148 -0.0103  0.1691
 5267W        W23471  11.079   2.483  16.289  0.1933 -0.2616  0.1881
 5268W        W23472   9.081  15.326   3.434 -0.0605 -0.0021 -0.0547
 5269W        W23473  14.957  14.701   5.080 -0.1872  0.1508  0.2902
 5270W        W23474  12.249  11.263  16.002 -0.2607 -0.1951 -0.2688
 5271W        W23475   2.426  10.928   2.294 -0.3601 -0.0684  0.5304
 5272W        W23476  13.263  12.840   1.388  0.0615 -0.0379  0.2957
 5273W        W23477   4.788  12.202  13.082  0.0624 -0.1925  0.0478
 5274W        W23478   0.182   5.210  15.019  0.1990  0.1364  0.0019
 5275W        W23479  16.475   2.203   2.803 -0.1393  0.3345  0.0162
 5276W        W23480   0.349   7.322  14.398 -0.0021  0.0862 -0.0675
 5277W        W23481   1.318  11.073   0.552 -0.1638 -0.0023 -0.0101
 5278W        W23482   6.568   6.765   2.371 -0.1069 -0.1499 -0.2408
 5279W        W23483   7.445  11.583   2.341 -0.0108 -0.3514  0.0247
 5280W        W23484  10.566  14.020  15.552  0.2577  0.0709 -0.1825
 5281W        W23485   6.587   4.859   2.562 -0.0091 -0.1454  0.3422
 5282W        W23486   7.694  15.136   4.308 -0.3764  0.2857  0.1509
 5283W        W23487   3.112   1.975  15.806  0.0145  0.0573 -0.0492
 5284W        W23488   6.681  14.915   1.580 -0.0275 -0.1432  0.1420
 5285W        W23489  11.877   4.586  12.626  0.0505 -0.4946  0.1063
 5286W        W23490   8.154  14.743   3.589 -0.1359 -0.3085 -0.0477
 5287W        W23491  12.133   4.001  15.083  0.1995 -0.0543  0.3649
 5288W        W23492   8.518   0.918  13.760 -0.0352 -0.2147  0.3786
 5289W        W23493   2.654  13.486   3.518  0.2670  0.0424 -0.1057
 5290W        W23494   8.208   0.864   1.592 -0.2242 -0.2266 -0.1252
 5291W        W23495   3.880   7.080   0.130  0.1011 -0.1838  0.1892
 5292W        W23496  14.385   6.114  16.758  0.0355 -0.0344  0.0427
 5293W        W23497   7.317   6.326  12.307  0.0962  0.3688  0.1478
 5294W        W23498  12.369   1.419  12.446  0.0150 -0.3691 -0.5552
 5295W        W23499   4.715   2.540  15.463 -0.1933 -0.2412 -0.0735
 5296W        W23500  11.509  11.649   0.988 -0.3252 -0.0297  0.0257
 5297W        W23501   7.279  11.635  11.718 -0.1180 -0.0872  0.1102
 5298W        W23502   9.657  15.360  13.662 -0.1456 -0.1898  0.0895
 5299W        W23503   1.370   8.745   0.964 -0.0649 -0.2303  0.2601
 5300W        W23504   1.541   3.690   5.403  0.1013  0.0816  0.1091
 5301W        W23505   4.707  11.121  14.967 -0.0268 -0.0348  0.1488
 5302W        W23506   9.319   4.752   5.050 -0.0328  0.0738  0.2465
 5303W        W23507   9.591   5.762  16.591 -0.0956 -0.0346  0.0840
 5304W        W23508  16.114   0.592   2.074 -0.0592  0.2947  0.1638
 5305W        W23509   4.532  14.659  12.767  0.1425  0.1754 -0.3169
 5306W        W23510  13.131   1.300   3.795 -0.0171 -0.1396  0.0184
 5307W        W23511  17.164   2.142   3.835 -0.0166 -0.0823  0.1423
 5308W        W23512  10.043   3.842   1.534 -0.4034 -0.2713  0.1916
 5309W        W23513   9.985  15.775   2.392  0.0336 -0.0748 -0.1853
 5310W        W23514   3.556   0.970   5.074 -0.1388  0.1035  0.0727
 5311W        W23515  15.621   6.015  14.414  0.0574 -0.1231 -0.1175
 5312W        W23516  11.766   1.621   5.234 -0.3139 -0.2762 -0.0695
 5313W        W23517  10.678  17.401   2.089  0.0213 -0.0363  0.1097
 5314W        W23518   3.765   1.182  15.809  0.0556 -0.0104  0.0517
 5315W        W23519   1.818   0.598   3.780  0.0008  0.2310  0.4476
 5316W        W23520   7.981  16.877   4.839  0.2013  0.0507 -0.1548
 5317W        W23521  11.738  16.837   3.005 -0.0776 -0.0377 -0.0287
 5318W        W23522   3.936   2.096  13.280  0.1756  0.0785  0.3827
 5319W        W23523   1.342   5.682  15.930  0.3433  0.1912  0.0330
 5320W        W23524   6.765  15.728  16.681 -0.2694 -0.1901  0.1412
 5321W        W23525  17.248   1.827  17.173 -0.0388  0.0877  0.0665
 5322W        W23526   7.924   9.572  14.018  0.6049 -0.0752  0.0689
 5323W        W23527  13.304  17.231  12.219 -0.2711 -0.2678 -0.0728
 5324W        W23528   6.790  16.194   3.093  0.0286  0.0580 -0.1082
 5325W        W23529   2.282  13.699   2.724 -0.0093 -0.0651 -0.1840
 5326W        W23530  16.511   5.765   3.669  0.2540  0.1719 -0.0991
 5327W        W23531  14.331   1.893   2.577  0.2714  0.0314  0.1152
 5328W        W23532   1.545   9.275   1.848 -0.0940 -0.0432 -0.0700
 5329W        W23533   8.810   5.078  14.326  0.1213  0.2256 -0.0225
 5330W        W23534  10.174   1.370   5.110  0.3455  0.1073  0.0955
 5331W        W23535   3.261  12.958   4.661  0.0857 -0.0673 -0.5062
 5332W        W23536   0.874  12.824  12.278  0.5209  0.2243 -0.0318
 5333W        W23537   1.232  11.837  13.026  0.0268 -0.1110 -0.2154
 5334W        W23538   4.388   1.885  12.343  0.3231  0.1461  0.1272
 5335W        W23539   2.965  15.771   6.179  0.1815  0.2040  0.0346
 5336W        W23540   2.101   4.466  14.432 -0.1382 -0.0423 -0.2075
 5337W        W23541  17.080   1.139  16.192  0.0688  0.0428  0.3481
 5338W        W23542   6.836  17.380  12.708  0.1721  0.2181  0.1555
 5339W        W23543   4.386   0.495   1.010  0.2064  0.0002  0.1370
 5340W        W23544   5.845   9.263  12.445  0.0078  0.0544  0.0006
 5341W        W23545  10.274   4.107   0.001  0.0476  0.0967  0.0617
 5342W        W23546   8.408   9.372  13.186  0.0276  0.0445  0.2964
 5343W        W23547  12.985   5.192   1.993  0.0828  0.0286 -0.1728
 5344W        W23548   8.145   5.409  12.283  0.1578  0.1540 -0.2557
 5345W        W23549   2.331  17.148   6.203  0.0604 -0.1743  0.1573
 5346W        W23550  13.369  10.353  14.136 -0.1177 -0.1611 -0.1605
 5347W        W23551  10.973  10.179   0.536  0.0200 -0.0701 -0.1382
 5348W        W23552   7.622  11.841  16.999  0.2543 -0.1417 -0.1312
 5349W        W23553   5.645  16.947   2.992 -0.2480  0.0913  0.0391
 5350W        W23554   2.705   6.068   2.971  0.0116  0.0570 -0.0277
 5351W        W23555  16.468   9.431  13.716 -0.1398 -0.3321 -0.4176
 5352W        W23556   2.860  13.960  11.018 -0.4186  0.0090 -0.1405
 5353W        W23557   7.258   3.855  13.683  0.1935  0.1305  0.4122
 5354W        W23558  12.365   1.090  14.612 -0.1549 -0.2854 -0.1018
 5355W        W23559   9.960   6.383  14.932 -0.0349  0.0251 -0.0529
 5356W        W23560  11.983   7.857   1.462  0.1666 -0.1209  0.3489
 5357W        W23561  10.364   2.424   4.902 -0.0490  0.2020 -0.0133
 5358W        W23562  15.479   7.279   5.299  0.1458 -0.0396  0.3130
 5359W        W23563  10.052  16.161  14.562  0.2841  0.0960  0.0968
 5360W        W23564  13.624  10.746   3.871 -0.1739  0.0431  0.1532
 5361W        W23565   4.971   1.671  15.692  0.1036  0.2273 -0.1985
 5362W        W23566  16.125   3.249   2.975  0.1630 -0.0696 -0.3588
 5363W        W23567   4.570   3.121   2.013 -0.0347  0.0994 -0.1211
 5364W        W23568  11.770  11.728  15.105  0.0491  0.1456  0.1718
 5365W        W23569   7.089  14.749  15.890 -0.2174 -0.0288 -0.1714
 5366W        W23570  10.036  14.601   4.015 -0.1319 -0.2754 -0.0378
 5367W        W23571   2.302  13.867   1.277 -0.0161  0.0367  0.2218
 5368W        W23572   5.146  12.452   0.408  0.1397  0.1039 -0.2371
 5369W        W23573  12.700  14.514  16.449 -0.0561 -0.1018 -0.2830
 5370W        W23574  11.914  12.578  15.376 -0.5386 -0.1809  0.1591
 5371W        W23575  16.600   0.319  16.098 -0.0879 -0.0662  0.3255
 5372W        W23576   8.539   5.617   0.776 -0.0681  0.0176  0.3941
 5373W        W23577  17.022   5.671   1.382 -0.0441  0.1357  0.0248
 5374W        W23578   3.741  12.405   0.998  0.2693  0.1195  0.0445
 5375W        W23579   1.549  12.799   0.663 -0.1223  0.0924 -0.2290
 5376W        W23580   0.547   6.295  12.502  0.1083 -0.0815 -0.0349
 5377W        W23581   6.234  14.403   4.922 -0.0462  0.0491 -0.2465
 5378W        W23582  16.467  15.671  17.205  0.3449 -0.0697  0.0354
 5379W        W23583  11.856  17.479   0.103  0.0645  0.0782 -0.0627
 5380W        W23584   6.573   7.903   3.690  0.2124  0.1870  0.1336
 5381W        W23585   7.365  10.312   0.880  0.1850 -0.0312 -0.0128
 5382W        W23586  15.203   1.416   5.600  0.3783  0.1604 -0.3053
 5383W        W23587   2.847   0.324  15.078 -0.1051  0.3565  0.1114
 5384W        W23588   5.093  10.504  15.770 -0.0394 -0.1586  0.2138
 5385W        W23589  11.040   8.163   3.469  0.1639 -0.2729  0.0105
 5386W        W23590   9.062   0.887   2.237  0.1339  0.1490 -0.0295
 5387W        W23591  12.795  12.310  15.322  0.0453 -0.1486  0.0054
 5388W        W23592   7.829   8.564   1.426  0.1993  0.3359  0.0516
 5389W        W23593  14.512   2.815   0.483  0.2765 -0.2400 -0.4111
 5390W        W23594   2.346   5.288  14.153 -0.0973  0.0042  0.3576
 5391W        W23595  17.155  10.922  15.510 -0.0261 -0.3173  0.2359
 5392W        W23596   1.451  10.084  12.633  0.1853 -0.2636 -0.0631
 5393W        W23597   5.158   5.975  11.976  0.0171  0.0042  0.0600
 5394W        W23598  11.565   3.862   1.835 -0.2477  0.0378 -0.0494
 5395W        W23599   3.445  12.013  16.676  0.0407 -0.2018 -0.0189
 5396W        W23600  14.829  11.297   4.021  0.0285 -0.1338 -0.1070
 5397W        W23601  16.480   5.626  14.259  0.0643  0.2662 -0.3997
 5398W        W23602   8.788   0.748  12.334  0.0718 -0.2774 -0.1345
 5399W        W23603  16.003   9.022  13.818  0.0619 -0.3145  0.0134
 5400W        W23604   3.773   2.193   0.996  0.2677  0.1031 -0.0986
 5401W        W23605   2.896  13.726   0.548  0.0101 -0.0385  0.0483
 5402W        W23606  13.289  16.588   5.036 -0.0403  0.1669  0.2269
 5403W        W23607  11.824   0.175   2.814  0.5206  0.1566  0.1090
 5404W        W23608  11.593   7.684  13.777  0.2041  0.0973 -0.2368
 5405W        W23609  10.807   7.310  14.484 -0.0148  0.1726 -0.0408
 5406W        W23610  16.317  12.163   0.876  0.1541  0.0155  0.1131
 5407W        W23611   7.420   4.465  15.552  0.0499  0.0198 -0.1762
 5408W        W23612  11.425   3.771   0.819  0.0714  0.1000  0.1363
 5409W        W23613  12.348  13.140   0.535 -0.0454  0.1690  0.0007
 5410W        W23614   5.212   1.931   0.828  0.0415  0.1396  0.1216
 5411W        W23615   1.611   7.785   4.036 -0.4578  0.1367 -0.1512
 5412W        W23616   0.768  17.165   0.188 -0.2536 -0.1532  0.3473
 5413W        W23617  13.659   7.097   4.668  0.1539  0.3737  0.1329
 5414W        W23618  10.124  17.181   4.409 -0.0242 -0.3405 -0.1284
 5415W        W23619   4.340   8.505   0.091  0.1620 -0.0855  0.1934
 5416W        W23620   6.658   1.043  15.299  0.0898  0.0186 -0.1500
 5417W        W23621   8.862   3.724   1.388  0.0145 -0.1879 -0.1655
 5418W        W23622  13.158   9.810   1.248  0.1873  0.0157 -0.2004
 5419W        W23623  16.236  14.481  12.072 -0.0646 -0.1513  0.1661
 5420W        W23624  10.482   4.082   1.166  0.1338 -0.0306 -0.0554
 5421W        W23625  17.108  14.201   5.769 -0.0573 -0.0565  0.2326
 5422W        W23626   1.314  11.211   4.667 -0.1388  0.0419  0.2519
 5423W        W23627   4.598   3.001  16.643 -0.0010 -0.1631 -0.0142
 5424W        W23628   2.806  14.848  14.277 -0.0326  0.0896 -0.2850
 5425W        W23629   3.164   6.404   5.278  0.0185 -0.1136 -0.1947
 5426W        W23630   2.626   4.767   2.284 -0.0285  0.1055  0.3174
 5427W        W23631  17.370  12.298  12.202  0.0114  0.1223 -0.0446
 5428W        W23632  14.536   3.448   2.498 -0.1051  0.3682  0.1593
 5429W        W23633  16.271  15.028   2.772  0.0544 -0.1262 -0.3182
 5430W        W23634   5.023  17.215   4.200 -0.3995 -0.2959  0.2544
 5431W        W23635   6.195  13.490  13.729 -0.0409  0.2794 -0.0158
 5432W        W23636   9.330   0.625  15.499  0.1703 -0.0367 -0.1123
 5433W        W23637  11.426   9.514  14.548 -0.1084  0.2136  0.2893
 5434W        W23638   4.056   3.283  15.865 -0.1633  0.0008  0.0388
 5435W        W23639  14.347   6.280  13.549  0.2790 -0.0742  0.0441
 5436W        W23640  13.104  10.378   2.158 -0.2411 -0.2132  0.0147
 5437W        W23641   6.186   7.713  15.753  0.1947 -0.3122  0.4261
 5438W        W23642   6.603  11.253  15.657 -0.0866  0.1571 -0.1360
 5439W        W23643   5.202   1.619  13.366 -0.1709  0.3241 -0.0097
 5440W        W23644  13.086   0.999   2.404  0.4562  0.1884  0.1266
 5441W        W23645   6.572  17.271   0.601  0.1311  0.3577  0.1167
 5442W        W23646   9.468  16.031  16.242  0.1518  0.1696 -0.1368
 5443W        W23647  13.568   4.660   4.333 -0.1629  0.0719  0.1577
 5444W        W23648   0.630   7.473   1.354 -0.0313 -0.2997  0.0478
 5445W        W23649   5.396  13.248   2.130  0.6613  0.1113 -0.1962
 5446W        W23650  15.788   6.814  15.957 -0.1074  0.2448 -0.1713
 5447W        W23651  15.163   8.300   1.871  0.2428  0.2079  0.0506
 5448W        W23652   4.906   0.475   1.157 -0.1292  0.1550 -0.1146
 5449W        W23653  13.888   3.299   4.145  0.0901 -0.2994 -0.1329
 5450W        W23654   6.972  14.137  14.012 -0.2787 -0.0661 -0.2902
 5451W        W23655   8.608   6.988   1.093  0.1267  0.0635 -0.1710
 5452W        W23656  14.329   4.908   5.156  0.1429  0.2081 -0.1414
 5453W        W23657   1.708   0.697  17.217 -0.0604 -0.0215  0.1869
 5454W        W23658  10.857   1.591   1.931 -0.1524  0.1621  0.0360
 5455W        W23659   5.235   6.383  13.892 -0.1696  0.2563  0.1484
 5456W        W23660  17.542   8.977   2.556 -0.2136  0.1246 -0.3363
 5457W        W23661  16.303   8.488  16.651  0.0427 -0.2183 -0.2595
 5458W        W23662   4.493  14.302  14.512 -0.3000  0.0153 -0.1068
 5459W        W23663  16.273  14.681  13.473 -0.5412  0.2895 -0.0595
 5460W        W23664  11.591   7.845   2.528  0.0506  0.0808 -0.1193
 5461W        W23665  16.242   8.099   1.136 -0.1000  0.1505 -0.1966
 5462W        W23666  14.813   3.822  16.903 -0.0066 -0.3638 -0.2367
 5463W        W23667  14.886  14.183   4.125  0.1886 -0.1352  0.1592
 5464W        W23668   5.495   0.623   2.620  0.0108  0.0499  0.4192
 5465W        W23669   0.234  12.764   0.745 -0.2882 -0.2265 -0.1381
 5466W        W23670  15.986   9.686   3.834 -0.1399  0.0622 -0.4394
 5467W        W23671   7.819   1.324   2.887  0.3768  0.0445  0.3856
 5468W        W23672  16.972  15.046   4.603  0.1528  0.1268  0.2028
 5469W        W23673   7.014  17.106   4.378  0.0885 -0.1936  0.2481
 5470W        W23674   4.513   6.928  15.047  0.0395 -0.0194 -0.2359
 5471W        W23675   7.225   2.390  13.686 -0.1551 -0.2237 -0.0190
 5472W        W23676   2.690   7.149  14.646 -0.0482  0.1003  0.0630
 5473W        W23677  11.574  10.498  15.792 -0.1161 -0.1091 -0.0058
 5474W        W23678  16.531  11.181  16.032 -0.0613 -0.1469  0.1674
 5475W        W23679  13.911   8.291   1.831  0.2643 -0.0451 -0.0048
 5476W        W23680   7.516   4.141  14.837  0.0688 -0.2244 -0.0581
 5477W        W23681   3.747   7.841   1.111 -0.0901 -0.0715  0.0097
 5478W        W23682   9.015   3.480   3.077  0.0104  0.2402 -0.0814
 5479W        W23683  16.559   4.631   2.366 -0.1033  0.2435 -0.2526
 5480W        W23684   0.852   0.749  14.994  0.4015 -0.1268 -0.4521
 5481W        W23685  15.698   4.279   3.836  0.1830 -0.2321 -0.0088
 5482W        W23686  10.926   1.657   3.417 -0.0513  0.6237  0.1055
 5483W        W23687   9.748  15.390  14.672 -0.0742  0.2439  0.3183
 5484W        W23688   5.137  12.339   5.026  0.0283 -0.2420  0.0536
 5485W        W23689   2.625   1.006   0.363  0.0195  0.1563  0.1083
 5486W        W23690   1.440  10.501   4.269  0.0006 -0.2143  0.4344
 5487W        W23691   4.879   9.460  13.487 -0.0278 -0.5245  0.1441
 5488W        W23692   1.379  16.437  16.586 -0.3096  0.0957 -0.1934
 5489W        W23693  14.072   6.791   1.738 -0.2205  0.0645  0.0260
 5490W        W23694   6.545  13.801  12.960 -0.1561 -0.2180  0.1621
 5491W        W23695   7.162   2.575  13.254 -0.1246 -0.1126 -0.0142
 5492W        W23696  11.962   0.192  14.630  0.5358 -0.2337 -0.0998
 5493W        W23697   5.244   3.328  12.329 -0.2962 -0.1348 -0.2090
 5494W        W23698   5.336   4.913  12.942  0.0098  0.5797  0.2047
 5495W        W23699   2.028   7.808  15.440  0.1213 -0.4114 -0.0927
 5496W        W23700   8.834   7.213  15.110  0.1305 -0.0157 -0.2971
 5497W        W23701  15.162  11.241   2.687  0.1836  0.0333  0.0034
 5498W        W23702  15.023   9.439   2.624  0.2901  0.2149  0.0945
 5499W        W23703   9.010   4.079   3.747  0.1008 -0.2050  0.0134
 5500W        W23704   8.362   5.434   4.576 -0.0204 -0.1914 -0.0931
 5501W        W23705  17.502   2.730   0.926  0.1517 -0.0115 -0.1847
 5502W        W23706   7.657   1.645   4.682  0.0207  0.1312 -0.0692
 5503W        W23707  17.051  12.187  16.318 -0.0138 -0.0697 -0.1029
 5504W        W23708  10.711   3.560   3.142 -0.0484  0.0561 -0.1356
 5505W        W23709  13.753  11.147  12.250 -0.0817  0.1960 -0.1278
 5506W        W23710   2.194   7.807  13.299 -0.1843 -0.1720 -0.2460
 5507W        W23711   4.063   9.729  15.854  0.0254  0.3120  0.1557
 5508W        W23712  14.666  14.483  11.267  0.0588  0.0424  0.1465
 5509W        W23713   2.338   9.833   3.548 -0.1593  0.1078 -0.3451
 5510W        W23714   3.575  11.931  14.461 -0.1130 -0.0520  0.1183
 5511W        W23715   8.771  17.112   5.397 -0.2207  0.0677  0.0053
 5512W        W23716   2.348   4.445  16.238  0.1935 -0.2370 -0.3102
 5513W        W23717  12.550  11.938   1.876  0.1068 -0.0236 -0.1067
 5514W        W23718   6.330   4.943  16.353 -0.3835  0.1625  0.1401
 5515W        W23719  12.285   6.866  12.588  0.1514  0.3706  0.1676
 5516W        W23720   0.489   5.888  14.799 -0.2552 -0.3515  0.0329
 5517W        W23721   8.688   6.555   4.193  0.2459 -0.1725 -0.3648
 5518W        W23722   9.406  12.469  11.652 -0.1835  0.1262  0.0765
 5519W        W23723   7.985  16.092   2.407 -0.0351  0.1796 -0.2398
 5520W        W23724   1.645  15.407   0.647  0.1133  0.1379  0.1121
 5521W        W23725  10.046  12.772   3.653 -0.0720 -0.0707  0.1226
 5522W        W23726   5.027   5.078  12.556 -0.1139 -0.3447  0.0881
 5523W        W23727  14.456  11.628   0.843 -0.0321 -0.1699 -0.0334
 5524W        W23728   1.670  11.447   1.455 -0.1680  0.1029 -0.1626
 5525W        W23729  14.658   5.257   3.878  0.0476 -0.0468  0.1484
 5526W        W23730   1.899   3.025   2.986 -0.2822 -0.1700 -0.1164
 5527W        W23731  16.285   8.293  12.240  0.0062  0.1632  0.0843
 5528W        W23732   7.909   4.673  11.842 -0.0052 -0.1107 -0.3417
 5529W        W23733   0.944   7.119  16.597  0.2980 -0.2203  0.0548
 5530W        W23734   6.741  13.241  12.324  0.2254 -0.2495  0.1384
 5531W        W23735   3.540   9.300  15.014 -0.0342 -0.0096 -0.0676
 5532W        W23736  12.282  12.620  13.531  0.1073 -0.1105 -0.0369
 5533W        W23737   3.361   5.105  13.481 -0.2715  0.1440 -0.4371
 5534W        W23738  14.624   8.323  14.640 -0.1755  0.1490 -0.0563
 5535W        W23739   8.568  15.011   1.752 -0.0987 -0.1006  0.0470
 5536W        W23740  14.682   5.705  13.255  0.1335  0.3122  0.1322
 5537W        W23741   5.081  15.056  15.877 -0.0226  0.1516 -0.1443
 5538W        W23742   1.487   8.601  13.559  0.1001  0.0451  0.0910
 5539W        W23743  10.285   7.416   0.756 -0.1945 -0.1779 -0.0184
 5540W        W23744  17.385   5.946   0.163 -0.1945  0.1540 -0.2343
 5541W        W23745  16.545   8.250   4.347 -0.2155 -0.0984 -0.1469
 5542W        W23746  14.356   1.537  13.449 -0.1012 -0.1776 -0.1962
 5543W        W23747   9.428  14.908  16.561 -0.0775  0.1730  0.2587
 5544W        W23748   1.417  13.537  12.025 -0.3543 -0.0465 -0.0750
 5545W        W23749  12.592  14.539   0.324 -0.0839 -0.0991  0.1337
 5546W        W23750   3.794   9.275   0.812  0.1193  0.0302  0.0155
 5547W        W23751  11.321   6.291  12.851 -0.1793  0.1078  0.0729
 5548W        W23752  14.154  16.671  12.603  0.2095  0.0362 -0.2130
 5549W        W23753  11.839   7.239   1.454  0.3345 -0.0879  0.0886
 5550W        W23754  16.029   0.333   1.053 -0.3076 -0.2517  0.1364
 5551W        W23755  17.472  13.967   3.168 -0.4197 -0.0837 -0.0053
 5552W        W23756   7.451  13.209   0.723  0.2022  0.0041 -0.5468
 5553W        W23757  15.868   0.053  15.090  0.2904  0.0713 -0.2998
 5554W        W23758   5.159  14.396  15.704 -0.0588  0.0567 -0.2577
 5555W        W23759   4.154   6.776   2.075  0.0121  0.1906  0.1764
 5556W        W23760   0.739  15.554   2.282 -0.0521 -0.1358  0.1151
 5557W        W23761   7.546   3.949  15.786  0.1080  0.1128  0.0917
 5558W        W23762  10.358  11.571  12.370 -0.1541  0.3544 -0.0095
 5559W        W23763   0.573   4.269   2.194 -0.2333 -0.3241 -0.0294
 5560W        W23764  14.068   2.853  16.359  0.1873  0.2284  0.0983
 5561W        W23765   0.977  14.449   4.862 -0.1836 -0.2303 -0.0158
 5562W        W23766  15.936   9.606   2.261  0.0221 -0.5506  0.2160
 5563W        W23767   2.056   2.992  17.051 -0.2549  0.1112  0.2644
 5564W        W23768  14.408   1.780   4.370 -0.0321  0.2959  0.1148
 5565W        W23769  14.372   7.012   3.043 -0.5905  0.0110  0.1132
 5566W        W23770  13.958   8.056   1.328  0.0384 -0.4697 -0.0230
 5567W        W23771  13.827   7.185  17.229  0.1622  0.6037  0.2055
 5568W        W23772   1.836   4.645   0.430  0.0441 -0.0125 -0.0836
 5569W        W23773  14.088   1.401   1.424 -0.2176 -0.2192  0.1176
 5570W        W23774   8.040   4.313  13.986  0.3038 -0.0004 -0.0131
 5571W        W23775  13.047   4.428  15.942  0.1543  0.6102 -0.0218
 5572W        W23776   2.071  12.839  12.457 -0.3056 -0.0642 -0.0748
 5573W        W23777   0.301  15.252   2.902 -0.0917  0.0597  0.0033
 5574W        W23778   5.546  11.685  14.353 -0.1335  0.0333 -0.1541
 5575W        W23779  11.642  13.857   4.315 -0.1280  0.0369  0.1110
 5576W        W23780   9.777   5.901  12.669  0.2954  0.0160 -0.4329
 5577W        W23781  17.142  15.313   1.786  0.0461 -0.2001 -0.1005
 5578W        W23782  13.523   3.072  13.805  0.1165  0.0918  0.1817
 5579W        W23783   6.941   4.552  15.694 -0.1132  0.3980 -0.0818
 5580W        W23784  15.439  15.097   3.604 -0.0714 -0.2142 -0.0579
 5581W        W23785   8.930   7.669  12.606 -0.2282 -0.0154  0.2826
 5582W        W23786   8.388   6.954   0.654 -0.1290  0.2686  0.2158
 5583W        W23787  11.239   2.970   2.243 -0.0168 -0.0809  0.3106
 5584W        W23788  10.081  11.809  11.950 -0.1337  0.2567  0.0990
 5585W        W23789   2.997  11.962   0.497  0.0649  0.3491 -0.1468
 5586W        W23790   0.288  17.364   3.351 -0.4272 -0.0534  0.0613
 5587W        W23791  11.350  16.786  14.929  0.0834  0.0655 -0.1980
 5588W        W23792  14.718   3.749   2.965 -0.0719  0.0642  0.0155
 5589W        W23793   9.243   3.341   1.066  0.2316 -0.1006  0.0687
 5590W        W23794  14.734  13.644  15.472  0.2410 -0.1494 -0.3329
 5591W        W23795   8.772  11.560  17.251  0.1108  0.0114  0.1062
 5592W        W23796   4.485   1.298   3.784 -0.0557 -0.0212  0.0607
 5593W        W23797   0.964   5.585  15.628  0.0601  0.1351 -0.4278
 5594W        W23798  14.330  12.443  15.467 -0.1720 -0.0488  0.0525
 5595W        W23799  12.786  10.662   2.365  0.2074  0.0618 -0.3153
 5596W        W23800   2.603  11.646   1.689 -0.0976  0.0056  0.1448
 5597W        W23801   3.129   6.376  16.999 -0.0690 -0.0432 -0.2168
 5598W        W23802  11.771   8.179  13.879 -0.0694  0.2784  0.1144
 5599W        W23803   7.894   2.106   0.069 -0.2012 -0.2049  0.0807
 5600W        W23804   0.304   5.418   4.838 -0.2220  0.0998  0.1581
 5601W        W23805   2.069   9.550   4.829  0.2310  0.0250  0.1857
 5602W        W23806  17.006   8.273  14.496 -0.0092  0.0373 -0.2409
 5603W        W23807  12.052   0.606   3.555 -0.0689 -0.0147  0.0099
 5604W        W23808  13.246   8.764  15.503  0.2279  0.2596  0.0509
 5605W        W23809   1.429   5.326  16.883  0.5119 -0.0822 -0.1624
 5606W        W23810  13.116   6.827   4.500 -0.2123  0.1789  0.2926
 5607W        W23811   2.040   4.752   1.610  0.1201 -0.2135  0.0572
 5608W        W23812   1.185   5.022  13.941  0.0606 -0.2669 -0.0559
 5609W        W23813   0.692   5.353  13.995  0.2150  0.2964 -0.0823
 5610W        W23814  15.831   7.623   1.874 -0.1111  0.2577  0.2291
 5611W        W23815  13.020   3.869  12.057 -0.0616 -0.1934 -0.0507
 5612W        W23816   7.337  12.799   2.026  0.2766 -0.0065  0.3151
 5613W        W23817  12.262   7.180  15.344 -0.0884  0.2024  0.1143
 5614W        W23818   0.134  17.034   2.988  0.2127 -0.1668  0.2918
 5615W        W23819   1.367  16.469   5.468  0.0453  0.1279 -0.3412
 5616W        W23820  12.717   0.481  14.028 -0.2442 -0.2586  0.0477
 5617W        W23821   6.594   5.785   4.813 -0.1879 -0.1354 -0.2184
 5618W        W23822   6.788   0.831  16.405 -0.0459 -0.0613  0.0805
 5619W        W23823  15.055  10.075   0.020  0.1914  0.0211 -0.0298
 5620W        W23824   3.677  14.993  14.401  0.0555  0.1409  0.0917
 5621W        W23825   3.029  15.062   1.044  0.1741 -0.0447 -0.0134
 5622W        W23826   3.428   4.820   2.730  0.1286 -0.1557  0.0615
 5623W        W23827   6.108   8.642  13.579  0.1002 -0.2541 -0.4429
 5624W        W23828   6.148   7.123   2.230  0.2252  0.3078 -0.0218
 5625W        W23829  14.729  16.718   2.537 -0.0423 -0.1758 -0.0238
 5626W        W23830  12.643   1.723  15.701 -0.0933 -0.1571 -0.1990
 5627W        W23831  14.196  14.425   0.448  0.1202 -0.0444  0.1023
 5628W        W23832   9.663   1.241  12.320  0.1969  0.1809 -0.1936
 5629W        W23833  12.187  16.101  12.386  0.0093 -0.0399  0.1084
 5630W        W23834   3.771  12.396  15.242  0.2591 -0.0072  0.3621
 5631W        W23835   1.255  12.672   2.840 -0.1243  0.0421 -0.1875
 5632W        W23836   4.042  16.822  15.108 -0.2055  0.4266  0.0275
 5633W        W23837   9.865   8.843  13.313  0.1016  0.1098  0.1439
 5634W        W23838  12.758  12.161   1.422  0.0472 -0.2816 -0.1390
 5635W        W23839   6.393   9.835   4.677 -0.1889 -0.2104  0.2577
 5636W        W23840   5.570  13.984  12.557  0.0328 -0.1149  0.0915
 5637W        W23841  14.307  17.406  17.141 -0.2420 -0.1453 -0.0362
 5638W        W23842   5.603   8.106  16.253 -0.0265  0.0535 -0.0152
 5639W        W23843  17.047   5.057  16.082 -0.1531  0.1801  0.4325
 5640W        W23844  16.290   0.419  12.123  0.3214  0.0299  0.0120
 5641W        W23845   9.728   3.263   1.022 -0.0853 -0.0095 -0.1535
 5642W        W23846   5.376  14.322  12.205 -0.2941 -0.0956  0.0146
 5643W        W23847   5.552   5.151   3.425 -0.0497  0.0731  0.0442
 5644W        W23848  12.524   4.158  14.822 -0.2007 -0.1425  0.0546
 5645W        W23849  14.222   7.230   6.367 -0.0534  0.1562 -0.2372
 5646W        W23850   0.566  15.103   2.485  0.3178 -0.1628 -0.0344
 5647W        W23851  12.987  17.472  16.198  0.1612  0.1604  0.2562
 5648W        W23852  16.575   8.090  16.470  0.2495 -0.1184  0.0390
 5649W        W23853  12.751  16.737   1.974 -0.0548  0.0153 -0.0286
 5650W        W23854   2.119  10.177  15.574 -0.1608  0.3164 -0.2656
 5651W        W23855   4.450   2.384   4.180  0.1962  0.3224  0.1437
 5652W        W23856   8.545   1.549  14.376  0.0709 -0.0901  0.0481
 5653W        W23857  10.697   3.663   3.680  0.4225 -0.2887 -0.1420
 5654W        W23858  14.594  11.871   2.414 -0.3503  0.1498  0.2851
 5655W        W23859   6.690   9.320   4.017  0.2139 -0.0169 -0.1432
 5656W        W23860  16.391   1.370   4.676 -0.0415  0.0310  0.0013
 5657W        W23861   2.981  12.877  12.892 -0.1069  0.1455  0.0889
 5658W        W23862   3.255   9.471  16.281 -0.2282  0.2551 -0.0261
 5659W        W23863   4.288  12.277   3.689 -0.1008  0.2657 -0.0795
 5660W        W23864   8.700   2.375   3.106  0.0697  0.2812  0.0218
 5661W        W23865   8.773  12.237  12.083 -0.0574 -0.0757  0.2512
 5662W        W23866  16.035  15.386   3.109  0.1133  0.1760 -0.0421
 5663W        W23867  10.398   8.800  12.611 -0.0952 -0.0832  0.3353
 5664W        W23868   8.752  11.984  15.795  0.3759  0.2167 -0.0849
 5665W        W23869   7.430   1.605  14.312 -0.0569 -0.2430  0.0170
 5666W        W23870  14.597   2.137  12.205  0.0501  0.1295  0.0374
 5667W        W23871  12.515  16.350   0.699 -0.2909  0.1352 -0.2369
 5668W        W23872   6.660   7.502  11.966  0.1622 -0.1784 -0.0335
 5669W        W23873  12.441   0.903  16.865  0.2396 -0.0476  0.1659
 5670W        W23874  10.822  10.297  15.811  0.1249  0.1620  0.3321
 5671W        W23875  10.215  12.356   2.656  0.0147  0.0133  0.1277
 5672W        W23876   8.084  14.466   4.051  0.0069  0.3467 -0.0177
 5673W        W23877  11.495   0.643  15.406  0.1015  0.1857  0.0783
 5674W        W23878  12.499  11.726   3.313  0.1505 -0.0078  0.2449
 5675W        W23879   6.730   4.896   5.152 -0.0296  0.0551  0.1771
 5676W        W23880  15.435  10.209  12.965 -0.1147  0.0055 -0.1244
 5677W        W23881   3.366  13.208  12.513 -0.2699 -0.1320  0.1817
 5678W        W23882   7.000  10.507   4.680 -0.1995  0.1237 -0.1331
 5679W        W23883  12.741   1.526   1.087 -0.1733 -0.1719  0.2111
 5680W        W23884   0.292  16.522  14.207  0.0130  0.0134  0.1829
 5681W        W23885   7.524   6.501   5.992  0.0112  0.0913 -0.0871
 5682W        W23886  10.879  13.792  12.302 -0.1723 -0.2695 -0.1643
 5683W        W23887   2.813   5.341   3.898  0.0397 -0.1375 -0.0736
 5684W        W23888  14.297   1.489  16.445  0.2639  0.0266  0.4583
 5685W        W23889   9.750   9.324  13.457  0.0650  0.0457 -0.0150
 5686W        W23890  13.768  12.900   2.942  0.2700  0.1558  0.0542
 5687W        W23891  13.539  16.746   0.122 -0.3164 -0.2744 -0.0991
 5688W        W23892  12.933  11.732  12.892 -0.1130  0.3822 -0.0320
 5689W        W23893  16.229   2.532  12.931 -0.2498  0.1335  0.2043
 5690W        W23894   0.885   0.203   4.511  0.0464 -0.4510  0.1912
 5691W        W23895   8.654  11.353  16.427 -0.0737 -0.4660 -0.2432
 5692W        W23896  16.540  15.006  13.830 -0.0293 -0.1089 -0.0330
 5693W        W23897  14.745  12.191   5.470  0.2961 -0.0314 -0.2894
 5694W        W23898   8.579   2.501   1.833 -0.2336  0.1270 -0.3677
 5695W        W23899   4.136  13.697  14.002  0.0337 -0.1417 -0.3344
 5696W        W23900  16.273   2.873  17.181 -0.1347  0.0253 -0.1930
 5697W        W23901  14.932  14.611   3.607 -0.0898  0.2250  0.1664
 5698W        W23902  12.037   3.622  15.479 -0.2266 -0.1642  0.1041
 5699W        W23903  17.246   6.652   0.235  0.3167 -0.4185 -0.0769
 5700W        W23904   3.580  15.620  17.201 -0.0281 -0.1614 -0.1025
 5701W        W23905  15.847  11.188   3.271 -0.0273 -0.0743  0.1914
 5702W        W23906  10.326   9.261   1.924 -0.1475 -0.2410  0.0527
 5703W        W23907   9.380  12.672   5.241 -0.0399  0.0513 -0.1452
 5704W        W23908   7.226   9.190   2.725 -0.0192 -0.1383 -0.2573
 5705W        W23909  11.882   9.609   2.582 -0.0144  0.3050  0.1121
 5706W        W23910  14.641   4.677  15.791  0.3127  0.1625 -0.1302
 5707W        W23911   2.169   3.925  14.902 -0.2718  0.0342 -0.0262
 5708W        W23912  11.738  14.162   2.644 -0.3464  0.2100 -0.2604
 5709W        W23913  10.820   9.286   1.555  0.2776  0.2804  0.2106
 5710W        W23914   3.608   8.879  14.382 -0.0643 -0.0515 -0.1145
 5711W        W23915  15.360  12.163   4.281 -0.4794  0.2081  0.1054
 5712W        W23916   9.147   7.409  16.294 -0.1833  0.3340 -0.0632
 5713W        W23917  13.610   3.306  15.260 -0.0361 -0.0084  0.0594
 5714W        W23918   0.883  11.525  14.340  0.3040 -0.0591  0.1635
 5715W        W23919  17.528  13.368  16.656 -0.1908 -0.3345  0.0529
 5716W        W23920   6.326  17.283   1.095  0.0081  0.1597  0.0301
 5717W        W23921   9.863  10.469  15.666 -0.0405  0.0940  0.0373
 5718W        W23922   1.145   5.562   2.481 -0.0221  0.1432 -0.2558
 5719W        W23923   3.957  13.626  15.876  0.1706 -0.1034 -0.0961
 5720W        W23924   2.353   6.335   0.780 -0.1471 -0.0720 -0.0350
 5721W        W23925   5.433   9.298  15.755  0.1496 -0.2693 -0.0659
 5722W        W23926  11.365   9.864  16.566  0.0886  0.1578 -0.0096
 5723W        W23927   8.126   3.431  16.624 -0.0096 -0.0643  0.0727
 5724W        W23928   2.011   5.909   1.483  0.1435 -0.2354  0.2658
 5725W        W23929   9.237   3.622  15.842 -0.2380  0.0051  0.0000
 5726W        W23930  13.744  13.677  12.391 -0.0420 -0.0614 -0.1812
 5727W        W23931  13.401  14.913  17.203 -0.1498  0.0984  0.0025
 5728W        W23932   7.079   2.167   2.326 -0.1195  0.3084 -0.1207
 5729W        W23933   4.878  13.957  14.424 -0.1975  0.1548 -0.0665
 5730W        W23934  11.938   1.943   3.627 -0.1262 -0.0594  0.2711
 5731W        W23935  15.639  12.953   4.640  0.1368 -0.2958 -0.0787
 5732W        W23936   0.380  10.202   0.321  0.1741  0.4528  0.1173
 5733W        W23937   8.797   0.848   2.860 -0.1136 -0.0529  0.0845
 5734W        W23938   8.189  12.398  16.471 -0.3557  0.0910  0.2954
 5735W        W23939   8.291   0.142  15.158 -0.4736  0.1752 -0.0563
 5736W        W23940  16.554  15.472   5.869  0.0648  0.3128  0.2377
 5737W        W23941   2.812  15.851  14.687  0.0545  0.0473  0.3601
 5738W        W23942  12.069  16.413   4.070  0.1013 -0.3127 -0.0354
 5739W        W23943   3.141  16.131   1.367  0.0986 -0.1725  0.2662
 5740W        W23944  12.518   7.176   4.159  0.0146 -0.2659  0.4772
 5741W        W23945  13.933  14.015   0.498 -0.0764  0.0978  0.1254
 5742W        W23946   9.957   8.599  16.208 -0.1082 -0.1019 -0.0405
 5743W        W23947   8.322   5.735  16.905  0.1053 -0.3034 -0.2913
 5744W        W23948   8.971   2.779  15.490 -0.3077 -0.0010  0.2095
 5745W        W23949   1.695  13.600   3.897  0.2338  0.3670  0.0565
 5746W        W23950  13.518   2.807  13.320  0.0947  0.0091 -0.2093
 5747W        W23951   7.478   8.935   3.402 -0.1406 -0.2714  0.1924
 5748W        W23952   9.211   6.198   1.080  0.0859 -0.1081 -0.4269
 5749W        W23953   2.905   4.821  14.369  0.1099  0.1709  0.0637
 5750W        W23954  13.173  11.547  14.647  0.2882 -0.1825 -0.1273
 5751W        W23955   9.653  16.993  14.415 -0.1849  0.0610  0.1218
 5752W        W23956   5.459   3.832  16.963 -0.1192 -0.0606  0.0369
 5753W        W23957  16.091   9.159   2.443  0.1164  0.1462 -0.1061
 5754W        W23958   3.943   3.683   3.851 -0.0961 -0.0282 -0.4525
 5755W        W23959   3.327   2.513  16.519 -0.2628 -0.0022  0.0508
 5756W        W23960   3.961   8.201  12.014 -0.1452  0.1020 -0.3120
 5757W        W23961   6.154   0.909   1.875  0.2837  0.5081  0.1938
 5758W        W23962  11.497  10.981  15.806  0.2246  0.0659 -0.1433
 5759W        W23963   1.939   3.376  12.369  0.0382 -0.2195 -0.0065
 5760W        W23964   4.528  16.775  16.656  0.1534 -0.0018  0.0922
 5761W        W23965   9.844  11.378   4.867 -0.0739 -0.0381  0.1483
 5762W        W23966  12.926  12.577   1.163 -0.1686  0.0558 -0.1910
 5763W        W23967  10.775  13.923   5.368  0.0314 -0.1526  0.0118
 5764W        W23968  11.096  12.453  13.305 -0.0921 -0.0197 -0.2941
 5765W        W23969   8.324  10.472   3.256  0.2305  0.0891  0.4192
 5766W        W23970   8.065  16.172   4.185 -0.0374  0.1177 -0.1273
 5767W        W23971  14.340  14.702   1.684  0.0890 -0.0983 -0.1482
 5768W        W23972  13.205  10.008  15.783 -0.0045 -0.1222 -0.2695
 5769W        W23973  16.247  12.281  13.573 -0.1509  0.2140  0.1818
 5770W        W23974   0.325  13.054   2.764  0.1745 -0.0058  0.3520
 5771W        W23975  17.430   6.423   1.342 -0.0321  0.1604  0.0737
 5772W        W23976  16.891   9.781   1.798  0.2362 -0.2147  0.3242
 5773W        W23977  16.085  15.416  11.963  0.2758  0.2820  0.1881
 5774W        W23978  16.594  14.060   3.953 -0.0015 -0.2902  0.1811
 5775W        W23979   1.561   1.105   5.047 -0.2608  0.0155 -0.0760
 5776W        W23980   1.451  13.082   0.247  0.3076  0.1134  0.0248
 5777W        W23981   3.515  10.252  15.067 -0.3500 -0.0287  0.2706
 5778W        W23982  10.156   9.664  14.184  0.0534  0.1481 -0.0279
 5779W        W23983  12.905  13.584   4.982 -0.2688  0.1072  0.0197
 5780W        W23984  12.099   3.898   3.349  0.2339  0.2887  0.0099
 5781W        W23985  14.774  14.758   1.270  0.0107 -0.2054  0.1943
 5782W        W23986   2.865  16.481  15.388 -0.0182  0.0736 -0.1017
 5783W        W23987   4.134   2.398  14.254 -0.0012  0.4593  0.1231
 5784W        W23988   1.920   0.752  15.019  0.2964 -0.3567 -0.1336
 5785W        W23989  10.918   8.845  15.733  0.1838 -0.1459  0.2188
 5786W        W23990  13.094  12.026  13.350  0.1367  0.0013 -0.3139
 5787W        W23991   2.873   3.654  12.677  0.3708  0.0991  0.1182
 5788W        W23992   8.387   9.329  14.089 -0.2651 -0.1248 -0.1333
 5789W        W23993   8.810  16.538  17.102  0.2684 -0.2162 -0.3034
 5790W        W23994   5.700   8.928   4.802  0.4238 -0.0509 -0.0128
 5791W        W23995   2.580  17.369  14.997  0.0082  0.2393  0.0765
 5792W        W23996  11.138   9.464  13.084 -0.0769 -0.0095  0.4935
 5793W        W23997   9.093   6.703  14.756  0.1498  0.0800 -0.3384
 5794W        W23998   4.607  12.733  12.225 -0.1601  0.0015  0.1936
 5795W        W23999  12.488   0.911   3.152 -0.2383 -0.0873 -0.1069
 5796W        W24000  10.439  14.977   5.070 -0.0356 -0.1474 -0.3248
 5797W        W24001   6.722  11.289   1.786 -0.2951  0.2881 -0.2826
 5798W        W24002  15.181  10.689   1.627 -0.0923 -0.0351  0.0791
 5799W        W24003  12.502  10.788  12.515  0.0185  0.1474  0.0073
 5800W        W24004   9.857  15.836  13.494  0.3774 -0.2355 -0.4451
 5801W        W24005   3.243   4.038  15.579  0.0925  0.0479  0.0705
 5802W        W24006  11.058  10.118  15.228 -0.1266 -0.1818  0.0483
 5803W        W24007   7.343  12.367  15.222 -0.0961  0.0604  0.1837
 5804W        W24008   8.673   8.283   2.884  0.1852 -0.1002 -0.2656
 5805W        W24009   1.837   3.845   4.953  0.1538  0.3248 -0.1963
 5806W        W24010   5.884   0.039  16.266 -0.1459 -0.3457 -0.0042
 5807W        W24011   3.103   7.649   0.188  0.1753  0.1772  0.1447
 5808W        W24012  16.381  16.728   1.887  0.1010 -0.3355 -0.0700
 5809W        W24013  11.964  17.186  16.925 -0.1173 -0.1799 -0.0311
 5810W        W24014  12.032  16.561  16.074  0.0464  0.2935  0.2034
 5811W        W24015  14.686   3.130  12.778  0.1238  0.2171 -0.1228
 5812W        W24016   0.882  17.266   5.014 -0.2938  0.1840  0.0518
 5813W        W24017   9.607   3.535  14.569  0.1141 -0.0300 -0.1659
 5814W        W24018  10.753   7.157  12.594  0.0884 -0.0679  0.0839
 5815W        W24019   0.098   0.322   0.701  0.6502  0.3448  0.1247
 5816W        W24020  10.776   3.829  12.624 -0.0719 -0.1073  0.0776
 5817W        W24021   3.443  14.005  12.311  0.3088  0.2281 -0.1532
 5818W        W24022   0.301  14.656  13.040  0.0034  0.0901 -0.0826
 5819W        W24023  11.381  11.092   2.403 -0.1025 -0.3470 -0.1322
 5820W        W24024  10.622   1.387  12.740  0.0269  0.0419 -0.2358
 5821W        W24025   9.266   9.816  15.132  0.2687 -0.4171 -0.1509
 5822W        W24026   1.835   5.143  13.439 -0.4780  0.1438  0.0021
 5823W        W24027   1.046   1.942  16.900 -0.1269  0.1155  0.1126
 5824W        W24028   8.400   7.538   5.909 -0.1091 -0.1618 -0.1456
 5825W        W24029  14.267   5.079   4.164  0.0668  0.1481 -0.2063
 5826W        W24030  17.047   1.017   2.264 -0.2067 -0.1422  0.1332
 5827W        W24031  10.096   0.491  12.435 -0.0151 -0.1046  0.2686
 5828W        W24032  13.478   6.296  16.392  0.0075  0.0002 -0.0117
 5829W        W24033   7.108   3.964   1.529 -0.1579  0.1697 -0.2093
 5830W        W24034  15.655   3.534   2.938 -0.1968 -0.2072 -0.0814
 5831W        W24035   4.205  10.431   0.979 -0.1145 -0.0335  0.0141
 5832W        W24036  10.835   2.198   5.010  0.1908  0.1042 -0.0362
 5833W        W24037  11.133   2.700   0.503 -0.0930  0.0958  0.2523
 5834W        W24038   7.508   6.046   0.853 -0.1926 -0.1882  0.0220
 5835W        W24039   0.740   3.501  16.070  0.2112 -0.2718  0.2003
 5836W        W24040  12.243   1.717  16.570  0.1425 -0.0898  0.1847
 5837W        W24041   8.333  13.995  11.767 -0.0728  0.0775  0.2785
 5838W        W24042   5.982  14.828  16.701 -0.0784  0.0289 -0.2837
 5839W        W24043  16.080   4.728   3.858 -0.1922  0.0612 -0.0550
 5840W        W24044   7.913  11.785   2.703 -0.3074  0.0664  0.3482
 5841W        W24045  14.726   8.136   2.332 -0.2431  0.0944  0.1434
 5842W        W24046  14.459  10.393  17.018  0.0766 -0.0582  0.0141
 5843W        W24047  13.427   5.793   4.712 -0.2059 -0.0594  0.4570
 5844W        W24048   4.858   4.451   4.834  0.3425  0.2623 -0.3230
 5845W        W24049   6.518  12.173  15.744 -0.0487 -0.3251  0.2422
 5846W        W24050  14.303  16.365  14.788 -0.0869  0.2522 -0.2768
 5847W        W24051   2.714   6.828   4.931 -0.0213 -0.4017 -0.0899
 5848W        W24052   7.338  14.838  11.374 -0.2821  0.1377 -0.0626
 5849W        W24053   9.933  14.203   4.374  0.2318 -0.0436 -0.0610
 5850W        W24054   2.018   6.133   2.370 -0.2012  0.0869 -0.1983
 5851W        W24055   1.606   4.296  14.828  0.0790 -0.0789  0.0664
 5852W        W24056   9.524   9.551   0.680 -0.3671  0.2582 -0.0611
 5853W        W24057  12.654   5.586  16.650 -0.0506 -0.2831 -0.2373
 5854W        W24058   8.991  14.908  17.256  0.2722 -0.1061 -0.3309
 5855W        W24059  11.992  11.391   0.341  0.0574 -0.3665 -0.2026
 5856W        W24060  16.298  15.869  15.552 -0.0119 -0.0010  0.0620
 5857W        W24061   9.091   1.356   4.985  0.0543 -0.3085 -0.0207
 5858W        W24062   9.416   7.994   1.762  0.2742  0.1875 -0.2067
 5859W        W24063  10.186  12.551  16.814 -0.2352 -0.2202 -0.0276
 5860W        W24064  11.449   2.494  13.050 -0.0215  0.0386  0.1071
 5861W        W24065   3.379   0.163  14.050 -0.1640  0.0067  0.2890
 5862W        W24066  12.304   0.162   0.449 -0.0244  0.0175  0.1785
 5863W        W24067  15.231  14.223  11.883  0.0062 -0.3937  0.2289
 5864W        W24068   2.665   5.501  13.900  0.0932 -0.0067 -0.3646
 5865W        W24069   1.479  11.387   3.638 -0.1298 -0.0474  0.3626
 5866W        W24070   6.603  12.337  14.441  0.2899  0.2299  0.0938
 5867W        W24071  13.881  15.301   2.755  0.0995 -0.1441 -0.1420
 5868W        W24072  15.891   4.596  15.417  0.0324 -0.2638 -0.0156
 5869W        W24073  16.893   9.926   4.439  0.0515  0.0592 -0.1298
 5870W        W24074  12.456  16.729  13.604  0.1133  0.1883  0.1351
 5871W        W24075   7.269  14.793   3.063  0.1237  0.0288 -0.0608
 5872W        W24076  14.371  14.450  13.804  0.0795 -0.3797 -0.2467
 5873W        W24077  13.402  16.499   3.236 -0.0635  0.1373 -0.2890
 5874W        W24078   1.293   4.417  12.527 -0.0954  0.3231 -0.0707
 5875W        W24079   0.452   2.492  12.903 -0.0425  0.0832 -0.1701
 5876W        W24080   1.039   6.218   2.169  0.0368  0.1244  0.0739
 5877W        W24081   8.693  13.791  16.287 -0.0566  0.0855 -0.4455
 5878W        W24082   2.192   7.974   0.221  0.2270  0.0725 -0.1375
 5879W        W24083  12.218  15.963   2.359 -0.1427 -0.1062 -0.0617
 5880W        W24084   6.260  15.930  15.371  0.2233 -0.0810 -0.0977
 5881W        W24085   8.565  14.741  16.944  0.0129 -0.1573 -0.2651
 5882W        W24086   4.963   7.654  14.919 -0.0043  0.1503 -0.1013
 5883W        W24087  15.075   7.308   3.592 -0.3582 -0.1586  0.0234
 5884W        W24088  12.077   3.893  16.769  0.1944 -0.1146 -0.0508
 5885W        W24089   4.939   8.203   1.633 -0.1158 -0.1393  0.0281
 5886W        W24090  15.228  14.436   1.921  0.0331  0.2370 -0.1269
 5887W        W24091   0.853   6.783   4.435  0.2987 -0.1666  0.0749
 5888W        W24092  10.315   9.947  12.823 -0.0400 -0.1464  0.1537
 5889W        W24093  15.104   4.118   0.304 -0.2598 -0.1201  0.1164
 5890W        W24094   2.509   9.463  13.054  0.0209  0.0024 -0.2076
 5891W        W24095  14.253   5.808   2.316  0.1551  0.3333 -0.1981
 5892W        W24096  13.970  11.945   3.832  0.0844  0.1205 -0.0937
 5893W        W24097  14.033  12.442   0.705  0.0137  0.2620 -0.1441
 5894W        W24098   7.948  15.591   0.636  0.1415  0.2256 -0.0910
 5895W        W24099  13.624   6.124   0.598  0.0808  0.3419 -0.1367
 5896W        W24100  16.274   5.105   3.632  0.0178  0.0720  0.0573
 5897W        W24101  14.317  15.708   3.575 -0.3709 -0.0607  0.0794
 5898W        W24102   3.121   7.335   2.783 -0.0161  0.2102 -0.2058
 5899W        W24103  10.099  17.013  14.162 -0.0939  0.3042  0.2987
 5900W        W24104  12.255  16.847  13.105  0.1656 -0.2256 -0.0272
 5901W        W24105  17.529   8.642   3.606  0.1745  0.0907  0.2972
 5902W        W24106  10.815  11.051   1.573 -0.0118 -0.1128 -0.1884
 5903W        W24107   6.198   3.836  16.047  0.0210 -0.0675  0.0539
 5904W        W24108   5.313   7.385   2.650 -0.0564  0.1850  0.1330
 5905W        W24109  14.750  13.178  15.081  0.2520  0.4194  0.2725
 5906W        W24110  15.286   1.445  12.081  0.0360  0.1786  0.2620
 5907W        W24111   1.908   1.806   3.502 -0.2530 -0.0221  0.1350
 5908W        W24112  10.518  10.328   0.746 -0.3170  0.0175 -0.1012
 5909W        W24113   8.737  15.336  15.038 -0.0881 -0.1991 -0.1790
 5910W        W24114   1.404   1.846  15.655  0.1185  0.1439  0.2540
 5911W        W24115  15.712  13.770  12.541  0.1677 -0.1881 -0.1069
 5912W        W24116  13.031  13.632   3.019 -0.1385  0.2984 -0.0140
 5913W        W24117   0.975   5.939  14.557  0.0406  0.2532  0.1110
 5914W        W24118   9.628  11.767   3.137 -0.2484  0.1441 -0.0266
 5915W        W24119   3.935  12.701  17.141  0.0720  0.0625 -0.1118
 5916W        W24120  11.082   3.018   4.759  0.0433 -0.1821 -0.0632
 5917W        W24121   1.564  12.104  12.757 -0.0004  0.2988 -0.3590
 5918W        W24122  16.227   4.728  12.016 -0.0981 -0.5990  0.1198
 5919W        W24123  14.168  12.721   4.872  0.0264 -0.0443 -0.0293
 5920W        W24124   8.675   5.890   2.885  0.1749 -0.2105  0.1903
 5921W        W24125  16.834   4.721   4.769  0.0036 -0.1223 -0.2350
 5922W        W24126   3.398   3.388  14.947 -0.1098  0.2385 -0.0141
 5923W        W24127   0.836   1.737   4.931  0.1394  0.0856  0.0824
 5924W        W24128  11.915  11.333  13.964 -0.0169  0.0672  0.0028
 5925W        W24129   9.966  12.145   4.760  0.1748  0.1079  0.0374
 5926W        W24130  11.817  17.048   0.381 -0.1737 -0.2840  0.0900
 5927W        W24131   4.599  11.290   0.690  0.2152  0.0934  0.1067
 5928W        W24132  12.348  13.358   4.039 -0.2492 -0.1406 -0.1497
 5929W        W24133  11.649   0.903   0.744  0.0009  0.0929  0.2014
 5930W        W24134  12.618   4.691   4.089 -0.1560 -0.0541 -0.1113
 5931W        W24135   8.775   9.829  16.420  0.0597  0.0066  0.0927
 5932W        W24136   8.809   7.487  15.536  0.0672 -0.1884  0.2476
 5933W        W24137   6.469   8.914   1.428  0.2152 -0.2134 -0.1022
 5934W        W24138   5.720  16.751  16.639  0.1518  0.1936  0.0105
 5935W        W24139  13.902  15.338   4.439  0.0708 -0.2604 -0.1508
 5936W        W24140   4.349   6.803  15.879  0.0874  0.1541 -0.0825
 5937W        W24141   1.346   1.116   0.922 -0.0748  0.0970  0.0537
 5938W        W24142  14.464   1.556  15.222 -0.2105  0.1806 -0.1398
 5939W        W24143  10.650  12.374   5.231 -0.2966 -0.0862  0.1917
 5940W        W24144  10.787   6.535   3.551  0.1940 -0.1445  0.0573
 5941W        W24145  10.589   4.284  12.412 -0.1023 -0.0260 -0.1788
 5942W        W24146  13.998   7.967   3.076  0.1761  0.1964 -0.0096
 5943W        W24147   4.577  10.785   3.329 -0.0074  0.0198  0.2718
 5944W        W24148   2.716   9.281  16.981 -0.2470 -0.3047  0.2884
 5945W        W24149   3.318   9.190   3.808  0.2770  0.0431 -0.1111
 5946W        W24150  12.500  10.189  11.082  0.2936 -0.2441  0.2230
 5947W        W24151   7.347   0.539  15.518 -0.1201  0.3268  0.0210
 5948W        W24152   6.746   5.609   1.951  0.3419  0.3353  0.3667
 5949W        W24153   5.370   7.969  14.520  0.0554  0.2227  0.1969
 5950W        W24154   4.629  17.299   2.936  0.1565 -0.1841  0.1073
 5951W        W24155  16.163   5.460   1.828  0.4524 -0.0216 -0.4604
 5952W        W24156  13.089   0.996   5.499 -0.1951  0.0446  0.0653
 5953W        W24157   0.908  16.366  13.823 -0.0659 -0.0653 -0.1172
 5954W        W24158  15.131   2.193  17.284  0.1394  0.0943 -0.1451
 5955W        W24159  13.349  15.063   5.142 -0.0748 -0.3639 -0.0638
 5956W        W24160  17.349  13.379   5.167  0.0907  0.0214 -0.2157
 5957W        W24161   9.644  11.735  15.426 -0.0477 -0.1582 -0.0057
 5958W        W24162  13.305   6.335   3.705 -0.0549 -0.0679 -0.1543
 5959W        W24163   3.014   4.748   4.009 -0.0425  0.1814 -0.1901
 5960W        W24164   6.158   9.940   0.535 -0.2196 -0.0011  0.0158
 5961W        W24165   1.954  14.460   1.170  0.2329  0.1741  0.2755
 5962W        W24166   4.037   7.948  14.370 -0.1942 -0.0461  0.0425
 5963W        W24167  12.647  15.183   2.201  0.0807  0.0642 -0.0765
 5964W        W24168  11.154  10.783  14.135 -0.1044  0.0150  0.1191
 5965W        W24169   7.376   6.225  17.138  0.0024  0.1258 -0.0560
 5966W        W24170  12.595  14.871   4.799 -0.1234  0.0405  0.1948
 5967W        W24171   1.051  15.465  13.401 -0.0039 -0.0180  0.1051
 5968W        W24172  13.152   6.150  17.196  0.1462  0.0556 -0.0997
 5969W        W24173   2.935   0.780  12.917  0.1840  0.0355 -0.2940
 5970W        W24174  15.205  14.792   3.207 -0.1393  0.1401 -0.0864
 5971W        W24175  16.474   6.190  15.715 -0.1989  0.1399  0.2958
 5972W        W24176  13.829   8.462   0.897 -0.2345 -0.1917 -0.5601
 5973W        W24177   6.076   7.992  16.436  0.0353 -0.0133  0.1649
 5974W        W24178   6.345  10.940  12.716  0.0839  0.0524 -0.4187
 5975W        W24179  16.692  14.750  16.101  0.3420  0.2644  0.3003
 5976W        W24180   0.384  12.143   2.920 -0.1084  0.0335  0.0780
 5977W        W24181  14.797  12.711   2.625  0.1532 -0.0256  0.0612
 5978W        W24182   5.025   7.376   1.344 -0.3396 -0.0430  0.0902
 5979W        W24183   1.750   4.455  12.179 -0.0589 -0.2026  0.3540
 5980W        W24184  13.275  14.769  15.945  0.0898  0.1805 -0.4117
 5981W        W24185   0.012   1.134  12.600  0.1857  0.2658 -0.0614
 5982W        W24186   9.281  17.061  13.568 -0.0344  0.0065 -0.0360
 5983W        W24187  11.654  16.881  13.979 -0.0305  0.0870 -0.0861
 5984W        W24188   1.676  15.737   2.488 -0.0263  0.0314 -0.0119
 5985W        W24189   8.861   9.726  15.424  0.4127  0.1224  0.2686
 5986W        W24190   4.781   1.075   2.309  0.0005 -0.3200  0.1513
 5987W        W24191  12.657   9.371  17.207 -0.0509  0.0986  0.0950
 5988W        W24192   2.847   5.526   2.639 -0.1195  0.1725 -0.3655
 5989W        W24193   5.632  11.147  12.465  0.3291  0.2051 -0.2997
 5990W        W24194  15.708  12.437   3.785  0.1574  0.1764 -0.1716
 5991W        W24195  12.671  13.885  16.968  0.0923  0.2226  0.0524
 5992W        W24196   6.827   6.623   1.047 -0.2966  0.0719 -0.1151
 5993W        W24197  16.385   1.884   1.263 -0.0478  0.4834 -0.1350
 5994W        W24198  11.732   3.486   3.210  0.5099 -0.0264  0.3156
 5995W        W24199  12.399   3.353   3.550 -0.0354  0.0477  0.1206
 5996W        W24200  13.342  16.058  13.779  0.3076 -0.0231 -0.0747
 5997W        W24201   9.761  10.516  14.205 -0.4432  0.1305 -0.0497
 5998W        W24202   5.803  12.031  12.476 -0.3204  0.2663  0.0711
 5999W        W24203   1.513   9.059   3.698 -0.1064  0.1693  0.0243
 6000W        W24204   5.789  14.489  12.555  0.0543 -0.1622 -0.0017
 6001W        W24205  15.522   8.306  13.178 -0.0791 -0.2331  0.0855
 6002W        W24206   5.842  16.439  16.229 -0.1263 -0.0449  0.0223
 6003W        W24207  11.308   1.396   1.900 -0.0624  0.1289  0.0324
 6004W        W24208   8.525   3.067   5.286  0.1672 -0.1103  0.0398
 6005W        W24209  12.906   7.637   6.007  0.0534  0.0674  0.1409
 6006W        W24210  11.626  11.335   4.199  0.1075  0.2638 -0.1754
 6007W        W24211   8.546  10.308   3.657  0.0163  0.3573  0.1309
 6008W        W24212   5.177  10.095  14.835 -0.0212 -0.3220  0.2965
 6009W        W24213   4.797  17.476  15.144  0.3141 -0.0616 -0.0872
 6010W        W24214   2.415  15.813  14.252  0.1473  0.1257 -0.1123
 6011W        W24215   2.235   6.122   3.716 -0.0936  0.0200  0.0428
 6012W        W24216  13.530   8.821  13.368 -0.2960 -0.3727  0.2995
 6013W        W24217  16.813   1.859  14.943 -0.1277 -0.2356 -0.0067
 6014W        W24218  10.008   8.569  12.887  0.0060 -0.2753 -0.2715
 6015W        W24219  13.067  12.135  16.784 -0.0763  0.1074 -0.1259
 6016W        W24220   1.852  16.873   2.646 -0.0174  0.1569  0.0798
 6017W        W24221  17.174   2.695  12.809 -0.4958 -0.1032  0.0574
 6018W        W24222   9.668   1.229  14.650  0.2371 -0.0547 -0.2646
 6019W        W24223  17.136  11.151  13.396  0.0407  0.0044 -0.0857
 6020W        W24224   6.765  10.455  12.124  0.1464  0.0616 -0.4242
 6021W        W24225   6.308   1.547   0.082 -0.0923  0.2757  0.0940
 6022W        W24226   8.134  16.377   1.986  0.0948  0.4024  0.1224
 6023W        W24227   4.714   4.827   0.337  0.1851  0.0712 -0.0781
 6024W        W24228   1.072   0.371  16.697 -0.0275  0.4426 -0.0814
 6025W        W24229  15.051   7.169  16.867  0.0303 -0.2114  0.3739
 6026W        W24230  10.165   1.564  13.886 -0.1920 -0.1569  0.0527
 6027W        W24231   3.927  11.695   2.970 -0.0475 -0.0330  0.1400
 6028W        W24232   2.689   8.078   0.941  0.0107  0.0098  0.1283
 6029W        W24233  11.302  12.605  14.143  0.1077  0.0733 -0.2759
 6030W        W24234  10.401   6.503   1.679 -0.1011  0.3170  0.3625
 6031W        W24235   0.328  11.679  13.591 -0.1526  0.1364 -0.1718
 6032W        W24236   4.763   3.208   4.077 -0.0097 -0.1011  0.0111
 6033W        W24237   0.361  10.674   5.872  0.2404  0.0123 -0.2211
 6034W        W24238   1.141   3.737   0.183  0.1904  0.1375  0.0985
 6035W        W24239   5.392   2.355  14.064  0.2603  0.1727 -0.2116
 6036W        W24240  15.519   7.986  15.455  0.0482  0.1511 -0.2268
 6037W        W24241  12.242  11.608  13.612 -0.0163  0.2305  0.2391
 6038W        W24242   4.403   5.091   5.287 -0.3875  0.0710  0.1853
 6039W        W24243   6.940  15.191  15.042 -0.1129 -0.0817 -0.0870
 6040W        W24244   4.795  16.116   4.607  0.1666  0.0072 -0.0065
 6041W        W24245  16.156  11.834  16.432 -0.0276 -0.2120 -0.2318
 6042W        W24246  10.825  17.424  15.018  0.1521 -0.1125  0.0225
 6043W        W24247  13.725   1.597  12.119 -0.0082 -0.4626 -0.2917
 6044W        W24248   0.015  17.398  15.662  0.0597 -0.0174 -0.2211
 6045W        W24249   6.263   9.745   0.043  0.2778 -0.0874 -0.1746
 6046W        W24250  15.762  12.286  13.719  0.1280  0.3079  0.0929
 6047W        W24251   7.659  16.730  14.930  0.1279  0.0981 -0.0894
 6048W        W24252   5.448   6.218  12.843  0.1819  0.1392 -0.0270
 6049W        W24253   2.034  15.612   2.127  0.0098 -0.2999 -0.0002
 6050W        W24254  15.078   0.283   4.292  0.0635 -0.0643 -0.4154
 6051W        W24255  14.898  13.995  16.686  0.2366 -0.0142  0.0716
 6052W        W24256   0.795   0.374   3.441  0.1993  0.0042  0.0037
 6053W        W24257  14.674   0.761   4.404  0.0800 -0.0373  0.3136
 6054W        W24258  13.824   2.755  15.137 -0.1080  0.0021 -0.2135
 6055W        W24259  14.184  16.262  13.505  0.2471  0.1426 -0.0600
 6056W        W24260   5.043  11.413  16.100 -0.0970  0.0602  0.1901
 6057W        W24261  14.923  12.473   3.607  0.0163  0.0621 -0.0394
 6058W        W24262   7.490   8.645  17.284  0.1967 -0.0318 -0.0823
 6059W        W24263  12.346   7.475  13.253  0.0739 -0.1410 -0.1769
 6060W        W24264  15.564   2.665  15.035  0.0352 -0.1200 -0.2466
 6061W        W24265  10.977  17.267   3.418 -0.2315 -0.2605 -0.0845
 6062W        W24266   1.450   1.822   4.193 -0.1781 -0.0062 -0.1983
 6063W        W24267   2.613   6.220   1.255 -0.3761 -0.1600 -0.1832
 6064W        W24268  17.527   3.115  12.782 -0.0599 -0.0061  0.1331
 6065W        W24269   4.223  14.529  14.122 -0.0651  0.2162 -0.1197
 6066W        W24270   8.640   5.950   3.386 -0.1539  0.2429  0.0712
 6067W        W24271   3.462  17.150   3.073 -0.0562  0.0657  0.2067
 6068W        W24272  14.892  12.857   0.806 -0.0329 -0.1641 -0.2138
 6069W        W24273   0.016   3.558   4.090 -0.0007 -0.0224 -0.1602
 6070W        W24274  14.421  17.360  12.993 -0.0526 -0.2026  0.0596
 6071W        W24275  14.824  17.311  15.883 -0.1192 -0.4325  0.1966
 6072W        W24276   1.412  14.870   3.526  0.1813  0.0070 -0.1407
 6073W        W24277  13.041   0.716  14.346  0.4701 -0.0218  0.4036
 6074W        W24278   2.218  16.548  11.995  0.2490  0.1481  0.1208
 6075W        W24279   3.825   5.105   3.003  0.0250  0.2431  0.0628
 6076W        W24280  13.259  16.337   1.829 -0.2964  0.1183 -0.1133
 6077W        W24281  10.332  12.407  13.667 -0.1400  0.3274  0.2806
 6078W        W24282  16.723  16.631  12.929 -0.1954 -0.1801 -0.0519
 6079W        W24283  14.821  16.442  11.253  0.4771 -0.2686 -0.0628
 6080W        W24284   5.580  13.867   0.898  0.3143 -0.2710  0.0401
 6081W        W24285  10.382  13.366  16.289 -0.1722 -0.0387  0.0016
 6082W        W24286   2.395  12.587   1.780  0.1858 -0.0765 -0.0552
 6083W        W24287   2.729  10.652  17.158  0.3370 -0.0734  0.1779
 6084W        W24288   8.373  15.475   5.391 -0.0047  0.1066 -0.1928
 6085W        W24289   9.645  13.156   2.503  0.0347  0.2557 -0.3635
 6086W        W24290  14.629  14.573  15.155 -0.1154  0.5773 -0.1141
 6087W        W24291  15.011   6.619  14.805 -0.1599 -0.0436 -0.0255
 6088W        W24292  15.650   5.976  15.045  0.1335  0.1430 -0.2657
 6089W        W24293   8.646   1.706   1.441  0.0421  0.5094 -0.0983
 6090W        W24294   9.784  10.439  16.177 -0.0430 -0.2049 -0.1524
 6091W        W24295  12.156  15.617   1.627  0.0339 -0.3323  0.3932
 6092W        W24296   8.609   7.888  15.025  0.2605  0.0291 -0.0106
 6093W        W24297   7.141   9.516  12.324 -0.0565  0.4461  0.0702
 6094W        W24298  13.953   7.665   3.800 -0.0000  0.2027 -0.2106
 6095W        W24299   4.027   4.160   5.197 -0.2031 -0.1752 -0.3010
 6096W        W24300  11.080  11.660   5.248 -0.2309  0.0438 -0.3745
 6097W        W24301  12.815   8.425   4.462  0.1449  0.0818  0.4004
 6098W        W24302   9.031  11.531  12.805  0.0566 -0.0839  0.0140
 6099W        W24303   1.052   2.249  16.303 -0.2046 -0.2050 -0.1591
 6100W        W24304   4.912   6.629  14.727  0.1206  0.0785 -0.1948
 6101W        W24305   6.525   6.885  15.917 -0.1785 -0.0212 -0.2108
 6102W        W24306   8.244  17.000  13.518 -0.2105  0.1036  0.1507
 6103W        W24307  11.498   7.204   4.038  0.0287 -0.1660 -0.1671
 6104W        W24308   0.104  15.229   0.179 -0.3810  0.0791  0.0355
 6105W        W24309  15.596  17.107   1.716 -0.0122 -0.1265  0.0964
 6106W        W24310   5.257  10.736   0.008  0.3101 -0.0532 -0.0898
 6107W        W24311  15.685  15.541   0.660 -0.1644  0.1649 -0.1157
 6108W        W24312   1.545  17.450  12.512  0.1693 -0.1262  0.1219
 6109W        W24313   5.771   7.055  15.458 -0.1377 -0.1178  0.0107
 6110W        W24314  11.142   4.221   0.165  0.1116 -0.0956 -0.1794
 6111W        W24315  13.169   1.940  17.146  0.0306 -0.1454  0.1013
 6112W        W24316  17.130  13.264  11.551  0.1679 -0.0792 -0.3112
 6113W        W24317  11.928   0.055  15.957 -0.2449 -0.0206  0.2112
 6114W        W24318  16.366  11.794  13.747  0.0459 -0.0183 -0.1402
 6115W        W24319   7.768   3.699   0.512 -0.0467  0.3447 -0.1431
 6116W        W24320   4.548   0.674  16.456 -0.0186 -0.0385 -0.1997
 6117W        W24321  12.378   1.791  13.879  0.0342  0.0848  0.1481
 6118W        W24322   8.013  13.382  14.590 -0.0957 -0.1284  0.3114
 6119W        W24323   7.294   6.331   1.977  0.0433  0.1881  0.1078
 6120W        W24324   9.983   7.677  14.344 -0.2772  0.1621  0.0432
 6121W        W24325   4.897   0.093  14.633 -0.0994  0.0476 -0.2784
 6122W        W24326  13.203   3.040   4.165  0.0052 -0.0740 -0.2123
 6123W        W24327   5.166  10.782  13.357  0.2574 -0.1994  0.1479
 6124W        W24328   2.387  15.162   3.845 -0.1335 -0.2230  0.3184
 6125W        W24329   2.757   7.608   0.704 -0.3378 -0.2199 -0.1301
 6126W        W24330  17.216  13.833  16.851  0.3087 -0.0912  0.1636
 6127W        W24331   3.149   3.069  16.583  0.3271  0.1786 -0.1205
 6128W        W24332   6.458  17.517   0.141 -0.0095 -0.0043 -0.0775
 6129W        W24333   8.305   1.760  15.956 -0.3242  0.3037  0.4140
 6130W        W24334   7.465   0.519  13.626 -0.0427  0.0377 -0.1167
 6131W        W24335   0.369  14.787   0.070  0.1559  0.0327 -0.0619
 6132W        W24336   3.129   2.990  14.590 -0.2189 -0.1079  0.1498
 6133W        W24337  16.064  14.626   1.560 -0.0603 -0.1324  0.0681
 6134W        W24338   2.968  13.875   1.875  0.3413  0.3871 -0.1324
 6135W        W24339  12.045   2.896  16.096  0.0286  0.3520 -0.0062
 6136W        W24340  14.370   9.610  13.677  0.0303  0.1675 -0.1854
 6137W        W24341  10.677   9.142  13.795 -0.4689  0.0241 -0.0431
 6138W        W24342   7.900  15.509   3.029 -0.3144  0.0506  0.1299
 6139W        W24343   1.739   2.031  17.184  0.0569  0.1266  0.3080
 6140W        W24344  16.159  14.100  12.353 -0.1909 -0.1155  0.2536
 6141W        W24345   7.593   8.963  13.337  0.1504 -0.1691 -0.1170
 6142W        W24346  14.461  13.659   1.860  0.0928 -0.1833 -0.0876
 6143W        W24347  14.486  11.941  14.187  0.0748 -0.3094 -0.0989
 6144W        W24348  12.177   2.379   3.245  0.5969 -0.1388 -0.0469
 6145W        W24349  13.908   6.734  15.091  0.4431  0.0350  0.1558
 6146W        W24350  11.116  16.364   0.491  0.0927  0.2230 -0.0774
 6147W        W24351  16.647  12.731  14.866 -0.2179 -0.1467 -0.0062
 6148W        W24352  15.884  15.380  12.426 -0.2128  0.0591 -0.1816
 6149W        W24353  10.289   2.133   0.412  0.2917  0.0828 -0.0517
 6150W        W24354  14.774  10.140  12.214  0.0638 -0.2220 -0.1394
 6151W        W24355   0.750  14.602   2.384  0.0307 -0.1476 -0.0552
 6152W        W24356   9.959  12.083   3.537  0.2185  0.0608  0.0932
 6153W        W24357  13.236  10.017  15.031 -0.0927 -0.4223  0.2951
 6154W        W24358   0.585  17.483  16.086 -0.0503 -0.0637  0.3549
 6155W        W24359   6.850   7.780  11.234 -0.0774  0.2649  0.0063
 6156W        W24360  13.884  14.686  17.212 -0.0444 -0.0241 -0.0098
 6157W        W24361  10.890  12.895   1.207 -0.1295 -0.0682 -0.1271
 6158W        W24362  13.831  14.347  14.246 -0.1191  0.3355  0.0944
 6159W        W24363  11.434   6.873   0.697 -0.2266  0.1031  0.0582
 6160W        W24364  12.148  16.790   0.854 -0.0856  0.1016  0.1159
 6161W        W24365  11.858   3.197   4.287 -0.0360  0.1940 -0.0834
 6162W        W24366  13.336   9.639   0.464  0.0618  0.0023  0.1438
 6163W        W24367  11.548   5.224   0.115 -0.2233 -0.1373  0.3198
 6164W        W24368   0.809  13.199  12.626  0.1148  0.0468 -0.3441
 6165W        W24369   0.708   4.152  15.295 -0.3978  0.1570  0.0768
 6166W        W24370  15.067  11.825  15.742  0.1269 -0.1266 -0.0338
 6167W        W24371   0.496   1.710  13.547 -0.0028 -0.0962  0.1201
 6168W        W24372   4.053  13.988   2.512  0.4672 -0.0780 -0.1867
 6169W        W24373   9.714   2.289  16.756  0.0897 -0.1560  0.0601
 6170W        W24374   5.959   4.662  16.041 -0.1768  0.0833 -0.1509
 6171W        W24375   3.527  13.618   2.508 -0.1184  0.2438 -0.1261
 6172W        W24376   6.193  16.702   5.197  0.0077 -0.3310 -0.0709
 6173W        W24377  12.727  11.479  14.865 -0.1418  0.3645 -0.1115
 6174W        W24378   5.788   1.806   5.722  0.4580 -0.2136 -0.0988
 6175W        W24379   4.156  11.381  13.384  0.2279 -0.1172 -0.0771
 6176W        W24380  14.678  12.238  15.732  0.2168  0.0897  0.2487
 6177W        W24381  10.090   0.905   1.783  0.2196  0.0474  0.2134
 6178W        W24382  16.652  17.090  14.641 -0.0614 -0.0803 -0.0294
 6179W        W24383  11.487  14.011  15.144  0.1290 -0.2879 -0.2278
 6180W        W24384  11.313   9.375   0.123  0.3195 -0.0470 -0.1317
 6181W        W24385   3.805  17.170  15.490  0.1433 -0.1293  0.3067
 6182W        W24386  16.441  11.699  11.781 -0.1027 -0.2562 -0.2237
 6183W        W24387  15.905   5.027  14.110 -0.1065 -0.1435 -0.1953
 6184W        W24388   2.348   7.574   2.455  0.0908  0.2949 -0.0030
 6185W        W24389  11.620   0.079  15.439 -0.3319 -0.0909  0.2014
 6186W        W24390   8.611   3.812   0.358 -0.2088 -0.0895  0.2627
 6187W        W24391   3.748   0.717  14.961  0.2665 -0.2521 -0.0117
 6188W        W24392   3.759   4.875  15.272 -0.1001 -0.2038 -0.1197
 6189W        W24393  15.042  12.802  14.036 -0.2057  0.1427  0.0346
 6190W        W24394  14.093  14.631  14.641 -0.2173  0.1772  0.0867
 6191W        W24395   3.529  15.245   0.245 -0.0218  0.0280 -0.2960
 6192W        W24396  12.844   6.963   0.106  0.0675 -0.1377  0.1598
 6193W        W24397  13.603   3.023   2.642  0.0322 -0.0026  0.0045
 6194W        W24398   5.415   3.228   3.473  0.1537  0.0638 -0.2044
 6195W        W24399   0.890   9.937   1.206 -0.0737  0.0799  0.3231
 6196W        W24400  12.642   8.102   3.447  0.0119  0.1380  0.0384
 6197W        W24401  11.442  13.823   1.207  0.0135  0.0371  0.0719
 6198W        W24402  14.227   7.565  12.886 -0.1374 -0.0787  0.0154
 6199W        W24403   6.811   6.459  15.751  0.0614 -0.0276  0.1443
 6200W        W24404  10.157   7.220  10.914  0.2002  0.1138 -0.1160
 6201W        W24405   1.959  15.427   3.770  0.0888 -0.0752  0.1714
 6202W        W24406   8.871   1.827  12.480  0.2190  0.1114  0.2582
 6203W        W24407  11.786  10.746  13.051 -0.1014 -0.0796 -0.0069
 6204W        W24408  14.810   1.071   0.427 -0.1411 -0.1570 -0.0472
 6205W        W24409  16.182  15.330   0.182 -0.1001  0.0168  0.3251
 6206W        W24410   0.399   0.821   1.910  0.2739 -0.2088 -0.1449
 6207W        W24411   3.858  15.348   5.269  0.1611  0.4164 -0.3248
 6208W        W24412   8.524  15.431  12.477 -0.0540 -0.0929 -0.0323
 6209W        W24413  16.084  16.130  12.541  0.3837  0.1443  0.2580
 6210W        W24414   4.757  12.912   4.226 -0.4104 -0.0039 -0.1583
 6211W        W24415  14.744  11.998   4.988  0.3271 -0.0356  0.2380
 6212W        W24416   5.126   7.847   2.536 -0.3963  0.3121  0.1578
 6213W        W24417   9.746   1.226  13.285  0.0987 -0.0491  0.0032
 6214W        W24418   6.670   5.403   2.674  0.1217  0.0977  0.1525
 6215W        W24419   3.331  10.190  17.269  0.1742 -0.0639 -0.1084
 6216W        W24420  16.698   3.909  12.138  0.0783 -0.1244  0.0346
 6217W        W24421   7.148  11.128  13.329  0.0317 -0.0804  0.1289
 6218W        W24422   6.514   7.631  16.154 -0.0396  0.3720  0.1489
 6219W        W24423   6.288   5.715  14.237  0.0732  0.0818  0.1579
 6220W        W24424   0.796   0.826  16.484  0.3075 -0.1608 -0.0905
 6221W        W24425  10.443   4.896  12.941  0.4071  0.2544  0.2130
 6222W        W24426   1.016   7.211   0.926  0.2598 -0.1438 -0.0119
 6223W        W24427   0.431  10.263   2.467  0.3017 -0.0858  0.0979
 6224W        W24428   4.825   0.206   4.435  0.0128  0.2215  0.1794
 6225W        W24429  15.634   2.100   0.793  0.0747 -0.0462  0.0874
 6226W        W24430   1.899   8.526  14.875 -0.3746 -0.0257 -0.2702
 6227W        W24431   6.258   2.412  13.513  0.1895 -0.0616  0.1198
 6228W        W24432  15.723  10.584  13.812  0.0651  0.0119 -0.0376
 6229W        W24433  17.463   9.211   0.207 -0.0962 -0.0748  0.0534
 6230W        W24434  11.926   6.148   4.527  0.0038 -0.2053  0.0416
 6231W        W24435   6.953   2.948   3.097  0.1920  0.0871  0.4379
 6232W        W24436  16.194   0.707  14.462 -0.3218  0.0213  0.2555
 6233W        W24437   9.122  16.152  17.106 -0.1289  0.2904  0.2663
 6234W        W24438   3.419   9.974  16.828  0.1007  0.1758  0.0760
 6235W        W24439   4.593   2.640   1.866  0.0969 -0.1149 -0.3312
 6236W        W24440   8.500  13.255  17.078  0.0822 -0.2528  0.1081
 6237W        W24441   3.454   1.387   2.968  0.0489 -0.0087  0.3140
 6238W        W24442  14.584   3.694  14.032 -0.1784  0.1907  0.0640
 6239W        W24443   6.260   9.849  12.775  0.1356 -0.1991  0.0091
 6240W        W24444   6.759  10.502  16.696 -0.1910  0.0207  0.2151
 6241W        W24445  10.555   6.642   1.138 -0.5017 -0.0670  0.0671
 6242W        W24446   6.007  10.293   1.081  0.2178 -0.2194  0.1021
 6243W        W24447   5.444  12.781   1.923 -0.2115  0.2723  0.1553
 6244W        W24448   6.584   8.819   3.096  0.1997 -0.2056 -0.0215
 6245W        W24449  13.476  12.703  15.994  0.0995 -0.2562  0.0085
 6246W        W24450   5.147   9.785   2.796  0.0204 -0.0428  0.0175
 6247W        W24451   6.889   5.904  15.787 -0.0411 -0.0932  0.2481
 6248W        W24452  16.039  17.202  15.343  0.0116 -0.2712  0.0400
 6249W        W24453   5.463   8.138   4.550 -0.0284  0.0590 -0.0463
 6250W        W24454   2.329   1.049   3.851 -0.0876  0.2035 -0.0812
 6251W        W24455   1.779  12.924   1.080 -0.1790 -0.3022 -0.4188
 6252W        W24456   5.746   3.087  12.246  0.0322  0.1921  0.0627
 6253W        W24457   7.144  17.070  15.753 -0.3604  0.1970  0.0501
 6254W        W24458  14.252  11.527   5.139  0.1558 -0.1535  0.0580
 6255W        W24459   1.663  12.092  13.239  0.0976 -0.0263  0.0244
 6256W        W24460  11.576   1.053   2.618 -0.0509 -0.0963 -0.0183
 6257W        W24461  17.362   4.773   1.706  0.0878 -0.0723 -0.1770
 6258W        W24462  12.447  10.647  15.867  0.3766 -0.2613 -0.1024
 6259W        W24463   5.704   8.680  14.499  0.1656  0.0750  0.1216
 6260W        W24464  15.131  12.970   0.312 -0.0617  0.3514 -0.0655
 6261W        W24465  14.539  15.288  13.624 -0.1735  0.0391  0.6549
 6262W        W24466  13.742  11.262   2.936  0.0540 -0.0513  0.0761
 6263W        W24467  14.135  10.831   5.794 -0.0248  0.2044  0.1503
 6264W        W24468   0.621  10.775   4.566  0.1947  0.0077  0.0332
 6265W        W24469   7.300   7.070   1.041 -0.1466 -0.0501 -0.0248
 6266W        W24470  11.333   2.298   4.864 -0.0136  0.0186 -0.1632
 6267W        W24471   7.566  15.381  13.532 -0.1841 -0.0044  0.4178
 6268W        W24472   0.400  11.537  14.634  0.0887  0.0095 -0.0967
 6269W        W24473  15.324  12.947   5.033  0.4015  0.2605  0.5500
 6270W        W24474  10.041   9.491  12.702  0.2639 -0.1805 -0.2416
 6271W        W24475   1.815   8.370   1.067 -0.1215  0.0198 -0.0634
 6272W        W24476  13.033  13.747   1.433 -0.1066 -0.1197 -0.1644
 6273W        W24477   5.081  14.608   0.528  0.1017 -0.4347  0.0203
 6274W        W24478   0.543  10.705  15.835  0.3596 -0.0257  0.2355
 6275W        W24479   3.452  12.429  16.424  0.1264 -0.1598 -0.1185
 6276W        W24480   9.375  14.027  16.880 -0.0520 -0.1512 -0.3436
 6277W        W24481   6.973   1.618   3.917 -0.2332 -0.0906  0.1111
 6278W        W24482   8.118   2.896   4.560  0.0593 -0.0056  0.0610
 6279W        W24483  12.479  17.368  15.118  0.0793 -0.1962  0.1193
 6280W        W24484   7.825   0.186   4.526  0.1139  0.0846  0.0944
 6281W        W24485   2.122  13.424  13.092 -0.0775  0.4280  0.2085
 6282W        W24486   6.014   0.711   3.263 -0.1247 -0.0906  0.0910
 6283W        W24487  10.018  16.923   0.005 -0.0886  0.2645 -0.0024
 6284W        W24488   0.191   3.734   1.402 -0.0172  0.1805  0.2011
 6285W        W24489  14.156   9.726  14.167 -0.1606 -0.0616 -0.0851
 6286W        W24490   7.438  17.449  12.895  0.5015 -0.1330  0.1602
 6287W        W24491   0.398  15.690  16.156  0.2575 -0.0194 -0.0194
 6288W        W24492  12.575   4.629  17.111  0.1851 -0.0247 -0.0424
 6289W        W24493  16.387  17.165   1.009 -0.2623  0.1668  0.0251
 6290W        W24494   1.351   6.983   1.214  0.0425 -0.0210 -0.0337
 6291W        W24495   0.235   2.912  14.621  0.0547 -0.1072 -0.2751
 6292W        W24496  17.206  16.292   4.070 -0.1027  0.1302  0.3608
 6293W        W24497  12.200   6.857  14.457 -0.1520  0.2164 -0.1791
 6294W        W24498   4.768  15.769   4.253 -0.0512  0.4286 -0.0152
 6295W        W24499   6.234  12.472  13.201 -0.0014 -0.0818  0.0930
 6296W        W24500  15.482  14.799  13.988  0.0334 -0.3999  0.1274
 6297W        W24501   4.538   9.820   1.468  0.0430 -0.0381 -0.0413
 6298W        W24502   4.114   0.654  14.404 -0.1731 -0.0952  0.1167
 6299W        W24503   5.969   8.301   5.033  0.2855 -0.3116  0.0742
 6300W        W24504  10.979   9.701   1.805 -0.0398  0.1861  0.1144
 6301W        W24505  10.104   3.126   3.760 -0.0751  0.0403 -0.0882
 6302W        W24506   4.489  14.616   1.363 -0.0159  0.0581 -0.5422
 6303W        W24507  11.193  12.790  16.665 -0.1199  0.2379  0.3647
 6304W        W24508   9.592   9.822   1.161  0.0621  0.1403  0.1281
 6305W        W24509   4.601   1.546  16.045  0.0063 -0.1490 -0.1594
 6306W        W24510   8.251   2.754  14.614  0.0125  0.0738 -0.0804
 6307W        W24511   9.761  10.825   2.313  0.0617  0.4874 -0.0250
 6308W        W24512   2.277  12.129   2.732  0.2385 -0.1169  0.0730
 6309W        W24513  11.799   9.447   4.427  0.1678  0.3080 -0.1772
 6310W        W24514   1.361   7.656   0.751  0.0656  0.2834 -0.1375
 6311W        W24515   6.648   1.008   2.676 -0.0030 -0.0906 -0.1699
 6312W        W24516   0.864   0.772  16.002  0.3648  0.0600  0.0155
 6313W        W24517   2.507   6.197  13.217 -0.1182  0.1114  0.1636
 6314W        W24518  13.704   3.731   1.343  0.2258  0.0916  0.0630
 6315W        W24519   6.412   4.864  15.801 -0.0767 -0.2243 -0.0601
 6316W        W24520   2.694   6.436   1.725  0.2302  0.0607 -0.0788
 6317W        W24521  16.215  13.193  17.047 -0.3508 -0.0581  0.0059
 6318W        W24522  14.088   2.973  13.973  0.0492  0.3025  0.6179
 6319W        W24523   8.284   2.928   1.816  0.2850  0.1392  0.2033
 6320W        W24524  10.241   0.153  15.203 -0.0378  0.0659 -0.2812
 6321W        W24525   3.669   1.261   4.632  0.0028  0.0457  0.3267
 6322W        W24526   6.604   9.599   3.218  0.1435  0.0586  0.0777
 6323W        W24527  12.060   2.491  15.175  0.0408  0.0308 -0.1133
 6324W        W24528  12.293  12.786  16.643 -0.4143  0.4437 -0.2935
 6325W        W24529   8.642  15.884   2.740 -0.0533  0.1298  0.2743
 6326W        W24530   3.187   8.901   3.353 -0.0941 -0.2926  0.3108
 6327W        W24531   7.347   1.135   0.289 -0.2820 -0.0956  0.3208
 6328W        W24532   9.964  13.371  11.220 -0.3748  0.0010 -0.0197
 6329W        W24533  11.895   3.744  16.273  0.1277 -0.0925 -0.0274
 6330W        W24534   9.685   9.828  14.346 -0.0687  0.1049 -0.3657
 6331W        W24535   0.961   4.072   5.374 -0.2236  0.1077 -0.3333
 6332W        W24536   5.757  15.422  12.995 -0.0625  0.0080  0.0522
 6333W        W24537  15.035   4.908  16.734  0.0583  0.2351 -0.2630
 6334W        W24538  16.345  15.458   1.294 -0.0821 -0.0974 -0.0234
 6335W        W24539   3.102  14.398  16.481 -0.1922 -0.0622  0.1041
 6336W        W24540   7.698  13.772  11.444 -0.1591  0.0157 -0.0265
 6337W        W24541   3.385  16.512   1.625  0.0737  0.0046  0.1056
 6338W        W24542  10.131   2.808   1.687 -0.0683 -0.1350  0.0183
 6339W        W24543  12.955   4.327  14.385  0.0571  0.3196  0.0382
 6340W        W24544   9.117  12.874  15.920  0.0342 -0.1223  0.2205
 6341W        W24545   2.580  11.808   0.240  0.0415  0.2065 -0.1967
 6342W        W24546   7.217   8.639  13.396 -0.1107  0.1650  0.0223
 6343W        W24547  12.112  16.561   5.446 -0.1815  0.1065  0.4143
 6344W        W24548  12.233  14.856   3.534  0.0892 -0.3655 -0.5168
 6345W        W24549  11.786  10.973  16.207 -0.2350  0.0040 -0.1249
 6346W        W24550   7.886  13.833   2.140 -0.0507 -0.0999 -0.1760
 6347W        W24551  11.347  15.803   2.535  0.0452 -0.1570  0.2184
 6348W        W24552  14.550  13.565   0.050 -0.0328 -0.1143 -0.1366
 6349W        W24553   9.299  11.323  16.292 -0.0467  0.0658 -0.1463
 6350W        W24554  14.193   7.205   0.271  0.4293 -0.1145 -0.0831
 6351W        W24555  16.389   9.903   0.394  0.1234 -0.0630 -0.0414
 6352W        W24556   7.484   5.438  11.049  0.0615  0.0049 -0.4244
 6353W        W24557   4.032   0.992  12.524 -0.0840  0.1119 -0.4920
 6354W        W24558  16.937   7.096   4.045 -0.0365  0.1921 -0.1568
 6355W        W24559  12.168   6.438   2.965  0.1252  0.1199  0.2021
 6356W        W24560  13.010  16.642   5.827  0.0018 -0.0216 -0.2319
 6357W        W24561   2.119  14.839   4.210  0.2433  0.1737 -0.0078
 6358W        W24562   7.448  12.379   0.933 -0.0018 -0.2527  0.0203
 6359W        W24563  17.509   3.654  15.500 -0.0881 -0.1384  0.0326
 6360W        W24564   7.177   9.104   4.881 -0.1424 -0.1973  0.2282
 6361W        W24565  14.318   9.305  14.356  0.1392  0.3949 -0.1220
 6362W        W24566  12.757   5.248  12.427  0.0867  0.1892 -0.1734
 6363W        W24567  16.546   0.600   4.981  0.0360  0.3952  0.1828
 6364W        W24568  15.293  12.628   6.016  0.1324 -0.0262 -0.0722
 6365W        W24569  11.257   6.107  16.852 -0.3985 -0.4086  0.3789
 6366W        W24570   8.626   5.043  16.460  0.0584  0.1123 -0.2632
 6367W        W24571   8.913  15.432   0.488  0.3240 -0.1966  0.0726
 6368W        W24572  10.833   8.748  13.479  0.2246 -0.2784  0.1503
 6369W        W24573   4.444   4.346   4.021 -0.1051 -0.3340 -0.0931
 6370W        W24574  17.442   3.631  13.948 -0.0830 -0.1356  0.0374
 6371W        W24575  15.058   9.106   2.184  0.0961  0.1098 -0.3043
 6372W        W24576   3.881  12.189  14.769 -0.1515  0.1607 -0.2895
 6373W        W24577   6.271   0.407   2.494  0.0540 -0.1468  0.1589
 6374W        W24578   6.136  15.980  16.327 -0.1517  0.0640  0.0106
 6375W        W24579   6.556   2.163  13.119 -0.0467 -0.2769  0.1601
 6376W        W24580   1.725   9.318   2.828 -0.1423 -0.0423  0.0820
 6377W        W24581  14.122   6.713   2.294 -0.0067  0.3394 -0.0178
 6378W        W24582   5.648  10.584   2.176  0.2148 -0.1174  0.0818
 6379W        W24583  14.573  11.600  11.215  0.2678 -0.1134 -0.5438
 6380W        W24584   5.191  11.105   4.557 -0.2933  0.0522  0.1064
 6381W        W24585   7.497   0.734  17.280 -0.2988 -0.2017 -0.2945
 6382W        W24586   2.424  10.892  14.249  0.0952  0.2314  0.0656
 6383W        W24587  15.830   0.808  13.204 -0.0016  0.3709 -0.0901
 6384W        W24588   7.278  14.219   4.880  0.1856 -0.0696 -0.0436
 6385W        W24589   7.828   1.899  15.035 -0.0156  0.0268 -0.2060
 6386W        W24590  11.611  16.236   3.919  0.2491  0.1514  0.1119
 6387W        W24591   7.367   3.268  16.879  0.0850 -0.0197 -0.1958
 6388W        W24592  15.566  10.761  15.150  0.2765 -0.2588  0.1696
 6389W        W24593   5.902  13.295   3.918  0.1372  0.2862  0.0630
 6390W        W24594   7.942  14.329   1.990 -0.0659 -0.0928 -0.0599
 6391W        W24595   8.382   9.481   0.630 -0.1289 -0.0732 -0.0298
 6392W        W24596  16.456  13.938  16.384 -0.1640 -0.1548  0.0783
 6393W        W24597   8.417   1.464   2.767  0.0593  0.0044 -0.0946
 6394W        W24598   4.085  14.632  12.596 -0.0819 -0.3227 -0.2334
 6395W        W24599  13.175  14.536   4.037 -0.1728 -0.0683  0.1079
 6396W        W24600  14.479   8.733   3.085  0.1591 -0.1148 -0.2017
 6397W        W24601   0.055  15.480   4.320 -0.0674 -0.0823 -0.1043
 6398W        W24602   7.199  15.858  16.958 -0.1114 -0.2950  0.2242
 6399W        W24603   5.505  15.829  13.224  0.0267  0.0814 -0.2058
 6400W        W24604  16.760  17.471  15.805 -0.0479  0.2006  0.1142
 6401W        W24605  12.223  16.195  16.667  0.3284 -0.0157 -0.1972
 6402W        W24606  10.058  12.420  14.148  0.2515 -0.1764 -0.2486
 6403W        W24607   0.110  11.680  15.070  0.2351 -0.1482  0.2833
 6404W        W24608   1.627  14.308   0.695  0.2599 -0.2761 -0.1246
 6405W        W24609   6.543   1.453   3.888  0.1229  0.3225 -0.0031
 6406W        W24610   9.068  14.310   4.742 -0.2891 -0.1141  0.0919
 6407W        W24611   3.104   4.363   4.907 -0.2105 -0.1674 -0.0768
 6408W        W24612  11.693   2.503  16.635 -0.2184  0.2424  0.4029
 6409W        W24613   2.643  15.231  16.254 -0.0258  0.1350  0.0335
 6410W        W24614  10.225   1.699  13.318  0.0293 -0.1603 -0.1849
 6411W        W24615  11.496  11.505  14.283 -0.2498 -0.0434 -0.0389
 6412W        W24616  10.542  15.754  13.684  0.1856  0.1894 -0.2495
 6413W        W24617  10.574   7.014   4.251 -0.0469  0.0109 -0.0493
 6414W        W24618   7.597   1.260  15.757 -0.1837  0.1028  0.0913
 6415W        W24619   2.940  10.422  15.953  0.0324 -0.1036 -0.0423
 6416W        W24620   2.417  13.744  16.878 -0.1571  0.2662  0.1376
 6417W        W24621   3.578   5.279  17.037  0.1415  0.0111 -0.1125
 6418W        W24622  13.480   7.010  14.973  0.4418 -0.1833 -0.0827
 6419W        W24623   6.878   3.529  16.578  0.1113  0.1320 -0.0360
 6420W        W24624  12.097  11.376   3.018  0.0419 -0.1154  0.2090
 6421W        W24625  14.554  17.080   0.057 -0.0338  0.0475  0.1318
 6422W        W24626  14.616  16.767  15.242  0.1178 -0.0433 -0.1090
 6423W        W24627  16.254  14.244  16.829 -0.0016 -0.3832  0.0821
 6424W        W24628  13.710   8.752  12.774 -0.1852 -0.0841  0.2564
 6425W        W24629  15.966   5.380   4.514 -0.3534  0.1167  0.2670
 6426W        W24630   2.655  13.470   0.988  0.0109 -0.0418 -0.0962
 6427W        W24631  10.075  15.720  12.142  0.0371  0.0333 -0.0240
 6428W        W24632   3.151   4.633  16.499 -0.0096  0.0456  0.1525
 6429W        W24633  14.345   9.372  15.537  0.0762  0.3234 -0.2059
 6430W        W24634   4.474   6.964  16.511  0.1534  0.0443  0.0682
 6431W        W24635  10.782  16.679   0.698 -0.0959 -0.1257 -0.2856
 6432W        W24636   4.977   7.148  12.917  0.0182 -0.0889  0.1701
 6433W        W24637  11.689   8.429  14.763  0.0668 -0.2415  0.2345
 6434W        W24638  13.678  13.689  13.484  0.0747 -0.2156  0.2663
 6435W        W24639   6.273  14.717   2.532 -0.0405 -0.0738 -0.1754
 6436W        W24640  16.724   4.095  16.962  0.0956 -0.1782  0.1078
 6437W        W24641  10.202   1.332   5.807  0.0710 -0.0136 -0.0112
 6438W        W24642   4.774  15.979  15.487  0.0062  0.2873  0.3997
 6439W        W24643  15.638   7.336   0.080  0.1248 -0.2449 -0.1991
 6440W        W24644  17.371   4.982  12.994 -0.2219  0.1486  0.1543
 6441W        W24645   3.045  16.417   0.355 -0.0240  0.2549  0.0717
 6442W        W24646   5.167   7.921   0.188 -0.1614 -0.0302 -0.0833
 6443W        W24647   7.814   9.189  16.187 -0.2212  0.1280  0.3195
 6444W        W24648   2.179   1.039  12.328  0.0731 -0.1389 -0.0362
 6445W        W24649   9.247   5.805  14.753 -0.3127 -0.2436 -0.3459
 6446W        W24650   2.894   4.735  15.246  0.1475  0.2522  0.0569
 6447W        W24651   7.154  13.631  14.135  0.1020 -0.3436  0.1045
 6448W        W24652  15.425   0.464   0.783  0.1003  0.3396  0.1963
 6449W        W24653  16.257   5.459  16.844 -0.1941  0.0046 -0.1380
 6450W        W24654   7.763  15.645   2.193 -0.3930 -0.1469 -0.1693
 6451W        W24655   5.974  12.420   2.236 -0.2530 -0.2890  0.1931
 6452W        W24656   8.738   7.967   0.239  0.2635  0.3862  0.1477
 6453W        W24657   7.582  14.962   1.270  0.0335 -0.0725 -0.0867
 6454W        W24658   9.207  12.772   0.195  0.0491  0.0649  0.0579
 6455W        W24659  12.795   0.224  11.197  0.0091  0.0654 -0.0825
 6456W        W24660  10.540   7.831   5.447 -0.3671  0.0409 -0.0490
 6457W        W24661   2.347   4.462  12.740 -0.0991  0.1018  0.0021
 6458W        W24662   1.275   5.800  16.894  0.1683  0.2467  0.0513
 6459W        W24663   0.917   7.087  11.954 -0.0155  0.0496 -0.0149
 6460W        W24664  11.895   4.100   4.359  0.0281 -0.5504  0.0053
 6461W        W24665  13.280  15.517  12.315 -0.3583  0.0106 -0.2621
 6462W        W24666   2.642  11.985  11.897  0.0175 -0.0052  0.0491
 6463W        W24667   2.134  14.281   5.403  0.3770 -0.2182 -0.0244
 6464W        W24668   8.719   9.568  14.439 -0.0801 -0.0998 -0.0795
 6465W        W24669  16.372   5.523   2.876  0.1151  0.1409  0.0412
 6466W        W24670  17.261   9.003  14.307 -0.0685 -0.0121  0.2265
 6467W        W24671   9.943   8.346   2.786  0.2517  0.1852 -0.3597
 6468W        W24672  14.641   0.511  14.848 -0.0819 -0.0844  0.1115
 6469W        W24673   8.929   6.892  13.801  0.0124 -0.1389  0.1660
 6470W        W24674  10.087  10.179  14.006 -0.0246  0.0114 -0.0135
 6471W        W24675   6.918   2.381  12.800  0.0558  0.1852 -0.0678
 6472W        W24676   2.078  13.164   2.321 -0.0343  0.0515  0.0713
 6473W        W24677  12.027   0.446   2.468 -0.1706 -0.1921  0.0056
 6474W        W24678  17.243  10.986  14.490 -0.1112  0.2792  0.0435
 6475W        W24679   7.776  10.935  13.762  0.0886  0.2996 -0.1537
 6476W        W24680   2.938   4.154   3.019  0.1509  0.1163  0.1951
 6477W        W24681  15.952   5.097  17.049  0.0117  0.0403 -0.3214
 6478W        W24682   3.767   3.030   1.416 -0.1003  0.3161 -0.1933
 6479W        W24683   7.817   9.295   1.700  0.0720 -0.0970 -0.2675
 6480W        W24684   5.898   2.867  15.422 -0.2337 -0.4617  0.1393
 6481W        W24685   3.948  17.319   0.061  0.0511 -0.1359  0.1881
 6482W        W24686  15.765   9.209   1.925  0.1218  0.4326  0.2461
 6483W        W24687  11.361   2.840  13.464  0.2488 -0.2072 -0.2897
 6484W        W24688   4.759   4.600  17.033 -0.3507 -0.2769 -0.0445
 6485W        W24689   8.363   5.217  14.651  0.2241 -0.1377 -0.3263
 6486W        W24690   6.068   9.884   3.120 -0.1238  0.1186 -0.2113
 6487W        W24691   4.967   9.656  16.986  0.0767  0.2124  0.3449
 6488W        W24692  15.079   9.404   0.674  0.0164  0.3952 -0.0719
 6489W        W24693  16.235   6.944   5.352 -0.1438 -0.1077 -0.1078
 6490W        W24694   5.050   2.090  14.791  0.1446 -0.3930 -0.0445
 6491W        W24695   6.665  16.277   4.587  0.1391  0.1819 -0.1678
 6492W        W24696   7.600   2.380  15.897 -0.2196  0.0040  0.2077
 6493W        W24697  16.500   1.561   5.202  0.0933 -0.2122 -0.1311
 6494W        W24698  15.777  14.923  16.580 -0.0433  0.0740 -0.1403
 6495W        W24699   8.445  16.571  12.160  0.1603  0.2939 -0.1561
 6496W        W24700   3.206   9.443   5.011 -0.1870  0.1945  0.0927
 6497W        W24701   0.386  12.791  11.829 -0.0099 -0.2411  0.0388
 6498W        W24702  10.151  15.213  14.389 -0.0355  0.3229 -0.1423
 6499W        W24703  12.088   1.835  15.670 -0.2561 -0.0795 -0.0387
 6500W        W24704   1.280   2.845   1.729 -0.1782 -0.1140  0.1381
 6501W        W24705   4.164   7.147  14.016  0.4042 -0.0163  0.1846
 6502W        W24706   9.157   8.310  15.260  0.0986  0.0090  0.4416
 6503W        W24707   2.927  11.191  12.478 -0.0458  0.1552  0.0630
 6504W        W24708   2.715   1.759  16.073 -0.3421  0.0447  0.1425
 6505W        W24709  10.820   2.967   1.795  0.0157 -0.3293 -0.0281
 6506W        W24710  15.332   9.004   2.601 -0.1721 -0.1655  0.0096
 6507W        W24711  15.190  11.660   0.917  0.0292 -0.0469  0.1493
 6508W        W24712  12.646   2.959  13.776 -0.1325  0.1971  0.1212
 6509W        W24713   4.778   9.299   4.671 -0.1815  0.1382  0.1543
 6510W        W24714   4.598   0.719  12.480  0.1481 -0.0370 -0.0949
 6511W        W24715   7.682   7.645  12.214  0.0935 -0.0996  0.1672
 6512W        W24716  15.616  13.469   1.056  0.4025 -0.2692  0.0592
 6513W        W24717   3.719   6.933   4.012  0.2546  0.0135  0.0585
 6514W        W24718  16.231  16.017  13.058  0.1574 -0.4986 -0.3604
 6515W        W24719   4.651   7.659  17.093  0.0973  0.0812 -0.1154
 6516W        W24720   5.909  11.193  12.867  0.0759 -0.0181 -0.3099
 6517W        W24721   8.313   9.332   0.080  0.1180  0.0337 -0.0047
 6518W        W24722   9.614   7.348  14.374  0.0919  0.2627  0.1409
 6519W        W24723   1.415  14.165  12.091  0.3658  0.1053  0.0668
 6520W        W24724   9.709   0.760  14.088 -0.0222 -0.1784 -0.3549
 6521W        W24725  12.456  10.426  11.615  0.0668  0.0751 -0.1362
 6522W        W24726   6.547  13.164  13.528  0.0885 -0.2707 -0.0446
 6523W        W24727   3.259   6.252  13.096  0.1100 -0.1522 -0.0932
 6524W        W24728  14.983   9.494  13.493  0.0099 -0.0231 -0.0897
 6525W        W24729   5.828   8.189   4.134  0.0706 -0.0491  0.0659
 6526W        W24730   6.933   4.464  17.045  0.3158  0.0474 -0.1465
 6527W        W24731   9.602   5.890  14.423 -0.0852  0.1994  0.0213
 6528W        W24732   8.152   8.446  13.280  0.0167  0.0181 -0.3554
 6529W        W24733  14.916  10.285   2.500  0.1719 -0.1453  0.1104
 6530W        W24734   5.411  11.274   2.723  0.1370  0.1372  0.1724
 6531W        W24735   2.580   5.432  16.265 -0.0173 -0.3662 -0.2186
 6532W        W24736  16.111   5.983  15.460 -0.0201  0.3813 -0.1038
 6533W        W24737  13.527   9.015   2.247 -0.0810  0.0007  0.0381
 6534W        W24738   3.793   8.908  12.484 -0.0743  0.0339  0.0863
 6535W        W24739  16.440   5.165  15.516  0.3286  0.1483  0.4472
 6536W        W24740   0.487  16.004   4.448 -0.0412 -0.1007 -0.1122
 6537W        W24741   6.278  16.480  16.744 -0.0453 -0.2998  0.2705
 6538W        W24742   5.473   7.674   0.477 -0.1517  0.0680  0.0365
 6539W        W24743  11.911   4.354   3.496 -0.0228 -0.2423  0.0371
 6540W        W24744   5.266  15.353  14.259 -0.1153  0.2050 -0.2166
 6541W        W24745  14.857   4.137   5.139  0.2510 -0.0408  0.0135
 6542W        W24746   1.244   9.327  13.198 -0.1870 -0.2762  0.3509
 6543W        W24747   0.332  13.511  13.986  0.0336  0.1387 -0.0386
 6544W        W24748  13.704  16.158   1.866  0.0534  0.0749 -0.0948
 6545W        W24749  11.269  12.419  12.037  0.0865  0.1225 -0.3625
 6546W        W24750   2.684   6.698  17.273  0.3185  0.0011 -0.0539
 6547W        W24751   7.002   2.554   0.232 -0.1032 -0.0322 -0.2170
 6548W        W24752   7.130  15.721  12.368 -0.0405  0.3626 -0.0675
 6549W        W24753   4.843   2.205   3.805 -0.2947 -0.1539 -0.0328
 6550W        W24754   2.627  16.702  13.605  0.1349 -0.0833 -0.1471
 6551W        W24755  17.239   0.620   2.058 -0.2758 -0.1916  0.2283
 6552W        W24756   6.799   6.485  13.727  0.2539 -0.0256 -0.2130
 6553W        W24757   2.680   7.486   3.615  0.0985 -0.2433  0.0506
 6554W        W24758   7.708   4.263  13.540  0.2172  0.1230  0.2371
 6555W        W24759  12.954  13.143  15.848 -0.3751 -0.3087 -0.1325
 6556W        W24760   1.992  13.892  17.173 -0.0649  0.0419 -0.1627
 6557W        W24761  15.337  13.549  13.795  0.0042  0.0422 -0.1574
 6558W        W24762  14.143  10.426  15.857 -0.1134 -0.1690 -0.2763
 6559W        W24763   4.918  17.320   4.731 -0.1208 -0.3015  0.0196
 6560W        W24764  15.413  16.597   3.833 -0.1450  0.2818 -0.0921
 6561W        W24765   6.040  11.719  12.740  0.0718 -0.0118  0.0433
 6562W        W24766   7.964   0.429  12.833  0.0156  0.2741 -0.1892
 6563W        W24767  14.671   7.050   2.338 -0.2263  0.2139 -0.0321
 6564W        W24768   7.452   7.570  17.176  0.0729  0.0538 -0.3848
 6565W        W24769  12.852   0.385  13.530 -0.0536 -0.1235  0.1378
 6566W        W24770   4.936  12.135  14.017 -0.2291  0.1689  0.0719
 6567W        W24771   7.019   8.439  15.059 -0.1007  0.0955  0.0648
 6568W        W24772   5.988   1.738  14.395  0.2346 -0.1673 -0.3834
 6569W        W24773   3.740   5.520  12.354 -0.0162  0.0327 -0.3366
 6570W        W24774  14.482   8.138   4.361 -0.2265 -0.1261 -0.1786
 6571W        W24775   6.617  12.847  12.039 -0.0752 -0.0526 -0.0480
 6572W        W24776   5.553   6.222   0.672 -0.1207 -0.0005  0.2446
 6573W        W24777   4.751  11.296   4.315  0.0043 -0.3630 -0.1692
 6574W        W24778   8.067   5.604   0.646  0.0792  0.2546 -0.0358
 6575W        W24779   5.065  16.877   1.462 -0.0310  0.1384 -0.0974
 6576W        W24780   0.558  13.441  14.438 -0.1682 -0.3107 -0.1546
 6577W        W24781   1.153  13.430   0.039 -0.0884 -0.1731 -0.4159
 6578W        W24782  16.242   7.577  16.262 -0.0168  0.2874  0.0057
 6579W        W24783   3.757  11.161  13.681 -0.1803 -0.0527  0.1487
 6580W        W24784   6.432  14.545  13.866 -0.0911  0.3667  0.1108
 6581W        W24785  11.118   9.133  15.382 -0.0315 -0.0510  0.1995
 6582W        W24786  14.316  10.028  15.026  0.0153 -0.1345 -0.1909
 6583W        W24787  12.374   5.281   2.589 -0.1946  0.0315 -0.0962
 6584W        W24788   2.890  11.305   0.441  0.2354 -0.2135  0.4199
 6585W        W24789   8.794  11.770  15.160 -0.0888 -0.0906 -0.1633
 6586W        W24790   3.920  11.654  14.761  0.1682 -0.1282  0.1228
 6587W        W24791  14.815   9.915  13.743  0.4227 -0.1543  0.0137
 6588W        W24792   5.413   6.869   3.955 -0.1179 -0.1845 -0.0450
 6589W        W24793   9.049   6.739   1.131 -0.1190  0.2274  0.2037
 6590W        W24794   0.338  14.645   2.689 -0.0959 -0.0959 -0.1822
 6591W        W24795  11.600   5.343  13.858 -0.0819  0.0990  0.0434
 6592W        W24796  14.396   3.114   0.938 -0.1781 -0.0694 -0.2390
 6593W        W24797   2.154  16.473   3.669 -0.2364  0.1108 -0.0987
 6594W        W24798  12.858  11.048   1.677  0.0630 -0.2351  0.0364
 6595W        W24799   4.766  15.141  17.280  0.4401 -0.0558 -0.0216
 6596W        W24800  10.620   8.379   0.920 -0.3138 -0.0235 -0.1151
 6597W        W24801  16.995   8.709  12.008 -0.2522  0.0469 -0.0447
 6598W        W24802  15.403  16.040  13.966 -0.1038  0.0054 -0.5990
 6599W        W24803   5.839   4.871   3.077 -0.2246  0.1857  0.0603
 6600W        W24804  15.770  14.979  14.973 -0.0887 -0.1463  0.3021
 6601W        W24805   1.498  15.857  14.877  0.1643 -0.0470 -0.1620
 6602W        W24806  15.459  11.540  15.377 -0.0629  0.0187  0.3052
 6603W        W24807   7.270   9.960   0.491 -0.0715  0.1755 -0.2926
 6604W        W24808  12.504   7.599   0.968 -0.0485 -0.0444 -0.0121
 6605W        W24809   7.761   1.239  12.382 -0.2600 -0.0714 -0.0094
 6606W        W24810   8.962  11.692  16.196  0.3303  0.0952 -0.0266
 6607W        W24811   1.690   3.520   0.386  0.1555 -0.1331  0.1827
 6608W        W24812   8.393   8.502  13.732 -0.2325  0.0933 -0.2572
 6609W        W24813   4.957  16.772   0.974  0.1672 -0.2439 -0.1786
 6610W        W24814  10.898  13.283  14.653 -0.2224  0.0179  0.1486
 6611W        W24815   3.909   9.403  16.287  0.2534  0.1975 -0.0726
 6612W        W24816   8.502  13.459   3.003 -0.1015 -0.0638  0.0402
 6613W        W24817  10.792   2.879  15.903  0.4244  0.2918 -0.1560
 6614W        W24818   6.177   3.130   4.466  0.0342  0.1509  0.2149
 6615W        W24819  16.853   0.899  13.961 -0.0326  0.1811 -0.1096
 6616W        W24820   5.960  14.683  14.411  0.0159 -0.0194  0.1542
 6617W        W24821  14.270  16.904   4.127 -0.3948 -0.0769 -0.3801
 6618W        W24822   5.099   3.997   4.633 -0.1898 -0.1135  0.1266
 6619W        W24823   1.166  14.086   2.775  0.2735 -0.0215  0.1345
 6620W        W24824   1.190  16.963  15.417  0.4319  0.1109 -0.1423
 6621W        W24825   7.855  14.636   4.476  0.1527 -0.0284 -0.3604
 6622W        W24826   2.214   6.615   1.555 -0.1343  0.0668  0.1135
 6623W        W24827   7.519  12.842  15.077 -0.2461  0.1356 -0.0770
 6624W        W24828   3.035  12.312   0.085 -0.4374  0.1659 -0.1914
 6625W        W24829  16.585   7.820  14.552  0.2802  0.1675 -0.1335
 6626W        W24830   2.489   1.149  13.767 -0.3495  0.0020  0.1954
 6627W        W24831  11.883  10.665   1.857  0.0087  0.0912 -0.0915
 6628W        W24832   2.772   7.077  11.393 -0.1395 -0.0905  0.0043
 6629W        W24833   4.365  16.095   0.297 -0.0724 -0.0545 -0.3064
 6630W        W24834   3.407   8.142   4.391 -0.0259 -0.0984  0.2176
 6631W        W24835  10.233   4.308   1.617 -0.2289  0.1506 -0.0605
 6632W        W24836   2.554   1.087  15.570  0.0250  0.1646 -0.2951
 6633W        W24837   1.137   9.454  12.194  0.0313  0.1862 -0.2277
 6634W        W24838  13.824  15.479   1.812 -0.0167 -0.2023  0.1230
 6635W        W24839   1.463  14.656   4.869 -0.0911  0.0232 -0.3559
 6636W        W24840  10.367   8.363  16.338  0.0686  0.2548 -0.0266
 6637W        W24841  15.117   2.422  14.764  0.0723 -0.0497  0.0836
 6638W        W24842  17.065  13.888  15.824  0.0219  0.1000 -0.0924
 6639W        W24843  12.151   4.849  12.993  0.1810  0.2712 -0.1987
 6640W        W24844   6.174  13.240  14.788  0.2147  0.1706 -0.1508
 6641W        W24845   8.984   1.542  14.852 -0.0915  0.0561  0.0646
 6642W        W24846  15.485   1.911  16.273  0.0867  0.1507 -0.1780
 6643W        W24847   1.924   7.629  14.553  0.0032  0.1323  0.3935
 6644W        W24848  14.610   9.588  15.912 -0.1770 -0.3809  0.2605
 6645W        W24849  12.874   5.712   0.211  0.1715  0.1912 -0.0853
 6646W        W24850   9.494   7.723  16.146 -0.1283  0.1398  0.1212
 6647W        W24851   7.988  16.354   1.225  0.0822 -0.1194  0.2861
 6648W        W24852   7.817  17.183  12.275 -0.0307 -0.1771 -0.0598
 6649W        W24853   4.443  11.545  14.688  0.1349 -0.0384 -0.1426
 6650W        W24854  11.702   3.417   1.702 -0.1208  0.2752  0.0883
 6651W        W24855  14.335  15.884  16.931 -0.0131 -0.2528  0.0560
 6652W        W24856   5.635   3.249   2.657 -0.1920 -0.1865 -0.4889
 6653W        W24857  11.079  10.274   4.018  0.0884 -0.0155 -0.0777
 6654W        W24858   8.172  11.468  11.136 -0.0144 -0.2573  0.1317
 6655W        W24859   0.784   6.244  14.995  0.0648  0.0385 -0.1582
 6656W        W24860   9.297   0.493   2.097 -0.3076  0.0913 -0.0058
 6657W        W24861  12.488  11.912  14.020  0.3331  0.2054  0.0839
 6658W        W24862   2.737   1.013  12.244  0.2541 -0.1927  0.1750
 6659W        W24863  12.551   0.966  14.116  0.1223  0.0062  0.1944
 6660W        W24864   3.823  16.123   3.487 -0.0725 -0.0286  0.0924
 6661W        W24865   6.453   5.198  16.937 -0.1695 -0.0060 -0.1648
 6662W        W24866  16.460   9.887  14.791 -0.0078  0.0368  0.2961
 6663W        W24867   0.180   7.118   4.980 -0.1187  0.5811  0.2261
 6664W        W24868   3.247   5.165   0.412  0.1396  0.3072 -0.3686
 6665W        W24869   1.887   2.480  12.619 -0.2893  0.0178  0.0231
 6666W        W24870  16.473  17.376   3.475 -0.0783 -0.2836 -0.0954
 6667W        W24871  11.220   4.544   0.546 -0.1347 -0.1342  0.0835
 6668W        W24872   9.885   0.280  13.936  0.1758  0.2180 -0.1811
 6669W        W24873  14.117   9.611   1.498 -0.2920 -0.1012  0.0117
 6670W        W24874   3.693  14.666  16.975 -0.4290 -0.3361  0.1745
 6671W        W24875   0.601  17.536  12.928  0.0619  0.0203  0.2091
 6672W        W24876  13.473  17.245   1.469 -0.1164 -0.0802  0.1201
 6673W        W24877   4.188   7.746   4.625 -0.0084 -0.0789  0.1105
 6674W        W24878   4.141  15.065  14.188  0.2238 -0.0660 -0.0931
 6675W        W24879  16.015   7.633   3.405  0.2462 -0.1786 -0.0511
 6676W        W24880  15.336  17.442  15.725 -0.1499 -0.0290  0.1230
 6677W        W24881  10.809   5.685   4.847  0.0405 -0.1565 -0.3300
 6678W        W24882  15.028   9.420   6.649 -0.0645  0.2699 -0.1328
 6679W        W24883   3.082  11.743  16.496 -0.0413 -0.1944  0.2188
 6680W        W24884  10.332  11.906   0.168 -0.2198 -0.2656 -0.0880
 6681W        W24885  11.043   9.381   0.563 -0.1898  0.0598 -0.0792
 6682W        W24886  12.192   3.232  16.483  0.3371 -0.2718  0.2148
 6683W        W24887   4.539   4.716  12.471  0.3665  0.0939 -0.0281
 6684W        W24888   0.488   4.737   2.951  0.1188 -0.1255 -0.0851
 6685W        W24889   6.350   6.673  15.013  0.0871 -0.0925  0.0006
 6686W        W24890   8.996   4.572  13.076  0.1184  0.0959 -0.0948
 6687W        W24891   4.179   1.796  12.880  0.1934  0.1596  0.3086
 6688W        W24892  14.659   1.513  15.808 -0.0490  0.4338 -0.1902
 6689W        W24893  14.171   1.031  16.389  0.0691  0.0284  0.0477
 6690W        W24894   9.441  17.031  15.497  0.1500 -0.3670  0.2610
 6691W        W24895  16.795  16.400   1.681 -0.0517  0.0779 -0.2851
 6692W        W24896   1.282   0.766  16.862 -0.0445  0.0516  0.0328
 6693W        W24897   1.751   5.645  16.705  0.4321 -0.1507 -0.3631
 6694W        W24898  15.334  13.496  12.425  0.1526 -0.2856 -0.0331
 6695W        W24899   0.471   2.587   0.681 -0.2274  0.2250  0.0554
 6696W        W24900   6.021   3.213   2.338 -0.2270  0.3632 -0.2540
 6697W        W24901  15.882  16.101   1.799 -0.2515  0.0855 -0.2421
 6698W        W24902   9.319   8.480  13.615 -0.2479  0.0162  0.2511
 6699W        W24903   7.937   6.997  12.037  0.0653 -0.0934  0.1528
 6700W        W24904  15.509  11.819  13.591  0.1491 -0.2031  0.1383
 6701W        W24905  10.434   3.619   1.224  0.0096 -0.2019  0.0977
 6702W        W24906  11.863  12.696   0.249 -0.1358  0.0775 -0.2034
 6703W        W24907  17.426   4.123   0.522 -0.5248 -0.0488  0.0256
 6704W        W24908   0.161  15.455  15.787 -0.0375 -0.3099  0.0263
 6705W        W24909   9.228   7.919   0.342  0.1349 -0.3391  0.1691
 6706W        W24910   7.219   6.259  16.538 -0.1844  0.0431 -0.0905
 6707W        W24911   8.769  17.519   2.518 -0.1003 -0.3592  0.0934
 6708W        W24912   3.720   9.605  14.106  0.0124  0.2095 -0.5062
 6709W        W24913   8.942  14.693  15.968  0.0806  0.1027  0.2458
 6710W        W24914   2.539   2.512  15.676  0.0648  0.1389  0.0162
 6711W        W24915   4.505   6.716  12.223 -0.0337 -0.0237 -0.3427
 6712W        W24916  11.390   0.019   2.796  0.3486  0.0092  0.1020
 6713W        W24917  16.023  15.639  13.373  0.0555 -0.0949 -0.2418
 6714W        W24918   1.247   2.613  14.881  0.2438 -0.0666 -0.1348
 6715W        W24919  14.574  11.173  16.432 -0.0462  0.3112 -0.0602
 6716W        W24920  16.891   0.505   3.456  0.0481 -0.1750 -0.0827
 6717W        W24921  15.209  12.930  15.090  0.1777  0.2994  0.0242
 6718W        W24922  16.564  12.331  13.119  0.2096 -0.1197 -0.2096
 6719W        W24923   0.963  11.281  15.305 -0.0809  0.3118  0.0315
 6720W        W24924   4.893  11.807   0.487 -0.1117 -0.0446 -0.0448
 6721W        W24925   1.687   9.889   5.052 -0.0895  0.3365  0.1392
 6722W        W24926   8.216  12.667   5.037  0.3195 -0.1989  0.3631
 6723W        W24927   1.622  10.072   4.089  0.4175  0.0916 -0.3091
 6724W        W24928   8.085   5.212   0.339  0.2966 -0.2866 -0.0054
 6725W        W24929   5.173  16.063  12.314  0.0572  0.2895  0.1105
 6726W        W24930  15.915  13.547   0.594 -0.0619  0.2623 -0.2412
 6727W        W24931   6.182  16.371   0.833 -0.1367 -0.0918  0.1676
 6728W        W24932  16.399   3.702   4.431  0.0377 -0.1879 -0.1913
 6729W        W24933   0.342  13.013  13.547 -0.1015  0.0133 -0.3125
 6730W        W24934   1.136  12.856   5.223  0.1215 -0.0159  0.1609
 6731W        W24935   8.427   3.793   2.201 -0.0184  0.0312 -0.1377
 6732W        W24936  14.689   5.031   5.465 -0.0521 -0.2429  0.1910
 6733W        W24937   6.435  10.887  14.833  0.4430  0.0906  0.3770
 6734W        W24938   3.998   4.370  12.612  0.0729  0.0601 -0.2514
 6735W        W24939  11.069  12.714  15.901  0.0124  0.0591 -0.2268
 6736W        W24940   0.626  17.156  13.259  0.1244 -0.0106 -0.1564
 6737W        W24941   7.270  14.006   2.381 -0.2453 -0.1631  0.1308
 6738W        W24942   1.577  11.923   1.220  0.0880  0.1614 -0.1405
 6739W        W24943   1.931   2.654   3.419  0.2985  0.0712 -0.1950
 6740W        W24944   9.268   2.868  16.306 -0.0317 -0.2646 -0.0164
 6741W        W24945  14.195   7.530  17.104 -0.0498  0.1070 -0.0104
 6742W        W24946  15.266   2.797   3.027 -0.1115  0.1519  0.2858
 6743W        W24947   1.304   8.530   3.807 -0.1268 -0.3114 -0.1050
 6744W        W24948   8.225   0.902  13.268  0.1546  0.1552  0.0759
 6745W        W24949   0.458  15.118   3.804  0.0996  0.0928 -0.0846
 6746W        W24950   6.236  13.386   4.224 -0.0535 -0.3211 -0.0148
 6747W        W24951  14.059   3.320   2.449 -0.3900  0.0607  0.3119
 6748W        W24952  14.947  16.336   3.809  0.1168  0.1774  0.2092
 6749W        W24953   1.939   7.069   3.690 -0.0189  0.2324 -0.0143
 6750W        W24954   9.316  15.168   5.076 -0.0499  0.4311  0.1408
 6751W        W24955  16.372  10.165  16.855 -0.0818 -0.0004 -0.0052
 6752W        W24956  14.649   5.259  12.579 -0.0838 -0.0959  0.2419
 6753W        W24957  14.187   5.796   2.924 -0.2919  0.0606  0.0052
 6754W        W24958  14.186  13.658  13.282  0.1910 -0.1221  0.0525
 6755W        W24959  12.109   5.815   3.475  0.2303 -0.0560  0.1501
 6756W        W24960  12.277   1.459  15.404  0.1909 -0.0764 -0.2018
 6757W        W24961   5.501  12.857  11.945 -0.1959 -0.1909  0.1415
 6758W        W24962  11.348   0.007  15.034 -0.1678 -0.0746  0.1458
 6759W        W24963   3.358  15.621  13.381  0.1462 -0.0432 -0.2864
 6760W        W24964  11.719  14.756  11.952  0.1483  0.2456  0.0383
 6761W        W24965  11.606  12.390  13.023 -0.0788 -0.0904 -0.1579
 6762W        W24966   8.153  15.258   0.969 -0.3144 -0.2368 -0.0896
 6763W        W24967   5.248  15.992   2.185  0.2390 -0.1598  0.0285
 6764W        W24968  12.145   0.938  15.826 -0.2993 -0.0825  0.0603
 6765W        W24969   8.449   2.597   3.398  0.1556 -0.0944  0.2783
 6766W        W24970   1.108   1.564   1.379  0.0012  0.4397  0.3148
 6767W        W24971  15.571  12.556  12.079 -0.2151  0.1273 -0.2921
 6768W        W24972  15.376   0.760  13.035  0.0760  0.1754 -0.2008
 6769W        W24973   1.379   4.137  12.027 -0.2374 -0.5303 -0.4801
 6770W        W24974  16.338   2.209  12.554  0.0234  0.1968  0.1653
 6771W        W24975   2.630  15.277  15.041 -0.0085 -0.0148 -0.1739
 6772W        W24976   1.289  16.420  12.566  0.1555  0.1060 -0.1330
 6773W        W24977   2.149  10.507  10.836  0.2352  0.1810  0.0331
 6774W        W24978   0.350   2.538  15.267  0.2515 -0.4740 -0.0085
 6775W        W24979   3.153   9.376  13.946  0.0136  0.2455  0.0169
 6776W        W24980  13.064   1.838   1.288  0.2991  0.1297 -0.2115
 6777W        W24981  10.520   6.213  13.262 -0.0178  0.0657  0.0032
 6778W        W24982  11.161  13.745  12.699  0.1510  0.4402  0.0136
 6779W        W24983  10.531  15.583  12.306  0.0181  0.0449 -0.2709
 6780W        W24984   3.427  11.204   3.448 -0.3910  0.2567 -0.0195
 6781W        W24985  10.634   4.479  15.525 -0.1147  0.2214  0.0632
 6782W        W24986  14.289  13.481  16.902  0.1159 -0.0110 -0.0168
 6783W        W24987   3.013  14.738   2.984 -0.1584 -0.1135 -0.0951
 6784W        W24988   3.656   9.711   1.133 -0.0947 -0.3369  0.3797
 6785W        W24989  13.076   8.232   2.266  0.0098 -0.2455  0.1842
 6786W        W24990   2.069  17.198   5.267  0.0696 -0.3837 -0.1132
 6787W        W24991  16.369  17.447  12.071 -0.0722  0.0335 -0.1042
 6788W        W24992   1.266  11.058  16.273  0.1356 -0.0807  0.3563
 6789W        W24993   4.036   2.395   3.864  0.3554  0.1274 -0.3523
 6790W        W24994   1.793  13.405  14.244 -0.2278  0.1137  0.0077
 6791W        W24995  13.495  17.034  14.314 -0.2352  0.3216 -0.0120
 6792W        W24996  16.433   3.740   5.387 -0.2716  0.0400 -0.0524
 6793W        W24997  16.048  16.535  14.919 -0.3229  0.2322  0.0875
 6794W        W24998   2.733  12.220   3.039 -0.0736 -0.1766 -0.1146
 6795W        W24999   8.459  12.606  11.871 -0.0687 -0.0823  0.1839
 6796W        W25000   1.093  17.231   3.276 -0.1535 -0.0676 -0.3952
 6797W        W25001   5.515   6.180  12.357  0.0165 -0.0327 -0.3095
 6798W        W25002   6.990  12.132  15.703 -0.4835 -0.1737 -0.3254
 6799W        W25003   6.412  15.066  12.351 -0.1567  0.0841  0.0685
 6800W        W25004   2.955  13.982  16.225 -0.1135  0.2020 -0.1927
 6801W        W25005   8.768  10.815  16.318 -0.0919 -0.3146  0.0493
 6802W        W25006   7.671  13.693  13.796 -0.0309  0.0122 -0.1544
 6803W        W25007   1.197   9.982   5.024 -0.1059 -0.0489  0.1089
 6804W        W25008  14.477   8.053   4.875 -0.1893  0.5111  0.1004
 6805W        W25009   9.200   9.288  15.166 -0.0503 -0.1885  0.3580
 6806W        W25010  12.967   3.495  12.728 -0.2713  0.0788  0.2045
 6807W        W25011   1.058   4.490  16.839 -0.0067  0.1752  0.1812
 6808W        W25012   7.118   9.541   3.555 -0.3195 -0.1981 -0.3545
 6809W        W25013  15.407   1.103   2.620 -0.2556  0.0083 -0.0831
 6810W        W25014  10.202  16.154  13.651  0.0916 -0.0586  0.0256
 6811W        W25015   6.367  12.406   0.338 -0.0363 -0.0392 -0.0572
 6812W        W25016  12.955  14.219  13.865  0.1490  0.0605  0.3063
 6813W        W25017   7.796   5.020  15.284  0.4090 -0.0830  0.0915
 6814W        W25018  13.779   1.386  16.156  0.1824 -0.2235  0.1713
 6815W        W25019  11.597  10.365   1.138  0.0265 -0.3899 -0.1902
 6816W        W25020   7.593  12.705   3.514 -0.1419  0.0010 -0.0744
 6817W        W25021   8.513   8.664  12.962  0.2022 -0.0880  0.0171
 6818W        W25022   6.705   7.038  15.054 -0.2851 -0.1656  0.0401
 6819W        W25023  13.733   3.768   4.285 -0.1832 -0.2289 -0.1345
 6820W        W25024  13.039   4.005  13.484  0.1849 -0.2456  0.0639
 6821W        W25025   7.490   8.479  14.887  0.0104  0.4485  0.0574
 6822W        W25026   2.540  11.376  15.926 -0.3206 -0.0553  0.0389
 6823W        W25027   6.446  12.515  16.555  0.0378  0.0579  0.4381
 6824W        W25028  12.981  13.108   5.748  0.0648 -0.0198  0.3276
 6825W        W25029  11.444  15.917   4.551 -0.2142  0.0119  0.0921
 6826W        W25030  14.589  16.749  14.758  0.2083 -0.1456  0.0843
 6827W        W25031   7.872  16.630   3.953  0.1440  0.2097 -0.1179
 6828W        W25032   2.089   7.879  11.966 -0.0541 -0.2670 -0.1499
 6829W        W25033   7.947  11.259   5.347 -0.1704 -0.1333 -0.0063
 6830W        W25034   4.172   9.227   4.059  0.1287  0.0168  0.0150
 6831W        W25035   2.284  17.003   1.903  0.2387 -0.1860  0.0704
 6832W        W25036   8.944  10.593  14.234  0.0622  0.2303  0.4302
 6833W        W25037   2.635  15.380   1.013 -0.2609  0.0593 -0.1142
 6834W        W25038   1.807   1.180   0.207  0.0132 -0.0992  0.2292
 6835W        W25039  13.440  16.051   3.690 -0.0385 -0.2799  0.1050
 6836W        W25040  11.408  14.648  16.684 -0.2978 -0.0118 -0.2751
 6837W        W25041   4.188  17.309  13.986 -0.3431  0.0465 -0.3591
 6838W        W25042   5.956   9.482   1.426 -0.3091 -0.0098 -0.1503
 6839W        W25043   9.096  11.024  12.998  0.2525 -0.2060 -0.0856
 6840W        W25044  15.084  12.506   0.341 -0.0203  0.1037 -0.0035
 6841W        W25045   2.793  10.726  13.816  0.1720  0.0672 -0.3884
 6842W        W25046  11.520  10.247  12.852  0.1387 -0.3798 -0.2371
 6843W        W25047  17.145   6.919   3.060  0.1139  0.0533 -0.0819
 6844W        W25048   0.493  11.383  12.977 -0.0440  0.5359 -0.0127
 6845W        W25049  17.517   4.710  12.593 -0.2034  0.1172  0.0873
 6846W        W25050   2.670  10.280  13.433 -0.0952 -0.0586 -0.1790
 6847W        W25051   6.243   7.649  17.187 -0.3067  0.1262 -0.1779
 6848W        W25052  15.070  16.219   5.623 -0.0441  0.2086 -0.1281
 6849W        W25053   4.523   6.087  15.348 -0.0772  0.0930  0.5482
 6850W        W25054   7.038   9.979  11.892 -0.1820  0.0853  0.2042
 6851W        W25055  15.842   3.340   1.622 -0.2246 -0.2493  0.4179
 6852W        W25056   2.458   8.881  16.228  0.0493 -0.0887  0.0096
 6853W        W25057   1.645  10.939   4.275  0.4683  0.2799 -0.0955
 6854W        W25058  16.859   5.382  12.953  0.0623 -0.3695  0.3573
 6855W        W25059   0.256   4.926  17.281 -0.0561 -0.0362  0.4280
 6856W        W25060  12.942   0.734   1.020 -0.0716 -0.2369  0.0044
 6857W        W25061   3.238   3.070   1.436  0.1780 -0.0648 -0.0758
 6858W        W25062  11.569  10.807   4.607  0.0261 -0.0742  0.2307
 6859W        W25063  13.819   0.509   4.067 -0.2437  0.0912  0.0824
 6860W        W25064  16.245  13.564   1.867 -0.0713  0.1573  0.0091
 6861W        W25065  17.097  16.114  12.468  0.0847  0.2311 -0.1294
 6862W        W25066  12.194  14.312   0.608 -0.0177 -0.0130 -0.0191
 6863W        W25067   5.567   5.171   4.165  0.1519 -0.4375 -0.2487
 6864W        W25068   9.044   9.458  16.065  0.5611  0.1526 -0.0802
 6865W        W25069   6.958  13.348  13.340  0.0472  0.1234 -0.0687
 6866W        W25070   1.908   7.442   0.683 -0.1132 -0.1214 -0.3682
 6867W        W25071  14.883  13.792   5.458 -0.3663 -0.0696 -0.0682
 6868W        W25072   8.098   4.727  14.878  0.0159  0.2970  0.0911
 6869W        W25073  11.441   0.751  17.204  0.2751 -0.2307  0.1744
 6870W        W25074  13.463  11.665  15.865  0.2717  0.1954 -0.2460
 6871W        W25075  14.490  11.692   1.928 -0.0166 -0.1603 -0.0677
 6872W        W25076  15.821  16.105  14.679 -0.0840  0.0320 -0.1251
 6873W        W25077   8.683  10.098  12.772  0.0320  0.1972  0.1224
 6874W        W25078   3.975  16.414   4.903  0.0296 -0.2304 -0.2396
 6875W        W25079  12.037   2.258  12.731 -0.0548 -0.0794  0.0818
 6876W        W25080  12.130   7.884  16.164  0.0991  0.0257  0.3552
 6877W        W25081  12.176  17.241   1.044 -0.0290  0.1293 -0.1792
 6878W        W25082  17.037   6.555  14.156  0.1862 -0.1281  0.0367
 6879W        W25083  12.024   9.126  14.999 -0.0203  0.0081  0.2999
 6880W        W25084   0.176  11.972   0.119 -0.1479 -0.0907 -0.0062
 6881W        W25085  17.220   1.089   1.340 -0.0410  0.0213 -0.1871
 6882W        W25086  10.920  12.019   4.390 -0.4082 -0.2038 -0.4472
 6883W        W25087   0.973   9.603   0.785  0.4226  0.0995 -0.2295
 6884W        W25088   8.520  15.861   5.010  0.1863  0.0060  0.2534
 6885W        W25089  10.237  13.270  12.693  0.2313 -0.0370 -0.1655
 6886W        W25090   5.446  13.322  12.137  0.1220 -0.1806 -0.1383
 6887W        W25091  16.168  14.234  14.421 -0.3825 -0.0356 -0.3257
 6888W        W25092   1.021   8.377   3.398 -0.0192  0.1231 -0.0978
 6889W        W25093   9.504  10.299   1.392  0.1560  0.1693  0.0871
 6890W        W25094  15.750   3.500  15.183  0.1335 -0.2102  0.0931
 6891W        W25095  16.434  12.130   5.887 -0.0216  0.1794  0.3137
 6892W        W25096   6.848  10.746  11.764 -0.3111  0.0780 -0.3351
 6893W        W25097  14.244   0.040  14.741 -0.1249  0.1911 -0.0792
 6894W        W25098  15.257   6.765  11.582  0.3508 -0.1605  0.1218
 6895W        W25099   1.033   7.542   3.961  0.0558 -0.1301 -0.0095
 6896W        W25100  10.362  15.879   0.405 -0.0741 -0.1215 -0.4705
 6897W        W25101   5.295   0.242  15.028  0.6583 -0.2245 -0.1269
 6898W        W25102  11.810  15.456  14.322 -0.1075 -0.1193  0.0159
 6899W        W25103   8.177  15.797  15.568 -0.0630 -0.0918  0.0248
 6900W        W25104   7.739   4.481   2.042 -0.3389  0.0668 -0.4051
 6901W        W25105  16.712   9.421  16.741 -0.2852 -0.1152  0.0184
 6902W        W25106   9.120   5.888  16.508  0.1423 -0.2680 -0.1020
 6903W        W25107   0.892  15.615  16.164 -0.1486  0.1071 -0.0318
 6904W        W25108  15.839   4.116  13.840  0.0232  0.1530 -0.1656
 6905W        W25109   7.001   6.887  13.113  0.1436 -0.0470 -0.0139
 6906W        W25110   8.042   6.265   4.917  0.2067  0.0075 -0.0023
 6907W        W25111   7.209  14.286   4.020 -0.3775  0.0222  0.4708
 6908W        W25112   9.362  11.003   1.216  0.2298 -0.2006 -0.0579
 6909W        W25113  11.518   7.182  14.755  0.3210  0.1430  0.1623
 6910W        W25114   1.274  14.961   5.826 -0.0781  0.2788  0.1751
 6911W        W25115   4.965   4.096  17.147  0.2473  0.1695  0.1241
 6912W        W25116  15.799   7.828   1.292 -0.0660  0.2715 -0.1156
 6913W        W25117  12.075   8.343   1.494 -0.1919  0.0599 -0.0573
 6914W        W25118  11.900  13.553   3.890 -0.1252 -0.0740  0.0180
 6915W        W25119   4.100   5.705  14.082  0.1035  0.1276 -0.1186
 6916W        W25120  15.191  15.902   3.011  0.2277  0.1106  0.4458
 6917W        W25121   5.009  11.279  14.051 -0.2495  0.2758  0.2721
 6918W        W25122  15.021   1.509   0.476  0.2353  0.1562 -0.1705
 6919W        W25123   9.507  17.431   3.262  0.1827  0.1577  0.2530
 6920W        W25124  17.442   9.407  13.106 -0.1716 -0.1351  0.0953
 6921W        W25125  13.810  17.151   0.956 -0.2331  0.2999  0.2820
 6922W        W25126   2.134  11.287   2.231 -0.1270 -0.1471  0.0208
 6923W        W25127  12.317  15.879  13.431 -0.1085  0.2326 -0.2206
 6924W        W25128  10.288  10.716  15.472  0.1688 -0.0045  0.1419
 6925W        W25129   6.243  16.724   2.513 -0.1097  0.1553 -0.1877
 6926W        W25130  13.764  11.649   3.423  0.1041 -0.2254  0.1060
 6927W        W25131   3.155   0.548   5.024 -0.2148  0.0011 -0.0093
 6928W        W25132  10.055   5.474  14.735 -0.1682 -0.1605  0.0694
 6929W        W25133   3.117  13.207   2.172 -0.0005 -0.1074  0.0696
 6930W        W25134   2.097  16.948   3.148  0.0134  0.0188 -0.1066
 6931W        W25135  16.177  14.889   4.300  0.0931  0.1860 -0.1528
 6932W        W25136   0.339  14.428  13.893  0.1055  0.2266 -0.3099
 6933W        W25137  15.849   5.888   1.105  0.0052  0.2401  0.0636
 6934W        W25138  16.659  13.887   0.560 -0.0612 -0.0426 -0.0261
 6935W        W25139   6.469   7.560   3.360 -0.1903  0.3868 -0.2670
 6936W        W25140  15.485  16.414  16.944 -0.1644 -0.0070 -0.1458
 6937W        W25141   0.835  15.675   5.560  0.1380  0.2304  0.0661
 6938W        W25142   2.275   5.810  14.183  0.1704  0.1392  0.0847
 6939W        W25143   8.961   7.324  13.506  0.1415  0.1747 -0.2002
 6940W        W25144  14.122   4.449   2.552 -0.3396 -0.0426 -0.1259
 6941W        W25145   8.750   7.380   4.283 -0.0996 -0.0966 -0.0911
 6942W        W25146  14.855  11.764  13.835  0.4284 -0.0575 -0.3928
 6943W        W25147   5.210   5.723  10.943 -0.1641  0.3140 -0.4267
 6944W        W25148  11.042  17.076  14.121  0.1501 -0.0171  0.1325
 6945W        W25149  16.512   5.321   1.278 -0.0599 -0.2390 -0.0657
 6946W        W25150   2.833   0.663  15.763  0.2041  0.0878 -0.0339
 6947W        W25151  13.724   6.993  13.620  0.3038 -0.1458  0.0529
 6948W        W25152  10.305   0.801   0.271 -0.0027 -0.1735  0.0709
 6949W        W25153  14.258  16.411   5.480  0.2757 -0.0294  0.0346
 6950W        W25154  16.018   6.854   0.651 -0.2755 -0.0470 -0.0730
 6951W        W25155   9.754  15.423   0.641 -0.0649  0.1044  0.1801
 6952W        W25156   1.291   5.584  14.595  0.0553  0.0558  0.4294
 6953W        W25157   9.878  11.477  13.262 -0.0733 -0.2225 -0.0174
 6954W        W25158   0.038  17.415   1.726 -0.0208 -0.1556  0.0290
 6955W        W25159   2.103   3.668   6.114 -0.3070  0.1881 -0.0976
 6956W        W25160  12.709  17.473  13.383  0.1336  0.0374  0.0391
 6957W        W25161   0.020  15.290   2.035  0.0772  0.0916  0.2278
 6958W        W25162  12.687  11.547  11.995 -0.0804 -0.1545  0.3516
 6959W        W25163   9.720   1.849  13.035  0.1183  0.1506 -0.1478
 6960W        W25164  14.622   2.326  14.549  0.1541 -0.0376  0.0133
 6961W        W25165   5.386   0.006  16.450  0.4386  0.2206  0.3730
 6962W        W25166  14.481   4.470   2.131  0.1765 -0.2421 -0.1919
 6963W        W25167   4.205   9.328  15.661 -0.0075  0.1693 -0.2280
 6964W        W25168  12.795   3.359   4.189 -0.2554 -0.0909 -0.0723
 6965W        W25169  14.489   9.271   1.240  0.0114  0.1037 -0.2462
 6966W        W25170  11.783   1.386  13.862 -0.1738 -0.1776  0.2083
 6967W        W25171   2.111   8.739   1.322 -0.1498 -0.1445  0.0526
 6968W        W25172  10.446  14.758  16.213  0.2345  0.0662 -0.1811
 6969W        W25173   2.851  15.899   0.997 -0.2577 -0.4830 -0.0431
 6970W        W25174   6.096  12.142   4.211 -0.0839 -0.2416 -0.4472
 6971W        W25175  13.959  17.469  13.637 -0.0336  0.1016  0.0286
 6972W        W25176   6.278  11.475   0.093 -0.2490 -0.3768 -0.3094
 6973W        W25177   8.686   7.848  15.885 -0.0660  0.1682  0.2012
 6974W        W25178  11.429   1.558  14.274 -0.0971 -0.1920 -0.1493
 6975W        W25179   4.377   7.663   2.299  0.1588 -0.2586 -0.3701
 6976W        W25180  14.434  10.126  14.063 -0.1149 -0.1789 -0.0062
 6977W        W25181   0.341  12.160   1.600  0.1553  0.3542  0.1018
 6978W        W25182  13.247   7.125   3.174  0.3391  0.2678 -0.0181
 6979W        W25183   4.822   1.857   2.811 -0.0247 -0.0718 -0.0358
 6980W        W25184  13.967   6.360  16.778 -0.4281  0.2614 -0.0847
 6981W        W25185  13.456   7.295  15.955 -0.1898 -0.1910 -0.1446
 6982W        W25186  10.429  16.874   1.112  0.1868  0.0768  0.1320
 6983W        W25187   0.082   2.156   2.354 -0.1178 -0.2744 -0.0810
 6984W        W25188   9.325   6.569  13.818 -0.1145 -0.1884  0.1164
 6985W        W25189  17.119  17.114  15.513 -0.0237  0.2892  0.1068
 6986W        W25190  12.802   9.166  16.065 -0.0112  0.3326  0.0546
 6987W        W25191   1.776  16.426  15.726  0.1687 -0.1086  0.2465
 6988W        W25192   3.830   0.467  12.359  0.1538  0.1746 -0.1397
 6989W        W25193   0.510  15.501  14.161  0.0075 -0.0615 -0.0613
 6990W        W25194   2.349  13.848  11.750 -0.0125  0.5420  0.0424
 6991W        W25195   3.921  14.669  15.221 -0.1860  0.3861  0.1365
 6992W        W25196  13.378   5.155  14.756 -0.1367 -0.0027  0.0164
 6993W        W25197   7.317  10.648  13.353 -0.4798 -0.0307 -0.1845
 6994W        W25198   0.120   4.786   3.991 -0.1114 -0.1247 -0.1441
 6995W        W25199   9.703   3.715  16.079 -0.4081  0.0213  0.1492
 6996W        W25200   8.303   4.653   4.307 -0.2830  0.1879  0.0050
 6997W        W25201   4.064   6.722  11.716  0.0320 -0.0095  0.1203
 6998W        W25202  13.855  15.756  15.069  0.1458 -0.3217  0.0432
 6999W        W25203  16.736  14.393   3.512 -0.3590 -0.1256 -0.0959
 7000W        W25204   3.537   4.141   4.678  0.1229 -0.0602  0.1896
 7001W        W25205  16.175   4.110   4.160  0.0423  0.1565 -0.1448
 7002W        W25206   5.493  16.375  15.228  0.1831  0.2736 -0.2649
 7003W        W25207  12.544   7.877  13.438  0.0485 -0.1453  0.0928
 7004W        W25208   1.186  14.490   6.080 -0.0718 -0.0775  0.1377
 7005W        W25209   9.366   4.931  14.264  0.0342 -0.0919  0.1091
 7006W        W25210  14.992  13.325   4.179 -0.1387  0.0117 -0.0862
 7007W        W25211   9.547  11.713  12.617  0.0049 -0.6481  0.0669
 7008W        W25212  15.687   8.844  15.950  0.2651  0.2278  0.0148
 7009W        W25213   3.093   1.576   0.836  0.0396  0.2853 -0.1368
 7010W        W25214  11.393   5.844  14.016  0.1327 -0.1708  0.2819
 7011W        W25215   0.935   2.285   5.136 -0.0455 -0.1753  0.1079
 7012W        W25216  14.728   8.701   3.511 -0.0504  0.0978 -0.0444
 7013W        W25217  10.001  12.627   3.140 -0.1260  0.2061  0.3264
 7014W        W25218   1.307  13.138   2.092 -0.0061 -0.0879 -0.1764
 7015W        W25219   3.472   4.520   3.712 -0.3474 -0.0593 -0.1562
 7016W        W25220   0.106   4.914  15.466  0.0031  0.1010 -0.0914
 7017W        W25221   1.093   6.644  15.767 -0.1002  0.1105 -0.3525
 7018W        W25222  11.448   0.991  14.564 -0.2021  0.0962  0.1366
 7019W        W25223   0.915   2.046   4.177  0.1419 -0.1583  0.1776
 7020W        W25224  10.501   7.668  12.454  0.1370  0.0191 -0.0263
 7021W        W25225   2.335  10.661   3.008 -0.0141  0.1683  0.1165
 7022W        W25226   3.349  17.449  15.647 -0.0292 -0.0753 -0.2381
 7023W        W25227  16.908   4.850  14.322 -0.0800  0.1164  0.2095
 7024W        W25228  17.366   8.975   1.596  0.0940 -0.1069  0.1108
 7025W        W25229   4.893  16.041   1.441 -0.0688 -0.0544 -0.2557
 7026W        W25230   9.479  17.513   1.526 -0.2527 -0.3010  0.1175
 7027W        W25231   9.740  13.108   1.374  0.1779  0.1851  0.1130
 7028W        W25232  10.927  13.002  15.452  0.0453 -0.0911  0.0466
 7029W        W25233   3.614  14.091   2.313 -0.2176  0.1151 -0.1197
 7030W        W25234   8.124   8.019  14.776  0.0218  0.1035 -0.1394
 7031W        W25235  10.545   2.651  16.878  0.4475  0.3074 -0.1161
 7032W        W25236   9.972  10.889  15.899 -0.4444 -0.0130 -0.0045
 7033W        W25237   5.884   9.223  15.067  0.2721  0.2036 -0.0043
 7034W        W25238  13.521   9.514   3.262 -0.0707 -0.1643  0.2369
 7035W        W25239  13.297   2.199   2.858 -0.0303  0.0496 -0.1045
 7036W        W25240  17.229   7.142   3.586 -0.3909 -0.0735 -0.1320
 7037W        W25241   4.492  15.556   2.967 -0.3085  0.2348 -0.0200
 7038W        W25242   8.861  14.696  15.233  0.1156  0.3104 -0.1482
 7039W        W25243   0.572   6.273   0.123 -0.0554  0.0646 -0.1548
 7040W        W25244   3.932  16.777   3.958 -0.0072 -0.2943 -0.0261
 7041W        W25245   3.330   5.837  16.838 -0.1250 -0.1972 -0.2903
 7042W        W25246  13.830   2.285   5.193 -0.2473 -0.1499 -0.1658
 7043W        W25247   5.246   3.387  17.214 -0.0163 -0.2953 -0.0621
 7044W        W25248   9.502  17.372  12.937  0.0374  0.2469 -0.4689
 7045W        W25249   6.449   1.072  13.973 -0.0272 -0.1300  0.0841
 7046W        W25250   5.247   7.560  13.011  0.2877  0.3875 -0.3333
 7047W        W25251   1.894   4.319  16.014  0.0745  0.2550  0.0482
 7048W        W25252  10.796   5.837   2.867 -0.4826 -0.0869  0.0651
 7049W        W25253  12.986  15.315   1.350  0.3976 -0.2493 -0.1866
 7050W        W25254   1.227   0.409   3.208 -0.0068  0.0204  0.1025
 7051W        W25255   9.558   0.691  13.638  0.1799 -0.0885  0.1196
 7052W        W25256   3.994   8.263   4.418 -0.0985  0.0118  0.2668
 7053W        W25257   6.298   6.902  14.371 -0.1270  0.0461 -0.0853
 7054W        W25258   9.888   7.863   2.015  0.3448  0.2412  0.3121
 7055W        W25259   0.265  15.160  13.184  0.1074 -0.2000 -0.1240
 7056W        W25260  11.580   9.501   0.679  0.1647 -0.0898 -0.2288
 7057W        W25261  13.108   7.787   3.215  0.0197  0.3687 -0.0395
 7058W        W25262   6.511  12.692   4.877  0.2028  0.0255  0.2338
 7059W        W25263  13.836   6.753  12.653 -0.1823  0.1986 -0.1049
 7060W        W25264  16.842   4.638  17.136  0.2080 -0.0299  0.0811
 7061W        W25265   3.974  14.036   1.302  0.0392  0.0063 -0.0129
 7062W        W25266   4.697   9.991  15.209 -0.0466  0.1813 -0.1362
 7063W        W25267  17.371  13.509  15.010  0.0040  0.0159  0.0411
 7064W        W25268   1.257  16.479  13.032 -0.0715  0.2113  0.0505
 7065W        W25269   0.124  14.471   1.704  0.1660  0.2379  0.1691
 7066W        W25270  11.217   4.016  11.846 -0.0396  0.0788 -0.1726
 7067W        W25271  17.508  12.418  16.170  0.0453 -0.2404 -0.1908
 7068W        W25272  17.515  16.136   5.334  0.3769  0.1435  0.0316
 7069W        W25273  13.530  13.890  13.995  0.1510  0.2329 -0.2420
 7070W        W25274  14.196   8.496   4.955  0.2787 -0.3570  0.2919
 7071W        W25275  15.987  14.506   0.491 -0.2532  0.1187 -0.2679
 7072W        W25276  15.184  16.404   4.377 -0.0522 -0.2159 -0.2461
 7073W        W25277  10.541   7.727  15.350 -0.0720 -0.0514 -0.2220
 7074W        W25278   3.543  14.105  14.504  0.1071 -0.2031 -0.1820
 7075W        W25279   9.054  14.179   2.209  0.1360 -0.0412 -0.4845
 7076W        W25280   7.133   4.244   3.046 -0.2329  0.0282 -0.3133
 7077W        W25281   4.999  12.934  14.428  0.4018 -0.1558  0.1040
 7078W        W25282   0.016  11.050   4.018 -0.0743  0.0151  0.0984
 7079W        W25283   5.712  12.538  16.486 -0.0950 -0.1064 -0.4024
 7080W        W25284   9.687   4.151   2.400 -0.1568  0.0028  0.1058
 7081W        W25285  11.159  11.124   3.457 -0.0645 -0.2161  0.0362
 7082W        W25286   3.397  11.966   4.544 -0.1596 -0.1744  0.4623
 7083W        W25287   6.744   6.759  14.630  0.0914  0.1526  0.1371
 7084W        W25288   6.253   7.460   1.877 -0.3759  0.1387 -0.1571
 7085W        W25289   3.619  13.294  15.769 -0.0745  0.1507  0.2777
 7086W        W25290  14.928  13.011   5.820  0.1452  0.0003 -0.3477
 7087W        W25291  16.190  16.568   0.042 -0.0168 -0.3685  0.1822
 7088W        W25292   7.815   8.687  15.197  0.1704  0.0253  0.0971
 7089W        W25293  12.880   2.354  17.162  0.0702  0.0493  0.1657
 7090W        W25294   0.598   7.976   1.503 -0.0386  0.2011  0.2680
 7091W        W25295  15.198   2.615  12.921 -0.2533 -0.0325 -0.1332
 7092W        W25296  15.447   5.779  15.488 -0.0201  0.0686  0.0560
 7093W        W25297   1.803  15.824   5.268 -0.0032  0.0815 -0.1626
 7094W        W25298   4.303   7.099  14.670  0.4755 -0.0325  0.2412
 7095W        W25299  10.939   2.399  13.924  0.3289 -0.1722  0.2407
 7096W        W25300   4.314  15.257  16.385  0.0380  0.2269 -0.1219
 7097W        W25301   4.176   6.263  14.165  0.2083  0.0964 -0.2255
 7098W        W25302  10.583  10.761  12.876 -0.0556  0.1318  0.0731
 7099W        W25303   4.866  10.916   1.503  0.1202  0.2398  0.0017
 7100W        W25304   5.022  17.429  13.021  0.1103  0.0112  0.0182
 7101W        W25305  14.663   7.137   0.535 -0.0483  0.1899  0.0040
 7102W        W25306   9.549   2.899  13.119  0.1660  0.2722  0.1011
 7103W        W25307   2.395   8.156   1.814 -0.0782 -0.0666  0.3464
 7104W        W25308  15.573  16.252  16.122 -0.0037 -0.3604 -0.4166
 7105W        W25309   1.901   3.414   2.437  0.0461 -0.1633  0.0751
 7106W        W25310   7.855   7.811   2.178  0.1361 -0.0853  0.0490
 7107W        W25311   4.693  16.234   4.019  0.0589  0.2753 -0.0897
 7108W        W25312   3.443  15.920  12.892  0.0261  0.1567  0.1380
 7109W        W25313   0.341   8.076  15.083  0.2819 -0.0709  0.0703
 7110W        W25314   1.554  17.019   3.135  0.3096  0.3328  0.2014
 7111W        W25315   2.633  12.382  14.986  0.5016  0.0571  0.2924
 7112W        W25316  15.578  13.329   0.302 -0.1637  0.3537  0.1469
 7113W        W25317   9.136   8.633   0.994  0.0647 -0.0864 -0.1342
 7114W        W25318  16.781  12.182  13.561  0.1838 -0.0073  0.1208
 7115W        W25319   5.033  10.290  15.294 -0.0742 -0.0159  0.1064
 7116W        W25320   2.407   0.402   1.133 -0.1935 -0.0154 -0.1517
 7117W        W25321   5.000  10.175  12.204 -0.2592 -0.1485 -0.0003
 7118W        W25322  10.012   7.281  13.961  0.1251 -0.1428  0.2377
 7119W        W25323   3.095   8.087  17.074  0.4148  0.1112  0.4147
 7120W        W25324  13.912   3.025  13.525  0.0938 -0.0029 -0.1973
 7121W        W25325  16.987   9.567   4.069  0.0401  0.0446 -0.0952
 7122W        W25326   1.520   0.290  12.219 -0.3289 -0.0128  0.2745
 7123W        W25327  16.034   3.566   3.364  0.1185  0.0436 -0.0657
 7124W        W25328   6.378   4.591   2.141  0.1466 -0.3107 -0.0203
 7125W        W25329  11.370   0.933   2.182  0.0873  0.0829  0.0602
 7126W        W25330  17.278  17.358  12.899  0.0036 -0.0787 -0.0513
 7127W        W25331   1.092   2.025   4.615  0.0759  0.2406 -0.4598
 7128W        W25332  17.066   3.233   0.124  0.0076 -0.0836 -0.0689
 7129W        W25333   1.292   4.866   4.775 -0.1902  0.1737  0.2896
 7130W        W25334   4.853  15.067   0.508 -0.1191  0.3972  0.2430
 7131W        W25335   2.799  15.792  12.042 -0.0054  0.0220 -0.3582
 7132W        W25336  11.975   4.018   0.203  0.0910 -0.1315  0.0575
 7133W        W25337  14.632  10.897  14.114  0.0389  0.0690 -0.3629
 7134W        W25338  11.134   5.572   3.189 -0.0923  0.0057  0.3173
 7135W        W25339  12.269   6.855  12.096 -0.0279 -0.0590 -0.1585
 7136W        W25340   5.012  16.276  15.082 -0.1095  0.2497 -0.0277
 7137W        W25341  15.644  16.797   4.342  0.1223  0.2431  0.0348
 7138W        W25342   6.088  11.064  13.296  0.1500  0.1550  0.0327
 7139W        W25343   4.615   1.075  14.238  0.0974 -0.0066 -0.0851
 7140W        W25344   0.187  17.389  13.859 -0.1134 -0.0246  0.5112
 7141W        W25345   2.807  14.670   1.411 -0.2571 -0.1011 -0.2911
 7142W        W25346  11.742  14.046   0.765 -0.2172 -0.1081 -0.0537
 7143W        W25347  16.099   3.147   2.040  0.0095  0.1213  0.2666
 7144W        W25348   6.983   9.481   4.502  0.1121 -0.1323  0.3964
 7145W        W25349   7.148   0.246   0.721  0.2762  0.0496 -0.1103
 7146W        W25350  10.628   5.001  15.834 -0.3018 -0.0612  0.1370
 7147W        W25351  14.700  10.005   5.643  0.1235 -0.0848 -0.2761
 7148W        W25352  14.975   6.342   0.415 -0.2081 -0.0984  0.1395
 7149W        W25353  11.616   2.198   5.391 -0.0096 -0.0367  0.1777
 7150W        W25354   6.392  14.141  11.903 -0.1222  0.1035  0.1408
 7151W        W25355   0.715  10.692  13.057  0.0521  0.2221 -0.1950
 7152W        W25356  16.515  15.997   3.661  0.1955 -0.0495 -0.0184
 7153W        W25357  16.358   6.461   2.417  0.1105  0.0104  0.1312
 7154W        W25358   5.352   9.598  13.410 -0.1514  0.2162  0.0349
 7155W        W25359   6.078  11.341   3.606  0.0556 -0.1640 -0.2257
 7156W        W25360   3.950   3.220   3.681  0.3064 -0.2244 -0.0462
 7157W        W25361  11.881   1.840  14.073  0.0599 -0.2365  0.0234
 7158W        W25362   1.491   3.569   3.550 -0.1170  0.2142  0.1504
 7159W        W25363  10.721   5.207  13.202 -0.1292 -0.1560  0.1803
 7160W        W25364  10.819   2.034   0.211 -0.0915 -0.0085 -0.4773
 7161W        W25365   4.595   6.463  13.909  0.0797 -0.2600 -0.1988
 7162W        W25366  12.403  10.655   0.471 -0.0080  0.1856 -0.0130
 7163W        W25367  14.258  12.876   2.960 -0.0789  0.1848  0.1080
 7164W        W25368   4.136   7.161   0.828  0.3964 -0.2639  0.0188
 7165W        W25369  11.256   5.173  16.964  0.2746 -0.0617 -0.2570
 7166W        W25370   8.129   2.448  14.237 -0.0391  0.3073  0.2897
 7167W        W25371  11.580   7.394  12.805  0.1502 -0.0962  0.1163
 7168W        W25372   6.849   4.338  13.366  0.4540  0.0523 -0.2370
 7169W        W25373  15.134  15.661   1.369 -0.1416 -0.0134 -0.2897
 7170W        W25374  16.679  10.276  14.313  0.1176  0.0893  0.0122
 7171W        W25375   7.911  13.243   4.598  0.1641  0.0867 -0.0256
 7172W        W25376   8.995  15.717  12.908 -0.1564  0.1400  0.0348
 7173W        W25377   2.738   8.344  13.899  0.0085 -0.2411 -0.0086
 7174W        W25378  13.292  12.209   2.217  0.3323  0.0011 -0.1556
 7175W        W25379  10.466   1.518   3.536  0.0815 -0.1198  0.1595
 7176W        W25380   2.823  15.383  15.523  0.2051 -0.3784 -0.1986
 7177W        W25381   4.813  14.109  16.384  0.1078 -0.1634  0.1948
 7178W        W25382   0.725  12.412  16.700  0.3461 -0.2732 -0.1635
 7179W        W25383   1.603   5.333  14.905  0.0740 -0.2225  0.2108
 7180W        W25384  15.048  10.538  13.036  0.2281 -0.1583 -0.1614
 7181W        W25385   3.779   3.135   6.276  0.2877 -0.1783  0.0183
 7182W        W25386   8.817   0.887  15.788  0.1030  0.0587 -0.1192
 7183W        W25387  10.750   7.113  17.227  0.0601  0.1049 -0.0560
 7184W        W25388  12.275   7.996   0.128  0.0209 -0.0122  0.0735
 7185W        W25389  10.482   2.522  13.726 -0.0361  0.0953  0.1361
 7186W        W25390  11.687   3.601  13.715 -0.2794  0.1604 -0.1757
 7187W        W25391   5.669  10.093   2.411 -0.1790 -0.3585 -0.0477
 7188W        W25392  14.997   6.847   1.789  0.0021  0.1167  0.1568
 7189W        W25393  15.107  10.272  14.640 -0.0667 -0.0658  0.3104
 7190W        W25394   1.535  17.315   0.372 -0.1680  0.0196 -0.1584
 7191W        W25395  14.671   2.338  16.355  0.1366 -0.0566 -0.0984
 7192W        W25396   5.105   4.325   5.244 -0.2055 -0.0750 -0.0224
 7193W        W25397   3.178   3.713   1.021  0.2002  0.1709 -0.1378
 7194W        W25398   0.068   5.573   1.773  0.0130 -0.1029  0.3243
 7195W        W25399  13.946  16.715  14.721 -0.1895 -0.0264  0.1824
 7196W        W25400  16.936   0.313   0.830 -0.1296  0.1063  0.1805
 7197W        W25401   2.212  15.894   1.721 -0.0165 -0.0729  0.2613
 7198W        W25402   0.087  11.145   2.702  0.4278 -0.0026  0.1311
 7199W        W25403   6.178   8.453   3.050 -0.1389  0.2145  0.0081
 7200W        W25404   8.420   9.524   2.396  0.2058  0.1713  0.1755
 7201W        W25405  11.015   7.587   4.188  0.0279  0.1233  0.2344
 7202W        W25406   9.738  13.234  13.644  0.1508  0.1104 -0.3040
 7203W        W25407  13.941   0.028   0.734 -0.0997  0.3480 -0.2143
 7204W        W25408  13.169  10.765  12.575  0.0070 -0.4831  0.0493
 7205W        W25409  15.663   6.696  15.277 -0.1170 -0.2057 -0.0652
 7206W        W25410   0.232   5.842  17.117 -0.0323  0.0491  0.3236
 7207W        W25411   1.838  16.581  16.797 -0.1468 -0.2344  0.4522
 7208W        W25412  12.112   0.182  14.121 -0.1038  0.0390 -0.0456
 7209W        W25413   4.404  16.897  12.452 -0.1519 -0.0290 -0.0314
 7210W        W25414   7.526   7.511  15.130  0.1897  0.0754  0.2586
 7211W        W25415  15.968  10.992  14.956 -0.2033  0.0873 -0.0003
 7212W        W25416  13.549  10.473  13.238  0.1835  0.2853  0.0434
 7213W        W25417   9.399   1.120  14.174  0.0562  0.3971  0.0951
 7214W        W25418  17.257   9.809   3.666  0.0141 -0.0217 -0.1279
 7215W        W25419  12.673  14.404  17.095 -0.3683  0.0310  0.2587
 7216W        W25420   8.313  12.641  15.458 -0.0738 -0.0817  0.0080
 7217W        W25421  11.797   6.281   1.463 -0.2341  0.1955 -0.1016
 7218W        W25422  16.916   0.693  16.413 -0.3218  0.0082  0.0793
 7219W        W25423   4.520   1.949  16.387  0.0301  0.1836 -0.3512
 7220W        W25424   2.617   5.763  16.824 -0.1553 -0.2326 -0.0730
 7221W        W25425  13.163   0.332   0.674 -0.0313 -0.0676 -0.1252
 7222W        W25426   4.458  13.580   3.316  0.4212  0.2755  0.1350
 7223W        W25427   9.405  17.284   5.030  0.2243 -0.1968 -0.0145
 7224W        W25428  16.946   9.839  11.871  0.0529 -0.0380  0.1712
 7225W        W25429   2.383   5.293   4.816  0.0423  0.1935 -0.1772
 7226W        W25430   2.751   9.124  14.703 -0.0821  0.0282  0.0777
 7227W        W25431  12.805  14.182  12.577 -0.0923  0.2969 -0.1360
 7228W        W25432   7.420  16.155   0.070 -0.0787  0.2159  0.1800
 7229W        W25433   9.124  13.979   1.414  0.2181  0.0605 -0.0603
 7230W        W25434   8.382  10.335   2.044  0.0506 -0.0922  0.2698
 7231W        W25435  14.249  13.128   0.059 -0.2378 -0.0579  0.0708
 7232W        W25436  17.231  10.386  16.406  0.1019 -0.1929 -0.0339
 7233W        W25437   1.490   7.164  16.610 -0.2153  0.0088  0.0745
 7234W        W25438  13.565  16.672   2.096  0.0413 -0.0404 -0.1192
 7235W        W25439  17.245   7.391  16.241  0.1164  0.2083  0.1371
 7236W        W25440  10.360   1.453  15.983  0.2673  0.1000  0.3288
 7237W        W25441   9.268   3.636   3.519  0.1138  0.1718 -0.1923
 7238W        W25442  16.566   4.583  16.664  0.1922  0.0412 -0.4141
 7239W        W25443   2.155   8.624   1.791  0.1446 -0.2688 -0.0421
 7240W        W25444  12.389   4.726   5.369 -0.0438  0.1620  0.1300
 7241W        W25445  10.475   9.291  12.826 -0.2939 -0.0066 -0.1226
 7242W        W25446   2.045   4.834  12.418 -0.1782  0.2730  0.1727
 7243W        W25447   7.056   0.591   2.063  0.2684  0.0312  0.0012
 7244W        W25448  12.904   9.995  14.588  0.0828 -0.1049 -0.2198
 7245W        W25449   9.898   9.662  16.951  0.1035  0.1388  0.2130
 7246W        W25450   2.115  15.160   5.409 -0.3073  0.1464  0.0082
 7247W        W25451   3.096   0.510   4.502  0.0769  0.0364 -0.0566
 7248W        W25452  12.216   1.171   2.003 -0.1669  0.0846  0.1961
 7249W        W25453   6.667   9.253   2.715 -0.1176  0.0806  0.2326
 7250W        W25454   7.682  11.079  14.898  0.2195  0.1853 -0.2337
 7251W        W25455   7.274  17.351  12.394  0.0575 -0.0187 -0.1417
 7252W        W25456   4.248   5.747   3.683  0.1413  0.1240 -0.1373
 7253W        W25457   5.159   5.548  16.017  0.1981 -0.0694  0.1280
 7254W        W25458   6.553   9.854  13.645 -0.0364  0.3899 -0.1099
 7255W        W25459   5.355   3.753   2.747  0.0097 -0.4463 -0.3037
 7256W        W25460  12.498  10.625  13.692  0.2115  0.1137  0.1889
 7257W        W25461   1.186   3.367  14.420 -0.1244 -0.1605 -0.0378
 7258W        W25462  12.896  12.213   5.143 -0.1010 -0.1309 -0.1914
 7259W        W25463  10.122  14.173  14.095 -0.0717 -0.0427  0.2890
 7260W        W25464  10.785   7.358   5.556  0.4017  0.1004  0.1984
 7261W        W25465   0.239   8.800  15.440 -0.2065  0.1215  0.0161
 7262W        W25466   7.804   0.471  13.987 -0.2202 -0.2558  0.1085
 7263W        W25467  16.812   6.807   0.639 -0.0572 -0.0518 -0.1836
 7264W        W25468   5.901   3.571  16.940 -0.2305 -0.0315  0.0947
 7265W        W25469  14.327  13.698  14.724  0.4001 -0.1853 -0.3312
 7266W        W25470  12.850  14.523   3.107 -0.1277  0.3316  0.1054
 7267W        W25471  12.730   2.364  15.013  0.0256 -0.0259 -0.2689
 7268W        W25472   0.720  10.474  14.810  0.0371 -0.2167  0.0122
 7269W        W25473  16.351   6.856   2.065 -0.2082  0.1346 -0.3392
 7270W        W25474   3.923   9.838  16.963  0.0521  0.0443 -0.0482
 7271W        W25475  16.274   8.108   0.433 -0.0697 -0.1951 -0.0539
 7272W        W25476  14.653   8.714   1.313 -0.2351  0.1204  0.0370
 7273W        W25477  17.485  17.467  17.238  0.3634 -0.1245  0.1493
 7274W        W25478  17.477  17.420  16.710 -0.1459  0.1973  0.0749
 7275W        W25479  12.431  15.227  12.179 -0.1654  0.2479  0.0693
 7276W        W25480   2.198   8.506   0.812 -0.0100 -0.3156  0.1605
 7277W        W25481  13.013  16.939  16.047 -0.1068 -0.2046 -0.1250
 7278W        W25482  15.413   3.717   3.653 -0.1625 -0.0679  0.3722
 7279W        W25483  14.354  12.566  16.544 -0.1890 -0.0252  0.0011
 7280W        W25484  12.367  15.433   3.151 -0.0801 -0.0876  0.0189
 7281W        W25485   5.323  11.558   4.625 -0.2957 -0.1358 -0.1493
 7282W        W25486   4.462  10.544   5.063 -0.1226  0.1334 -0.1171
 7283W        W25487   7.542  16.993  15.408 -0.1244 -0.0325  0.2037
 7284W        W25488  14.989  14.946   6.613 -0.1234 -0.1268  0.2115
 7285W        W25489   2.416   3.762   5.039  0.2635 -0.0392  0.1606
 7286W        W25490  13.772   3.232  13.099  0.1914 -0.0260  0.1880
 7287W        W25491   2.018   6.004   4.739 -0.1482 -0.0001  0.1927
 7288W        W25492  12.350  15.612  12.512  0.0152 -0.0154  0.0764
 7289W        W25493   4.890  12.936  13.384 -0.0133 -0.0115 -0.0040
 7290W        W25494   2.414  10.192  17.206  0.1880 -0.0607 -0.1103
 7291W        W25495   9.957   6.986   0.594  0.3351  0.2086 -0.0513
 7292W        W25496   1.012  11.389   2.690 -0.1790  0.0984 -0.2226
 7293W        W25497   7.441   9.193  15.699 -0.4548  0.2860 -0.0760
 7294W        W25498  15.533   0.203   0.371  0.1572 -0.1885 -0.1120
 7295W        W25499   1.231  16.970   0.123  0.0189  0.0729  0.1081
 7296W        W25500  11.578  11.471  13.637 -0.1607 -0.0974  0.0754
 7297W        W25501   3.124   7.226  13.890  0.3840  0.1549 -0.0904
 7298W        W25502  15.692   5.298   3.457  0.1678  0.2427 -0.2543
 7299W        W25503   4.252   6.131  13.157 -0.1741  0.0288  0.2140
 7300W        W25504   3.858   8.432   0.240  0.2802 -0.1296 -0.0391
 7301W        W25505   4.801   4.001   5.036 -0.0833  0.2156 -0.0275
 7302W        W25506  10.092   4.730  13.788  0.4004 -0.2047  0.1444
 7303W        W25507  17.013   0.079   1.328 -0.0568  0.0895 -0.0495
 7304W        W25508   2.461   9.735  17.008 -0.2256  0.2361 -0.3360
 7305W        W25509   9.112  16.794  12.844 -0.4683  0.0082  0.0868
 7306W        W25510  15.576   6.728  14.376  0.0899  0.0380  0.2147
 7307W        W25511  11.146  10.576   4.754 -0.0071 -0.0967 -0.0627
 7308W        W25512   8.008  17.102   3.859 -0.0194 -0.0411 -0.1452
 7309W        W25513   8.971   3.784  13.861  0.2324 -0.4045 -0.3812
 7310W        W25514   3.272   8.217  16.641 -0.0905 -0.1280 -0.0418
 7311W        W25515  11.009  15.978   4.111 -0.3212  0.0909 -0.0640
 7312W        W25516   2.916  14.451  16.039  0.1283 -0.0607 -0.0877
 7313W        W25517  14.632   4.245  14.543 -0.1536 -0.0271 -0.0487
 7314W        W25518  10.042  13.177  14.114  0.3173  0.1893  0.0540
 7315W        W25519   9.492   5.660   2.620  0.2165 -0.1808 -0.2337
 7316W        W25520  13.793  17.237  14.767  0.0916  0.0577  0.0619
 7317W        W25521  12.169  16.283   4.582  0.3158  0.4186  0.1669
 7318W        W25522   1.313  13.655   0.474  0.1087  0.0662 -0.1079
 7319W        W25523   1.632  11.691   2.253  0.0826 -0.0796  0.0553
 7320W        W25524   4.384   0.620   4.521 -0.2693  0.0800  0.3056
 7321W        W25525   7.429  14.819   2.616 -0.1640  0.0556 -0.1077
 7322W        W25526   3.569   4.863  16.621  0.0019 -0.1449  0.1656
 7323W        W25527  11.080  11.629  14.532 -0.1229  0.0168  0.1174
 7324W        W25528  10.428   9.521  12.364  0.2298 -0.0595 -0.1421
 7325W        W25529   4.907  15.855   0.329  0.1365  0.0640 -0.0317
 7326W        W25530  15.057  14.314   3.195  0.0911  0.0568  0.3717
 7327W        W25531   7.568   9.177   2.339 -0.0331  0.1884  0.1835
 7328W        W25532  13.435   6.937  12.838  0.0545  0.0002 -0.1695
 7329W        W25533   9.538   6.528  15.191  0.2211  0.0467 -0.1053
 7330W        W25534   7.172   7.285   1.928  0.1866  0.1626  0.0216
 7331W        W25535   4.801   2.309   1.422  0.3323  0.0659 -0.0145
 7332W        W25536  10.614  15.592   1.876  0.0833  0.2657 -0.2379
 7333W        W25537  13.320  11.231   4.183  0.2763 -0.0508  0.1058
 7334W        W25538   6.812   1.356   4.938  0.0052  0.0306 -0.2030
 7335W        W25539  15.193   9.115   0.101  0.1758 -0.0376  0.0771
 7336W        W25540   0.806  12.917   2.850  0.0273  0.0872 -0.0465
 7337W        W25541   6.065   2.411  15.292  0.2617 -0.0398 -0.3179
 7338W        W25542  17.250   4.889   4.582 -0.0464  0.0014 -0.5087
 7339W        W25543  17.331  10.253  15.050  0.0583  0.1049 -0.0892
 7340W        W25544  15.934   8.176  11.757  0.0595 -0.1003 -0.0559
 7341W        W25545  13.702  15.746  12.442  0.3030  0.1833 -0.1952
 7342W        W25546  16.864  17.270  14.228  0.1330  0.0822  0.1384
 7343W        W25547   5.480  17.181   0.869 -0.0256 -0.1519  0.2945
 7344W        W25548   3.026  15.629   1.388 -0.0318  0.1230 -0.0979
 7345W        W25549   4.670   3.458  12.748 -0.2503 -0.1214  0.0133
 7346W        W25550  13.301   5.768   0.582 -0.2003  0.1379 -0.1598
 7347W        W25551   4.777  10.470  13.492  0.2709  0.2944  0.1139
 7348W        W25552   9.077   1.592  15.908 -0.0420  0.3315 -0.2546
 7349W        W25553   6.403   6.172   4.188  0.1110 -0.2135  0.2937
 7350W        W25554  13.939  17.457  12.811 -0.1641 -0.0221 -0.2134
 7351W        W25555  14.918   8.022   5.977  0.0420 -0.0337 -0.1735
 7352W        W25556   3.342  12.842  15.095 -0.1145 -0.0718 -0.2610
 7353W        W25557  16.308   7.410   1.817 -0.1313 -0.1541  0.1706
 7354W        W25558  11.493  11.947   5.392  0.1056  0.1820  0.0307
 7355W        W25559   4.320   2.895  17.072  0.2209 -0.1839  0.0379
 7356W        W25560  14.682   1.835   1.647 -0.0832 -0.0373 -0.1625
 7357W        W25561   6.862  10.959  15.173 -0.2804  0.0804  0.2514
 7358W        W25562  12.703   6.605  16.582  0.0170  0.0365 -0.1565
 7359W        W25563   9.938  12.981  13.213 -0.0470  0.0334  0.2682
 7360W        W25564   5.142  13.350  16.568 -0.2113  0.1541  0.3589
 7361W        W25565  14.917   6.942   3.196  0.1563  0.0048  0.1350
 7362W        W25566  13.922  16.998  16.220  0.0078 -0.0024 -0.0464
 7363W        W25567  16.869   3.888  13.903 -0.1757 -0.0583 -0.2461
 7364W        W25568   8.377   9.508  15.389 -0.1309 -0.2362 -0.0793
 7365W        W25569   1.931  11.531  10.885 -0.2032  0.1902  0.1012
 7366W        W25570  15.340  13.694  13.009  0.0610  0.1337  0.1022
 7367W        W25571   9.713   9.759   4.918 -0.0235 -0.0193  0.1305
 7368W        W25572   2.081  14.811   0.232 -0.1047  0.2763  0.1977
 7369W        W25573   6.817   6.905  15.505  0.1834  0.0531  0.1189
 7370W        W25574  15.477  10.152  15.833  0.0137  0.1684  0.0379
 7371W        W25575  13.286  10.165   0.316 -0.2609 -0.0457 -0.1733
 7372W        W25576   9.598  13.541  13.247 -0.0791  0.0892  0.2384
 7373W        W25577   6.962  13.912  15.158 -0.2908  0.2734 -0.4704
 7374W        W25578   7.242  13.356  16.949  0.2770  0.3779  0.2389
 7375W        W25579  14.933  10.803  14.511 -0.2277  0.0163 -0.6862
 7376W        W25580   1.197   9.752  16.480  0.2033  0.0972  0.2996
 7377W        W25581   8.506  11.611  16.844 -0.1722 -0.0792 -0.1779
 7378W        W25582   7.669  12.848  13.059  0.1328 -0.1033  0.0860
 7379W        W25583  15.862   6.764   2.250 -0.1053 -0.0670 -0.0060
 7380W        W25584   7.818  11.017   1.621 -0.1844  0.2132 -0.0433
 7381W        W25585  10.251  14.363   2.645  0.1044  0.0920  0.1420
 7382W        W25586   9.043  13.682   2.632  0.0369 -0.0968 -0.0163
 7383W        W25587  10.705  15.173  11.994  0.1096 -0.2943  0.0840
 7384W        W25588  15.356   3.169   1.688 -0.2420 -0.2581  0.1936
 7385W        W25589   0.352   8.891  14.498 -0.0804  0.2375 -0.2626
 7386W        W25590   7.376   5.251  11.617 -0.1852  0.2461 -0.1160
 7387W        W25591  12.594  13.626   5.344 -0.2554 -0.0910  0.1914
 7388W        W25592  11.975  15.632   0.458 -0.0244 -0.1223 -0.1578
 7389W        W25593  11.078  13.260  15.837  0.2954 -0.2130 -0.3642
 7390W        W25594   0.929   9.549  14.023  0.3390  0.2577 -0.2307
 7391W        W25595  12.547   7.011  13.100 -0.2818 -0.3739  0.0397
 7392W        W25596  12.067  11.487  17.032  0.1066 -0.1651 -0.2215
 7393W        W25597   8.050   1.406  14.997  0.1637  0.0413  0.2723
 7394W        W25598   7.395   2.635   4.214 -0.0293  0.0192  0.0305
 7395W        W25599   2.159   6.705   0.155 -0.1220 -0.3207 -0.0927
 7396W        W25600   4.940  15.528   1.640 -0.2659  0.0435  0.2046
 7397W        W25601   5.797  15.740  16.883  0.1213  0.1225  0.0760
 7398W        W25602  14.559  17.295   1.713 -0.1458  0.0995 -0.1034
 7399W        W25603  14.196  11.035   3.013  0.1287  0.0046 -0.0837
 7400W        W25604  16.415  10.626   1.869 -0.0093  0.3463 -0.2106
 7401W        W25605  15.930  15.059  13.730  0.1665 -0.2264  0.0121
 7402W        W25606  10.593   2.751  15.514 -0.0778 -0.1060  0.2136
 7403W        W25607   9.242  11.255   4.593 -0.0450 -0.1125 -0.0824
 7404W        W25608  15.894   7.345   0.534  0.0060 -0.1405 -0.4416
 7405W        W25609   2.814   0.509  16.567  0.5698 -0.2476 -0.1296
 7406W        W25610  10.353   3.200   2.016  0.0066  0.1380  0.1573
 7407W        W25611  10.346   8.023  14.082  0.0291 -0.1309 -0.1523
 7408W        W25612  13.091  13.613   4.507  0.1545  0.0674 -0.0323
 7409W        W25613  14.606   0.558  16.490 -0.0454  0.1340  0.2648
 7410W        W25614   6.570  11.355   2.879  0.1250  0.1334  0.2563
 7411W        W25615  12.648  13.927  13.636 -0.1027 -0.4739  0.2009
 7412W        W25616   6.816   6.430  12.240  0.0663  0.0057  0.1548
 7413W        W25617  12.382   6.785   0.321 -0.0969  0.2536  0.0682
 7414W        W25618   7.843   7.595  14.569  0.0685  0.1936  0.0855
 7415W        W25619  13.139  14.615   5.131  0.1999 -0.1099 -0.1081
 7416W        W25620   0.302   4.398  16.263  0.0850 -0.0227 -0.0792
 7417W        W25621  14.704   1.851   4.973 -0.3616  0.2154 -0.2543
 7418W        W25622  14.651   2.331   0.542 -0.1692  0.0531  0.2191
 7419W        W25623   7.567  14.744  12.708  0.0625 -0.0166 -0.1001
 7420W        W25624   8.550   1.707  13.736 -0.4619  0.2303 -0.1635
 7421W        W25625  11.900   0.459   0.143 -0.3366 -0.2377 -0.2329
 7422W        W25626   6.527   6.714   1.430  0.0721  0.1144  0.2262
 7423W        W25627  14.233   5.979  12.897  0.4217 -0.3153 -0.0102
 7424W        W25628  12.401   3.184   4.542 -0.0176  0.2283 -0.0645
 7425W        W25629   0.773  13.533  15.186 -0.0644  0.1128 -0.1141
 7426W        W25630  15.215   7.974   2.238 -0.0266  0.0351  0.2152
 7427W        W25631  17.007  13.778   3.246  0.4421 -0.1571 -0.0266
 7428W        W25632  16.745  14.699  16.607 -0.1032 -0.1812  0.1092
 7429W        W25633   6.095  14.721  15.042  0.2743  0.0222  0.1177
 7430W        W25634  14.340  12.891   2.447  0.1151  0.0539 -0.2291
 7431W        W25635   3.578  12.872  16.628 -0.3363  0.1166  0.2999
 7432W        W25636   1.693   5.457  15.710 -0.2480  0.2232 -0.0146
 7433W        W25637  10.783  15.848   5.595 -0.1679 -0.0825 -0.5862
 7434W        W25638  11.220   5.504   2.086  0.2014  0.0328  0.1283
 7435W        W25639  12.496  14.015   5.044 -0.0971 -0.1332 -0.0024
 7436W        W25640  11.333  14.382   1.066  0.2716  0.1548  0.0110
 7437W        W25641  10.892  16.895   4.572 -0.2603 -0.2139 -0.0467
 7438W        W25642   5.306  16.717   3.312  0.0055 -0.1163  0.0056
 7439W        W25643   8.648   8.310   4.516  0.2286  0.1646 -0.0029
 7440W        W25644   3.279  10.894  15.909  0.0871  0.0595 -0.1176
 7441W        W25645   8.064  12.601   0.978  0.2030 -0.0064 -0.1517
 7442W        W25646   4.881   2.733   4.252  0.2387  0.1029  0.0657
 7443W        W25647   0.067   1.386  16.089 -0.1064  0.1443 -0.1566
 7444W        W25648   7.087  16.471   4.795 -0.3252 -0.0244 -0.3315
 7445W        W25649   7.083   6.553   2.411  0.1946 -0.0727  0.1328
 7446W        W25650  15.367   0.341   5.435 -0.1364 -0.0591  0.0614
 7447W        W25651  16.715   2.628   2.738 -0.2908  0.2103  0.1109
 7448W        W25652  16.801   3.792   4.964  0.1811  0.0772  0.1679
 7449W        W25653  12.647  15.578   2.531 -0.0710 -0.1110 -0.1538
 7450W        W25654  10.226  17.509   2.230 -0.2106  0.0804  0.3729
 7451W        W25655  10.762  17.299  12.028 -0.3614 -0.0942  0.2252
 7452W        W25656   7.672   1.497   3.389  0.0965 -0.0544  0.2252
 7453W        W25657  14.228   7.104   2.546  0.3143  0.0280 -0.0354
 7454W        W25658   0.339  15.999  17.057 -0.1347  0.1949 -0.0678
 7455W        W25659  14.341  14.201   0.867  0.0089  0.1689  0.4141
 7456W        W25660  14.139  13.704  11.515  0.0427  0.0959 -0.0557
 7457W        W25661   7.846  14.196  15.263  0.0510 -0.0238 -0.3886
 7458W        W25662  12.009  11.141   4.593  0.0215 -0.0239 -0.2450
 7459W        W25663  17.109   9.325  13.919  0.1409  0.0570  0.2764
 7460W        W25664   1.831   4.657  16.374  0.5985 -0.0063 -0.0753
 7461W        W25665  10.036  12.075   2.991 -0.0213 -0.0049 -0.4075
 7462W        W25666   6.188   1.506   3.559 -0.1347 -0.1961  0.2428
 7463W        W25667  13.452  16.214   2.786 -0.3905  0.0502  0.1496
 7464W        W25668   0.458   2.549   0.170 -0.2681  0.0288 -0.0585
 7465W        W25669  14.882   2.359   3.297 -0.0426 -0.1342  0.2737
 7466W        W25670   9.255  12.472  15.620 -0.1838  0.0158 -0.1776
 7467W        W25671   1.437  11.379  13.652 -0.0956 -0.1519 -0.1225
 7468W        W25672   4.033  14.339   5.648 -0.3274 -0.2354  0.0787
 7469W        W25673  16.399  16.909  17.001  0.0578  0.1182 -0.1452
 7470W        W25674   1.607   4.175  15.652  0.0643  0.0805  0.1888
 7471W        W25675   7.446   8.507   3.556 -0.1014  0.0432 -0.0641
 7472W        W25676   2.130  13.777  14.350  0.1691 -0.1879 -0.2317
 7473W        W25677   3.788   2.393  15.843  0.1790 -0.1739  0.1736
 7474W        W25678   8.972   5.785   1.085  0.6042  0.2863 -0.2967
 7475W        W25679   2.428   9.631  15.572 -0.0210  0.3025  0.3071
 7476W        W25680   9.508  14.587  12.196  0.0540  0.2673 -0.0147
 7477W        W25681   7.730  15.610  13.096 -0.0328 -0.1314  0.2012
 7478W        W25682   6.138  13.970  13.258 -0.0240 -0.3840 -0.0103
 7479W        W25683  16.441  11.858   1.339  0.0704  0.0685 -0.1786
 7480W        W25684   0.702  11.054  12.664  0.3715 -0.1606  0.2634
 7481W        W25685   9.525  13.000   3.100  0.0742 -0.0724  0.1590
 7482W        W25686   1.767   3.332  16.822 -0.0759  0.2170  0.0238
 7483W        W25687  12.333  17.078  11.353 -0.1039  0.1862 -0.0240
 7484W        W25688   6.040  16.161  17.141 -0.1315 -0.0267 -0.1928
 7485W        W25689   6.131  10.584  13.379  0.4606 -0.1650 -0.3217
 7486W        W25690   8.304   1.325  13.531 -0.2903  0.1485  0.0397
 7487W        W25691   4.756   2.145   0.935 -0.1831  0.1787 -0.2552
 7488W        W25692  12.875  16.717   0.535  0.0090  0.0528  0.1187
 7489W        W25693   1.548   1.521   1.646  0.0956 -0.2329 -0.1630
 7490W        W25694  12.421  10.408   5.054 -0.0177 -0.3283  0.0775
 7491W        W25695  14.192   7.482   3.022  0.0829  0.1663  0.0498
 7492W        W25696  10.302  16.023  14.168  0.0537 -0.3416 -0.0835
 7493W        W25697  12.405  15.461  15.472 -0.1341  0.0157 -0.1592
 7494W        W25698   1.405  11.260   3.017 -0.0197 -0.1135  0.0023
 7495W        W25699  11.649  16.108  14.572  0.2732 -0.0289  0.2552
 7496W        W25700   3.559  14.461   2.745 -0.2436 -0.0820 -0.0362
 7497W        W25701  12.785  16.221  15.788 -0.0061 -0.2003  0.2322
 7498W        W25702   5.857   1.142   2.314 -0.1565 -0.0039 -0.0041
 7499W        W25703  13.280   1.608   4.447 -0.0209 -0.1074 -0.1795
 7500W        W25704  17.050   3.291  15.908 -0.1969  0.1056  0.1527
 7501W        W25705   4.627   9.011   0.833  0.0478 -0.0480 -0.2513
 7502W        W25706   7.002   6.134  14.134  0.1659 -0.0048  0.1738
 7503W        W25707   8.170   4.266  13.432 -0.1064  0.0613 -0.1308
 7504W        W25708  11.957   0.980   3.980 -0.1098 -0.2044  0.1849
 7505W        W25709  16.259   9.063   1.977 -0.0365  0.1602 -0.0915
 7506W        W25710   9.648  10.815   2.884 -0.1858 -0.1652 -0.0397
 7507W        W25711   8.885   7.560   0.499 -0.3663  0.1470  0.1031
 7508W        W25712   7.773   6.294  14.759  0.2324 -0.1728  0.0424
 7509W        W25713  15.150   3.607  13.204 -0.0599 -0.0801  0.1179
 7510W        W25714   8.785  17.536   0.050  0.1549 -0.1566  0.0452
 7511W        W25715   4.162   4.561   1.958 -0.0513 -0.2012  0.1110
 7512W        W25716  12.434   1.922   4.739 -0.0596 -0.0776 -0.2051
 7513W        W25717  10.328   4.575  16.000  0.0781  0.1882 -0.0359
 7514W        W25718   6.226   2.657   1.007 -0.0323  0.0652 -0.1217
 7515W        W25719  17.299   4.490   4.981  0.0774  0.0127 -0.0534
 7516W        W25720   9.803   8.561  16.778  0.0004  0.3881  0.1837
 7517W        W25721  12.195   5.916  16.871 -0.0284  0.0873  0.1843
 7518W        W25722   0.026  16.860   0.766 -0.0282  0.1650 -0.1822
 7519W        W25723  11.443   6.587   2.839 -0.0727  0.1875  0.0941
 7520W        W25724  12.778  14.931  16.160 -0.0637 -0.0671  0.3361
 7521W        W25725   4.809   9.602  12.377  0.0273 -0.0916  0.0250
 7522W        W25726   6.994  16.921  12.409 -0.0091  0.2510 -0.2146
 7523W        W25727  14.713   5.594  12.225  0.1097  0.0430 -0.2298
 7524W        W25728   6.781   1.511  13.740 -0.1368  0.0383  0.1260
 7525W        W25729   6.468  11.832  16.128 -0.3975  0.1347  0.2490
 7526W        W25730   8.296   6.922   2.369 -0.0847 -0.1147 -0.0067
 7527W        W25731   9.346   4.583  16.132 -0.1238  0.2187  0.0617
 7528W        W25732  12.601   2.768   4.643 -0.0204 -0.0924 -0.1062
 7529W        W25733  12.821   3.492   2.662  0.3042 -0.0136 -0.1278
 7530W        W25734   6.133  16.758   2.020  0.0558 -0.0585  0.2368
 7531W        W25735  15.472  17.471   4.292 -0.0972 -0.3347  0.1057
 7532W        W25736   9.603  14.325   3.916 -0.1118 -0.0186 -0.1292
 7533W        W25737  16.425  12.235  15.455  0.2020  0.0037 -0.0421
 7534W        W25738  11.862   0.949  12.695  0.3959  0.1094 -0.1035
 7535W        W25739   8.235  11.060  13.963 -0.1068  0.2614 -0.1169
 7536W        W25740  16.785  14.274  16.031  0.0057  0.2091  0.2623
 7537W        W25741  14.431   9.280  15.055 -0.2252 -0.1955  0.2198
 7538W        W25742  11.315   7.204   1.532 -0.3790 -0.2243 -0.3349
 7539W        W25743   8.843   3.366  15.826  0.0085  0.2126 -0.2057
 7540W        W25744  17.306  11.003  11.931  0.0314 -0.1758 -0.7113
 7541W        W25745   4.173   3.079   1.684  0.2275  0.1724 -0.1347
 7542W        W25746   3.262   3.198  13.226 -0.1217 -0.3029 -0.2062
 7543W        W25747   0.677  11.809  16.517 -0.0943 -0.0317 -0.0195
 7544W        W25748   3.564   5.637   4.329 -0.2161  0.0603  0.3449
 7545W        W25749   8.734   5.267  12.957  0.1287 -0.0812  0.0394
 7546W        W25750  10.090   4.048  15.955 -0.0339  0.4025  0.1275
 7547W        W25751  10.844  15.800  14.205 -0.2608  0.1749 -0.1261
 7548W        W25752  15.266   3.807  12.215 -0.1353  0.3076  0.1091
 7549W        W25753   2.296  10.605  12.953  0.0597  0.0407  0.3150
 7550W        W25754  15.647  11.926  16.583  0.0336 -0.2189  0.2052
 7551W        W25755  17.167  14.168   4.570  0.3474 -0.2949 -0.0349
 7552W        W25756   5.118   7.920   1.251  0.1732 -0.1479  0.2560
 7553W        W25757  17.197   2.348  13.509 -0.2929  0.1418  0.0317
 7554W        W25758  17.366   6.517  15.275  0.0020 -0.0379 -0.0224
 7555W        W25759  15.158   6.020  14.724 -0.0527  0.0726 -0.0091
 7556W        W25760   2.121  14.240  14.155 -0.0734  0.0306  0.0977
 7557W        W25761   2.898   9.842   2.308 -0.2264 -0.1726  0.1092
 7558W        W25762   3.144   7.118  14.914 -0.0222 -0.3271 -0.0446
 7559W        W25763   1.004   0.328  13.073 -0.0653 -0.1171 -0.3449
 7560W        W25764   1.671   0.277  15.904 -0.1957  0.0928  0.1340
 7561W        W25765   2.780   7.081   0.888 -0.3434  0.1755 -0.0328
 7562W        W25766  14.928   0.105  15.482 -0.2651 -0.0520  0.0447
 7563W        W25767   0.924   0.995  13.920 -0.0084  0.0030 -0.0159
 7564W        W25768  16.642   2.364  13.737 -0.1511  0.1146 -0.3126
 7565W        W25769  17.086  15.049  16.287  0.0802  0.1444  0.0772
 7566W        W25770   2.594   4.475  14.824 -0.3565 -0.0344  0.2314
 7567W        W25771  15.017  12.466   5.124 -0.0210  0.1178 -0.3336
 7568W        W25772  12.463   3.235  15.960  0.2284  0.1966 -0.1353
 7569W        W25773   2.423   7.337  13.215 -0.0411 -0.0917 -0.0777
 7570W        W25774  16.508   7.147  12.848 -0.2290  0.0142 -0.1738
 7571W        W25775   8.617   4.204   1.233 -0.2638 -0.1869  0.1092
 7572W        W25776   5.682   0.132  13.345 -0.1658  0.1607  0.1873
 7573W        W25777  15.826   9.067   6.277 -0.0885  0.0750 -0.1604
 7574W        W25778   2.797   3.010  13.387 -0.1608 -0.0965 -0.0313
 7575W        W25779   3.347   3.693   1.823  0.2013 -0.2318 -0.1181
 7576W        W25780   6.626  14.681   5.078  0.2512 -0.1916  0.0096
 7577W        W25781   3.335  13.771  17.008 -0.0094  0.1865 -0.3948
 7578W        W25782  15.559   3.439   4.051 -0.0741 -0.0624  0.1528
 7579W        W25783  11.756   0.155   4.738 -0.1024 -0.3793 -0.3106
 7580W        W25784   6.911   7.285  17.107 -0.1623 -0.1885 -0.0920
 7581W        W25785   2.882   3.837  15.297 -0.1610  0.2082  0.2500
 7582W        W25786   4.228   4.886  17.170 -0.0683 -0.1353 -0.1585
 7583W        W25787   8.672   8.340  11.848 -0.0683  0.0944  0.1773
 7584W        W25788  10.216   1.380  12.421 -0.1612  0.1848 -0.0939
 7585W        W25789  13.070   4.451  13.251 -0.0821  0.2160  0.2380
 7586W        W25790  13.927   6.313   1.108 -0.1630 -0.0699 -0.0425
 7587W        W25791  15.568  11.458  14.905  0.1677 -0.0859 -0.1633
 7588W        W25792   4.405   4.580   5.176 -0.0330 -0.1319  0.0523
 7589W        W25793  11.873   3.989  15.746  0.2436  0.0688 -0.0760
 7590W        W25794   8.271  13.852  15.221 -0.1235  0.0447 -0.1505
 7591W        W25795  12.046  12.152  16.076  0.2181 -0.2334  0.4075
 7592W        W25796   6.739   3.669   5.120 -0.0485 -0.0054  0.2856
 7593W        W25797  14.681  14.143  11.670  0.1704  0.0520 -0.4134
 7594W        W25798  11.777  10.011   1.629  0.0164  0.1633  0.0622
 7595W        W25799  15.416  10.613  16.132  0.1610  0.0673  0.1370
 7596W        W25800  10.044   3.833   5.355 -0.0206  0.0388 -0.3090
 7597W        W25801  15.629   1.648   0.557 -0.1767  0.0650  0.0216
 7598W        W25802  11.992  16.137  13.742  0.2194 -0.1192  0.0823
 7599W        W25803  11.944  12.267   1.034  0.0853  0.0429 -0.0869
 7600W        W25804  12.786   2.914  15.320  0.3424 -0.0908 -0.0295
 7601W        W25805  11.372  16.218  12.874  0.1321  0.0282 -0.0048
 7602W        W25806  10.678   5.614  17.255  0.2693 -0.0481  0.1750
 7603W        W25807   1.896   0.597  14.222 -0.0498  0.0166 -0.0053
 7604W        W25808  14.891  13.810  13.841  0.0073 -0.0574 -0.1695
 7605W        W25809  16.336  14.203  15.557  0.0730 -0.0083  0.1774
 7606W        W25810   1.469   3.196  12.315  0.0818 -0.0323  0.1810
 7607W        W25811   0.966   5.394  13.618  0.0673 -0.0979  0.2876
 7608W        W25812   9.489  14.859   3.261 -0.1351 -0.0922 -0.0053
 7609W        W25813   9.046   6.749   0.182 -0.1549 -0.3240  0.0681
 7610W        W25814  12.893  10.305  13.442 -0.0715  0.3195 -0.2360
 7611W        W25815  12.902   1.050  14.732  0.3063 -0.2660  0.1432
 7612W        W25816   0.903  16.397   3.361  0.3621 -0.0155  0.0924
 7613W        W25817  13.640  15.993  16.127  0.0570  0.2008 -0.0143
 7614W        W25818  12.896   4.518  14.868 -0.3565  0.2854 -0.3071
 7615W        W25819   3.060   2.092  16.421  0.2387  0.0289  0.3542
 7616W        W25820   8.523  16.232   1.264  0.1262  0.2798 -0.2110
 7617W        W25821   1.974  10.382   0.885 -0.0134 -0.2036  0.2320
 7618W        W25822   3.016  15.098  13.787 -0.1527  0.0083  0.0378
 7619W        W25823   0.320  16.070  15.706 -0.2969  0.0677  0.1034
 7620W        W25824   3.472  13.633  16.127  0.2433 -0.0706 -0.0876
 7621W        W25825   2.904   6.332  14.459  0.3272  0.0036 -0.0232
 7622W        W25826  13.130   7.449   2.807 -0.0457  0.4199 -0.0611
 7623W        W25827   2.573   1.860  14.302  0.2321 -0.0439 -0.0215
 7624W        W25828  11.560  14.353  17.082 -0.1210 -0.0649  0.2426
 7625W        W25829  10.649   7.116   3.473  0.0328  0.1802 -0.0679
 7626W        W25830   8.051   4.444  15.402  0.2659  0.0619 -0.2189
 7627W        W25831   5.181   0.633   0.777  0.2048 -0.1294  0.1407
 7628W        W25832  14.268   6.831   4.704  0.2720  0.0920 -0.0463
 7629W        W25833  10.642   4.676   5.249  0.2832  0.3232  0.3555
 7630W        W25834  16.999  10.215  16.006 -0.0869 -0.3193 -0.1657
 7631W        W25835  11.010  10.666  11.765 -0.1695  0.3641  0.0310
 7632W        W25836   7.442  14.446   1.282 -0.1078 -0.1209  0.2009
 7633W        W25837   3.017  11.194   1.645  0.0396  0.2459  0.0909
 7634W        W25838   8.208   9.843  16.604  0.1455 -0.0810  0.3294
 7635W        W25839   1.606  16.122  13.815 -0.0771  0.2143  0.1498
 7636W        W25840   2.317   5.126   3.878  0.0079 -0.1115  0.1484
 7637W        W25841  11.238   7.292   2.316  0.3003  0.2106  0.1143
 7638W        W25842  15.086   5.361  13.464 -0.0450  0.1415  0.2099
 7639W        W25843  16.389   4.259   2.669  0.0553 -0.1139 -0.2135
 7640W        W25844   8.006  16.799  15.307  0.1407  0.2674 -0.1471
 7641W        W25845  15.447   0.529   1.750 -0.2998 -0.2188 -0.0894
 7642W        W25846   1.890   9.267   1.409 -0.1128  0.2701 -0.0117
 7643W        W25847  15.552  15.570   5.881 -0.1978  0.1695 -0.0782
 7644W        W25848  15.818  12.036  11.937 -0.0693 -0.1265  0.0987
 7645W        W25849  15.633  11.458   2.683 -0.0172  0.2355 -0.2365
 7646W        W25850  12.553   4.341  13.313 -0.3664 -0.0280  0.1953
 7647W        W25851   1.284   4.994   0.017 -0.0624 -0.1751  0.0023
 7648W        W25852   1.591  14.885   0.598  0.1553  0.0868 -0.0759
 7649W        W25853  14.253  12.347  14.528 -0.0599  0.1737 -0.0352
 7650W        W25854   5.605  13.794  15.931  0.0905 -0.0828 -0.2323
 7651W        W25855   4.511   5.964   0.348  0.0586  0.2090 -0.0298
 7652W        W25856  15.367   0.733   0.368  0.1111  0.1550  0.2034
 7653W        W25857   4.923   1.613   3.907 -0.1232  0.3245  0.0482
 7654W        W25858   1.599  11.583   4.901  0.1357  0.0527 -0.0113
 7655W        W25859   8.382   3.874  13.174  0.0282 -0.0932 -0.1358
 7656W        W25860   9.559   2.906   4.155 -0.0603  0.0103 -0.0476
 7657W        W25861   8.856   4.301  15.351  0.2491 -0.1872  0.2641
 7658W        W25862  11.338  12.783   3.830  0.0632 -0.0800 -0.2331
 7659W        W25863  15.788  15.452  17.126 -0.0033 -0.0603 -0.2348
 7660W        W25864   4.486  14.322  16.843  0.0216  0.0569  0.1701
 7661W        W25865  15.302  16.048   3.470 -0.2597 -0.2396 -0.0507
 7662W        W25866  15.814  12.991   5.334 -0.1224  0.1177 -0.1197
 7663W        W25867  15.408   9.791   3.131  0.2099 -0.0812 -0.0399
 7664W        W25868   9.604   4.465  16.900  0.2888 -0.2624  0.0851
 7665W        W25869  13.620   0.126  15.699  0.0829  0.3832  0.1993
 7666W        W25870   6.658   7.162   3.114  0.2363 -0.1504  0.0360
 7667W        W25871  11.818   2.783  12.953  0.0188 -0.2186  0.2187
 7668W        W25872   6.435   4.887  13.236  0.1246 -0.1688 -0.0185
 7669W        W25873   4.849   9.393   2.842  0.3306  0.0355 -0.1109
 7670W        W25874   0.703   7.354  13.184  0.0666  0.3951 -0.1889
 7671W        W25875   5.582  17.385   3.835  0.1803 -0.0287  0.0808
 7672W        W25876   3.452  12.146   0.574 -0.1315  0.1702  0.1883
 7673W        W25877  14.894  11.365  12.549  0.1826  0.2047  0.2093
 7674W        W25878   4.536   7.955  13.640  0.0697 -0.0653 -0.0073
 7675W        W25879   6.983   6.722   3.211 -0.0540  0.1622  0.0512
 7676W        W25880   0.289  10.165   0.895 -0.2348 -0.4648  0.2296
 7677W        W25881  12.686  10.455   3.635  0.0864  0.0550  0.3454
 7678W        W25882  12.785   7.750   0.077 -0.0004  0.1825  0.0294
 7679W        W25883   8.757  17.494  15.464 -0.2033 -0.0128  0.1115
 7680W        W25884   8.606   3.485  13.971  0.0928 -0.3676 -0.0906
 7681W        W25885  12.187  14.789   0.871 -0.1172  0.0364  0.2459
 7682W        W25886  13.442  15.148   5.869 -0.0822 -0.0483  0.1807
 7683W        W25887   7.265   5.433   3.381 -0.1354  0.1687  0.0742
 7684W        W25888   0.464  11.636  11.655  0.3748  0.0688 -0.2591
 7685W        W25889   3.844   0.791   1.043  0.1945  0.6373 -0.2422
 7686W        W25890  11.742  12.134   4.221 -0.1339  0.1352  0.2248
 7687W        W25891  14.374   4.295  13.919  0.0096  0.3797  0.0986
 7688W        W25892   5.209   9.314  12.542  0.2681 -0.1192 -0.1540
 7689W        W25893  11.705   4.864   4.021  0.1326  0.1023  0.0243
 7690W        W25894   6.244   2.685   5.175  0.2457 -0.0621  0.0647
 7691W        W25895   0.456   8.560  15.002 -0.0188  0.2760  0.1199
 7692W        W25896   7.172  12.341  14.366  0.1179  0.1568  0.1399
 7693W        W25897  12.482   0.417   3.295 -0.3206  0.1062 -0.2040
 7694W        W25898  11.875  13.243   2.515 -0.0058  0.1185 -0.3838
 7695W        W25899   9.731   3.465   0.492  0.0815 -0.0163 -0.1184
 7696W        W25900   2.767  12.958   1.789 -0.2183 -0.1021  0.2465
 7697W        W25901  16.493   8.968  16.628  0.1290 -0.1826 -0.1596
 7698W        W25902  11.722  15.051   3.577  0.2640 -0.2173  0.0984
 7699W        W25903   3.152  15.216   3.468  0.1909 -0.1581  0.0475
 7700W        W25904  11.288   4.814  12.456 -0.1705 -0.1215  0.0607
 7701W        W25905   7.694   2.731   3.691 -0.3132 -0.1323 -0.1224
 7702W        W25906   5.192   7.656   4.712 -0.1892 -0.2138  0.0140
 7703W        W25907  11.790  16.523   3.503  0.1358 -0.1050  0.2926
 7704W        W25908   8.973   5.123   1.913  0.0270 -0.1024  0.2769
 7705W        W25909   7.291  16.316  13.557 -0.3471  0.1441 -0.2470
 7706W        W25910  16.235  10.228   0.995 -0.0230  0.0992  0.1603
 7707W        W25911   1.663  11.917   5.295 -0.3990 -0.0407 -0.0946
 7708W        W25912   5.445   4.201   2.485 -0.0352 -0.0986  0.0188
 7709W        W25913   7.676  11.773   3.175 -0.1780  0.3742 -0.0889
 7710W        W25914  13.316   4.925   4.785 -0.2908  0.0046  0.3887
 7711W        W25915   7.245   8.975  16.162 -0.0027 -0.0223 -0.2294
 7712W        W25916   9.410  15.148  11.204 -0.1117  0.3719 -0.0280
 7713W        W25917   0.852  12.555  14.240 -0.1266 -0.0322  0.1791
 7714W        W25918  15.097   4.565  14.368  0.0097  0.1424  0.1624
 7715W        W25919   3.784  13.249   2.308 -0.2001 -0.2617  0.1749
 7716W        W25920   2.653   6.721  12.689  0.1805  0.2933  0.3712
 7717W        W25921   9.335  12.433   2.477 -0.0351 -0.3067  0.2053
 7718W        W25922   9.259   4.304   3.122  0.3151  0.0313 -0.1242
 7719W        W25923   0.627  17.184   3.040  0.0674  0.1748  0.2408
 7720W        W25924  10.462  14.360  13.052 -0.0003  0.1720  0.0734
 7721W        W25925  16.576   7.857   1.993 -0.0653 -0.0917 -0.0988
 7722W        W25926  11.897   8.509   5.039  0.0407 -0.0092 -0.3303
 7723W        W25927  12.283   1.867   0.488  0.0276 -0.0080 -0.5108
 7724W        W25928   0.046   6.165  16.246  0.3213 -0.0217 -0.2661
 7725W        W25929   4.012   7.955   1.955 -0.0702 -0.2637  0.0424
 7726W        W25930  16.589   7.504  13.196 -0.0061  0.0569  0.1520
 7727W        W25931  13.203   2.093  13.896 -0.2900 -0.1438  0.0308
 7728W        W25932  10.231  11.534   2.996 -0.1347 -0.3191  0.1525
 7729W        W25933  13.462  16.268   2.300 -0.2301  0.1216  0.2989
 7730W        W25934  10.147   9.345  13.203 -0.2577  0.2305  0.0550
 7731W        W25935  11.340   6.240   5.584 -0.0474 -0.2964 -0.1183
 7732W        W25936  12.999  11.233   4.601  0.0379 -0.0793  0.1720
 7733W        W25937   1.760  12.596  14.576  0.0958  0.1365  0.1577
 7734W        W25938   2.704   0.737   2.406 -0.1751  0.1008 -0.0801
 7735W        W25939  16.000  13.215  14.824  0.1195  0.1950  0.0392
 7736W        W25940   6.800  11.290  16.167  0.0205  0.4841  0.0456
 7737W        W25941  15.509   2.520  17.208 -0.0677 -0.1878  0.1491
 7738W        W25942   9.558  13.545   4.643  0.0882 -0.0618 -0.0332
 7739W        W25943   6.671  14.937  16.982 -0.1334 -0.0201 -0.2642
 7740W        W25944   9.573   9.923   1.792 -0.1155  0.0802 -0.1566
 7741W        W25945  12.162  16.601  13.996 -0.1965  0.0006  0.2609
 7742W        W25946  16.462  14.785   0.635 -0.0188  0.1439  0.0926
 7743W        W25947   9.648   4.370  15.494  0.2502 -0.0185 -0.0676
 7744W        W25948   6.886   5.869   2.636 -0.0196 -0.4144  0.0822
 7745W        W25949   4.668   8.854  14.848 -0.2234  0.0478 -0.1993
 7746W        W25950   7.483   5.558   2.505 -0.1597 -0.3943 -0.1748
 7747W        W25951   1.994   8.193   2.128  0.1634  0.2069 -0.0712
 7748W        W25952  15.445   7.507   3.932  0.0774 -0.1615  0.1150
 7749W        W25953  10.565   6.008  15.521 -0.1170 -0.0412  0.0909
 7750W        W25954  12.588  11.347  12.750 -0.2062  0.2979  0.0916
 7751W        W25955   8.344  12.055   1.192 -0.0546 -0.0463  0.1993
 7752W        W25956   1.122   5.893  13.606 -0.1500  0.0604 -0.1731
 7753W        W25957   6.602   1.962   4.056 -0.0222 -0.1074  0.1474
 7754W        W25958   7.719  11.027   2.759 -0.3117 -0.0333 -0.5311
 7755W        W25959   4.223   9.877   0.661  0.0470 -0.0684  0.1757
 7756W        W25960  13.847   2.349   4.692 -0.0285 -0.1734 -0.1282
 7757W        W25961   9.204  17.424  16.336 -0.1269  0.1125 -0.1547
 7758W        W25962   7.354  15.791  11.274 -0.0983 -0.2972  0.0585
 7759W        W25963   3.237   8.864  13.151 -0.4268  0.1996  0.1046
 7760W        W25964   9.348   8.696  16.754  0.0806 -0.1617  0.0104
 7761W        W25965   6.901  10.170  13.382  0.1645 -0.1431  0.0210
 7762W        W25966   5.188  14.866  13.991  0.1313  0.2630  0.5495
 7763W        W25967  13.587   0.964   2.329  0.4036  0.1227  0.1047
 7764W        W25968   7.434   2.468   1.867  0.1155  0.1094  0.0164
 7765W        W25969   7.260  15.815   3.843  0.1299  0.0755 -0.3131
 7766W        W25970   1.097   8.665  16.868 -0.0501 -0.0579 -0.1255
 7767W        W25971  14.852   4.667   5.016  0.1851 -0.2250  0.0364
 7768W        W25972  14.930  12.914   3.845 -0.0131  0.0917  0.3059
 7769W        W25973  10.683   9.207  13.291  0.3326  0.1045 -0.2365
 7770W        W25974   0.604   3.663  16.580  0.0722  0.2086  0.0766
 7771W        W25975   9.673   3.797   3.946  0.0711 -0.0343  0.1088
 7772W        W25976  13.876   6.897  14.126 -0.3004 -0.1911 -0.2980
 7773W        W25977  10.408   5.371  16.088 -0.2124  0.3319 -0.0754
 7774W        W25978   3.923  10.584   1.958  0.0645 -0.0582 -0.3983
 7775W        W25979   1.269  15.834  12.659 -0.1346 -0.0429 -0.1679
 7776W        W25980   3.362   7.261   1.585 -0.1936  0.2392  0.0740
 7777W        W25981   8.743  16.362  12.492 -0.1138  0.3108 -0.0072
 7778W        W25982  17.083   8.321  15.289  0.0438  0.2879  0.1477
 7779W        W25983   2.512   3.270  17.234  0.1666 -0.1054  0.0880
 7780W        W25984   5.729  17.084  14.547  0.1307 -0.1410 -0.0502
 7781W        W25985   5.898   1.828  13.481 -0.0241 -0.1627 -0.2030
 7782W        W25986   4.260  16.793  14.094  0.1371 -0.1879 -0.0523
 7783W        W25987  12.475  15.411  11.718  0.0073 -0.2530 -0.2096
 7784W        W25988   9.279   4.268   5.315 -0.0902  0.0248  0.1610
 7785W        W25989   5.431   4.725   2.444 -0.1609  0.0693  0.0365
 7786W        W25990   0.969   7.981  12.384 -0.1684  0.1765  0.4983
 7787W        W25991   3.470  12.872   1.120  0.1331 -0.2353  0.2394
 7788W        W25992   4.059  10.707   2.456 -0.0578  0.0428  0.0097
 7789W        W25993   7.380   7.052   3.251  0.0668  0.0872 -0.0784
 7790W        W25994   9.812   7.158   1.391  0.0632 -0.0893  0.2540
 7791W        W25995   4.113   5.024  14.496  0.4098 -0.1534 -0.2013
 7792W        W25996  16.047  10.205   4.633  0.1260  0.3124  0.1796
 7793W        W25997  10.154  12.265   1.082  0.2980 -0.0804 -0.0383
 7794W        W25998   0.524  11.098   4.115 -0.1133 -0.0695 -0.2012
 7795W        W25999  10.237  12.401  12.122  0.2516  0.2873  0.0486
 7796W        W26000  12.851   2.568   0.311 -0.0335  0.0149 -0.1391
 7797W        W26001  11.327  13.182   1.979  0.7337  0.1274 -0.1013
 7798W        W26002   0.646   8.885   1.770 -0.3506  0.1306  0.0726
 7799W        W26003  14.590   7.972  15.217 -0.0598  0.0152 -0.1031
 7800W        W26004  13.870  15.189  15.864 -0.0852 -0.0275 -0.4245
 7801W        W26005  16.277   5.897  13.965  0.4423 -0.0878  0.0294
 7802W        W26006  17.375   9.377  16.640 -0.0461 -0.2491 -0.0018
 7803W        W26007   0.692   5.301   2.336 -0.2502  0.0651  0.0626
 7804W        W26008   0.919  12.185  15.664 -0.1160  0.0948  0.2593
 7805W        W26009  14.717  12.761  12.194 -0.0073  0.1838  0.0839
 7806W        W26010   3.523  11.858   4.071 -0.3957 -0.2366  0.0817
 7807W        W26011   8.308  13.144  13.417 -0.1873 -0.2607 -0.0175
 7808W        W26012   4.400   0.603  13.448 -0.0465 -0.1746 -0.3761
 7809W        W26013  10.103  13.060  16.665  0.1922 -0.2394 -0.1376
 7810W        W26014   7.118   2.231  14.792 -0.0475 -0.1899 -0.0157
 7811W        W26015  12.560   9.779  14.260 -0.0611  0.0802  0.0338
 7812W        W26016   1.641   2.868   5.560 -0.1298  0.0622 -0.0178
 7813W        W26017  15.676  15.524  16.637 -0.1066 -0.2249  0.0130
 7814W        W26018   1.482   3.250  14.028 -0.1021  0.0935 -0.0980
 7815W        W26019   2.193   3.134   0.262 -0.0666 -0.3213  0.0711
 7816W        W26020  12.510  10.925  16.593 -0.0459 -0.0534  0.4878
 7817W        W26021  13.796  13.467   2.471 -0.1224 -0.1421  0.1885
 7818W        W26022   4.150  15.966   5.139 -0.2899 -0.0478  0.5909
 7819W        W26023  13.624  12.778   0.636 -0.2149 -0.0941  0.1214
 7820W        W26024  17.352  14.452   2.941  0.1556  0.0237  0.3199
 7821W        W26025   5.535   6.435   2.474 -0.4020  0.1928 -0.0860
 7822W        W26026   7.794   6.176   4.504  0.0501 -0.2991 -0.0817
 7823W        W26027  14.866   6.403  13.881 -0.1599 -0.0781 -0.1348
 7824W        W26028   1.982   9.143  11.955 -0.1494 -0.1837  0.2132
 7825W        W26029  13.886  17.241   4.006 -0.0523 -0.1472 -0.2047
 7826W        W26030   2.276  12.677  15.410  0.1880 -0.0480  0.2702
 7827W        W26031   2.596   8.661   4.875 -0.0378 -0.3589  0.0292
 7828W        W26032   3.441  10.491   2.327 -0.0274 -0.0903  0.0623
 7829W        W26033  17.164  10.075  15.501  0.0538  0.0054  0.3178
 7830W        W26034  10.804   7.732  15.813 -0.0422 -0.1383 -0.0950
 7831W        W26035  10.329   3.001  13.636 -0.3122  0.0436  0.2078
 7832W        W26036   6.274  14.531   3.883  0.0595  0.0172 -0.0566
 7833W        W26037   7.391   0.587  15.059  0.2930 -0.0099  0.2296
 7834W        W26038   6.567   6.433  14.201 -0.0877 -0.0125  0.1160
 7835W        W26039   0.068  16.261  16.724  0.3386  0.0106  0.1999
 7836W        W26040   7.882   7.433  16.984 -0.1081 -0.1075  0.1446
 7837W        W26041   2.985   4.976   2.560 -0.2014 -0.2933 -0.0089
 7838W        W26042   9.575   2.413  16.287  0.1197 -0.1234 -0.0063
 7839W        W26043  16.952   4.363  15.595  0.0963  0.2783 -0.0363
 7840W        W26044  12.753  11.886   2.374 -0.0979  0.0816 -0.4334
 7841W        W26045  10.050   6.017   6.180 -0.2475 -0.0047  0.0020
 7842W        W26046  11.057  15.672   3.707  0.0118 -0.0603 -0.1590
 7843W        W26047  14.112   9.851  17.254  0.0511 -0.1725  0.1092
 7844W        W26048   1.458  14.460  13.050  0.2123 -0.0466  0.0615
 7845W        W26049   3.578   4.578  13.282  0.2053 -0.0474  0.1627
 7846W        W26050   5.205   0.654   3.891  0.1220  0.1564  0.1992
 7847W        W26051   6.210  11.660  14.994  0.1869  0.0926 -0.3027
 7848W        W26052   2.636  17.212   1.545  0.0147  0.1801  0.3537
 7849W        W26053  14.124   2.242  16.975  0.3561  0.2854  0.4518
 7850W        W26054  12.188  10.631  14.533  0.2807 -0.0430  0.1711
 7851W        W26055  11.406   9.628   3.209  0.0691  0.1888 -0.0199
 7852W        W26056   0.918  16.531  11.605  0.1172  0.3707 -0.3405
 7853W        W26057  16.316  12.799  15.306  0.0354 -0.1310  0.1204
 7854W        W26058  16.363   8.583  13.973  0.1220  0.2460  0.1568
 7855W        W26059  16.504   1.459   1.654 -0.2149  0.2155  0.0106
 7856W        W26060  10.784   5.229  16.750  0.0775 -0.3218  0.0402
 7857W        W26061  11.806  15.973   2.672  0.1353  0.0509 -0.1563
 7858W        W26062   0.261  13.310   0.533  0.0680  0.0563 -0.2249
 7859W        W26063   3.968  14.472   2.467  0.0434  0.1207 -0.2869
 7860W        W26064  14.613   1.309   4.325  0.1522 -0.1161 -0.3036
 7861W        W26065  16.117  10.931  13.422  0.0565  0.0491  0.0758
 7862W        W26066   4.858   4.608   1.361 -0.1154 -0.3907  0.1599
 7863W        W26067   7.459   2.109   4.492 -0.0223  0.2598  0.2363
 7864W        W26068  14.996   1.475   1.148  0.2417 -0.0076 -0.2235
 7865W        W26069  15.017   7.253  15.442  0.2664 -0.4034 -0.0007
 7866W        W26070   1.850   2.835  16.523  0.0371  0.0515 -0.1255
 7867W        W26071  14.862   2.935  13.764 -0.1465 -0.1758  0.1919
 7868W        W26072   8.155  16.294   5.025  0.1006  0.0603  0.1346
 7869W        W26073  14.822  11.888   0.655  0.0166 -0.1549  0.2605
 7870W        W26074   3.201   2.557  17.078  0.0397  0.0425 -0.3403
 7871W        W26075   0.729   0.366  16.332 -0.1441  0.0572  0.1144
 7872W        W26076   1.740  17.024  16.552  0.2308  0.0068 -0.0044
 7873W        W26077   5.198   1.892  12.852 -0.2442  0.1840 -0.0144
 7874W        W26078  16.669  17.112   3.056  0.2958  0.0188  0.1454
 7875W        W26079  11.931  12.944  13.450  0.2166  0.3021  0.0543
 7876W        W26080   5.523   8.917  14.115  0.1383  0.0620 -0.0163
 7877W        W26081   9.698   5.273  16.423 -0.3678 -0.3241 -0.0347
 7878W        W26082   3.662   3.461  12.505  0.4979 -0.2385 -0.3410
 7879W        W26083  15.205   3.457  16.762 -0.0367  0.3397 -0.2894
 7880W        W26084  13.608  11.562  16.424 -0.1649 -0.0814  0.0876
 7881W        W26085  10.266  15.417   0.613 -0.0106 -0.0473  0.0204
 7882W        W26086  16.595   6.249   0.748  0.0396 -0.1027 -0.0553
 7883W        W26087  15.559   1.018  16.641  0.0523  0.2964 -0.0113
 7884W        W26088   8.145  13.064  14.255  0.1209 -0.1352 -0.0757
 7885W        W26089   7.461   9.786   4.066 -0.3331  0.1912  0.0787
 7886W        W26090   4.903  15.771   3.758 -0.2338  0.3450  0.0129
 7887W        W26091  14.171   2.045   0.247  0.1705  0.0371  0.0416
 7888W        W26092   2.505   3.943   2.856  0.0211  0.1802  0.1547
 7889W        W26093  17.007  16.214   5.377 -0.1080 -0.0238 -0.2847
 7890W        W26094   7.418  12.648   3.085  0.0044  0.0172  0.1681
 7891W        W26095  13.917   7.772  15.245  0.3285  0.0609 -0.0192
 7892W        W26096   7.509  13.746   5.111  0.1703  0.4567  0.0821
 7893W        W26097  17.400  12.708   1.150  0.3513  0.1382  0.0213
 7894W        W26098  17.438  15.008  15.867 -0.3969 -0.1931 -0.0418
 7895W        W26099   6.630   7.947  17.266 -0.1083  0.1605 -0.1657
 7896W        W26100  14.002  16.120   1.014 -0.2467 -0.1590  0.0362
 7897W        W26101  14.808   9.189  17.088 -0.0774 -0.0667  0.1944
 7898W        W26102  10.113   9.966  16.202 -0.1247  0.1228 -0.0142
 7899W        W26103  15.676  14.938   1.194 -0.1153  0.1710 -0.2388
 7900W        W26104  14.667   9.545   4.803  0.5367 -0.1431 -0.2652
 7901W        W26105   4.924  15.322   4.483 -0.2409  0.0689  0.0895
 7902W        W26106  13.623  12.120   3.481 -0.2617  0.1089 -0.0731
 7903W        W26107  15.412  16.087   1.489  0.2809 -0.3942  0.1639
 7904W        W26108  16.211   8.067  14.892  0.0089 -0.1481 -0.0331
 7905W        W26109   5.704  14.140   1.440  0.2780 -0.0281 -0.1268
 7906W        W26110   7.492  10.693  12.926  0.0936  0.2699  0.0409
 7907W        W26111   9.638   7.254   3.434 -0.1504  0.0625 -0.2471
 7908W        W26112  14.289  14.956   2.671 -0.0177  0.0847 -0.0472
 7909W        W26113  13.290  11.611  13.802  0.4532 -0.0181  0.1087
 7910W        W26114   3.364  11.416  16.929  0.3582 -0.2818  0.0182
 7911W        W26115  14.378   4.121   1.768 -0.2160  0.0225  0.4457
 7912W        W26116   6.468  10.552   0.280  0.1062 -0.4775  0.1175
 7913W        W26117   7.770   0.305  16.318  0.0514 -0.1705 -0.0431
 7914W        W26118   7.427   5.916  12.610  0.1683  0.0240  0.0032
 7915W        W26119   6.115  11.166  14.189  0.0209 -0.1067 -0.0865
 7916W        W26120  12.107   0.846  13.893  0.2710 -0.2140  0.1332
 7917W        W26121  14.374  16.613   0.242  0.0282 -0.1320  0.0418
 7918W        W26122   7.378   7.755   4.726 -0.0010 -0.2129  0.3110
 7919W        W26123  16.710   5.159   2.762 -0.1685  0.0422  0.0861
 7920W        W26124   5.024   6.865  12.517  0.3286  0.0163  0.1374
 7921W        W26125   1.813  10.776   2.924 -0.1795  0.1488 -0.1151
 7922W        W26126  15.325  12.705   2.466  0.2408 -0.1824  0.0789
 7923W        W26127   6.943   0.461  16.114 -0.3053 -0.0310  0.0620
 7924W        W26128  16.018  10.372   1.592 -0.3003  0.0535 -0.1877
 7925W        W26129   1.276   1.288  13.201 -0.0400 -0.0836  0.0234
 7926W        W26130   4.021  11.141   2.210 -0.1502 -0.0023 -0.1323
 7927W        W26131  10.675   5.961  14.478  0.4257 -0.0871 -0.0411
 7928W        W26132  14.378  11.017  12.906  0.0605 -0.1097 -0.3648
 7929W        W26133   2.261   2.078  12.551 -0.0693 -0.0971 -0.1865
 7930W        W26134  12.133  13.487  14.669 -0.0055  0.1200  0.0094
 7931W        W26135  14.633  10.704   4.026 -0.0772  0.0673 -0.1057
 7932W        W26136   4.940   0.154   5.103 -0.1051  0.0698 -0.1086
 7933W        W26137   9.482  13.393   1.030 -0.0507  0.0400 -0.0563
 7934W        W26138  10.915  15.225   5.804 -0.0383  0.0523 -0.1698
 7935W        W26139   3.780   8.891   0.077 -0.1135  0.1766 -0.0097
 7936W        W26140   2.514   4.213  15.225 -0.0868  0.0787 -0.1634
 7937W        W26141   4.849   1.480   1.601  0.0515 -0.0307  0.2354
 7938W        W26142  16.771   4.239   5.152 -0.1311  0.1761  0.3498
 7939W        W26143   0.950   5.366  17.142  0.0298 -0.0887  0.2251
 7940W        W26144   9.383   8.995   1.363 -0.4617  0.0323  0.2276
 7941W        W26145  14.622   6.722   5.066  0.3513  0.0661 -0.1702
 7942W        W26146   8.151   7.027  13.274  0.0562  0.0741  0.1326
 7943W        W26147  15.248  14.347   0.195  0.1206  0.4915  0.0264
 7944W        W26148   5.324   7.092  14.343  0.1185 -0.0909 -0.0881
 7945W        W26149   9.195  15.277  15.841  0.0041  0.0756 -0.1211
 7946W        W26150   8.719  11.515  12.409  0.0436  0.1477  0.0500
 7947W        W26151  14.964   3.519  12.662 -0.2418 -0.1626 -0.1023
 7948W        W26152  12.872   4.574  13.677 -0.3372  0.0298 -0.0474
 7949W        W26153  16.335  15.364   1.757  0.2458 -0.1153  0.0139
 7950W        W26154   4.216  15.578  14.906  0.1214 -0.3195 -0.0736
 7951W        W26155   0.952  11.495   2.197  0.3568 -0.1760  0.0191
 7952W        W26156   8.970  10.145  16.881 -0.1376  0.0290  0.0808
 7953W        W26157   6.843   9.661   0.449  0.0399  0.0849  0.0117
 7954W        W26158   4.883   0.581   4.803  0.1227  0.2147 -0.0203
 7955W        W26159   4.120  10.935   3.206 -0.2140  0.3033 -0.0873
 7956W        W26160  13.975   8.575   0.123 -0.3506  0.1492  0.1194
 7957W        W26161  10.669   3.263  12.454  0.3270  0.1407 -0.0815
 7958W        W26162   4.768  14.945   2.340  0.1372 -0.0860 -0.1193
 7959W        W26163   1.637   7.910   1.306  0.1595  0.2142 -0.0215
 7960W        W26164   6.348   9.429  16.333  0.3799 -0.1245 -0.1794
 7961W        W26165   9.277  16.980   4.036 -0.0155 -0.1287 -0.0939
 7962W        W26166  11.227  12.495  17.141  0.0779  0.1161  0.1362
 7963W        W26167   2.502  12.636  17.063  0.5071  0.1301 -0.1101
 7964W        W26168   8.401   1.407   0.958 -0.0877 -0.0921  0.1492
 7965W        W26169   0.426   1.323  17.100 -0.1117  0.2064  0.1551
 7966W        W26170   8.283   9.039  15.599  0.0441 -0.0522 -0.1128
 7967W        W26171  15.183  13.788  14.779 -0.2354  0.2235 -0.2195
 7968W        W26172   1.706   4.336   2.821  0.3446  0.1194 -0.2116
 7969W        W26173  12.487  16.667  16.353  0.2331  0.0365 -0.0328
 7970W        W26174   6.303  15.073   1.870  0.2454  0.0124  0.1917
 7971W        W26175  12.999   3.405  14.549  0.2184 -0.1689  0.1988
 7972W        W26176   2.150  10.034   3.158  0.0118  0.2430  0.0312
 7973W        W26177   5.637  11.267  11.873  0.0251  0.0121  0.0303
 7974W        W26178   3.886  12.755   2.984  0.2362 -0.1410  0.1414
 7975W        W26179   3.751  14.423   6.111  0.0944  0.1021 -0.1428
 7976W        W26180  16.760  10.948   0.575  0.2804  0.1270 -0.0595
 7977W        W26181   0.745  16.687   0.022 -0.2012 -0.1594 -0.3350
 7978W        W26182  12.699  13.754   4.177 -0.2433 -0.2144 -0.1347
 7979W        W26183   3.561  15.307  12.025  0.0470 -0.0882  0.2432
 7980W        W26184  12.450  14.177   2.391 -0.0208  0.0825 -0.1817
 7981W        W26185  11.558   6.860  13.967 -0.1739 -0.0879  0.0975
 7982W        W26186   5.019  12.904  16.828  0.1502  0.3115  0.0120
 7983W        W26187   4.122  13.257   3.073  0.1725 -0.2465 -0.0012
 7984W        W26188   2.123  13.015  14.619  0.1514  0.1749  0.0535
 7985W        W26189  14.694  14.436   2.074 -0.0496  0.0204  0.2758
 7986W        W26190   3.559   1.013  13.941  0.0433 -0.1697  0.3294
 7987W        W26191   9.532   1.594   0.883  0.0438 -0.2070  0.1619
 7988W        W26192   7.516  16.105   1.385  0.2017 -0.1168  0.1350
 7989W        W26193  12.428   0.639   0.315  0.2377 -0.1698  0.1141
 7990W        W26194   0.739   9.833   0.336 -0.3280  0.3133 -0.1117
 7991W        W26195   8.002   9.731   0.896  0.0347  0.0058  0.0432
 7992W        W26196   8.452  10.442   0.530 -0.0268  0.0435 -0.1196
 7993W        W26197   7.045  17.296  13.173 -0.0047  0.2166 -0.2106
 7994W        W26198  16.248  13.394  14.192 -0.3195  0.0446 -0.2027
 7995W        W26199   1.226  16.834   3.539  0.1296  0.4276 -0.6160
 7996W        W26200  17.175   1.509   2.160 -0.1015  0.3095 -0.2762
 7997W        W26201  14.977  11.556   3.031  0.0290 -0.1557 -0.1153
 7998W        W26202  13.585   8.195  16.277 -0.1524 -0.2499 -0.3311
 7999W        W26203   4.086   7.731  16.230  0.5597  0.3937 -0.1444
 8000W        W26204   7.539   7.538   2.555  0.2314  0.1209 -0.0262
 8001W        W26205   5.795  11.596  12.259 -0.1072 -0.0315  0.0918
 8002W        W26206  15.852   1.435  12.264  0.0570 -0.3402  0.1189
 8003W        W26207  14.499   8.369  12.282  0.0079  0.0193 -0.1808
 8004W        W26208  17.113   2.474   0.757 -0.1559 -0.3237  0.2074
 8005W        W26209  15.700  16.731  14.338  0.1063  0.1013  0.0334
 8006W        W26210  10.115  14.232  15.255  0.3140 -0.1678  0.0837
 8007W        W26211   0.376  15.734   0.233  0.0343  0.8327  0.1162
 8008W        W26212   7.499   0.862   2.138 -0.1349 -0.1327  0.3414
 8009W        W26213   1.027  13.851   3.195  0.0128 -0.3999 -0.1895
 8010W        W26214  11.350  14.674  12.787 -0.1189  0.2142 -0.3027
 8011W        W26215   1.499  12.984  14.102  0.2972 -0.0314 -0.4306
 8012W        W26216   2.877   1.303   4.285 -0.0318 -0.3820 -0.1238
 8013W        W26217  11.296  16.702   4.946  0.0278  0.2172  0.0441
 8014W        W26218   2.854   0.156   2.664 -0.0516  0.0378  0.3654
 8015W        W26219   7.273   2.591   4.722 -0.1923 -0.0134 -0.2394
 8016W        W26220  14.657   6.015   0.711  0.0450 -0.4202  0.0302
 8017W        W26221  10.012  14.855   2.661  0.0525 -0.0327  0.2899
 8018W        W26222   2.711   5.259   3.334  0.1995  0.0198  0.2279
 8019W        W26223   2.390  14.988  14.717 -0.0984  0.0767  0.1352
 8020W        W26224  12.211   2.599   2.799  0.1628 -0.0041 -0.2836
 8021W        W26225   0.998   1.750  16.387 -0.1254 -0.0263 -0.2210
 8022W        W26226  12.422   4.416   1.199  0.1647 -0.0512  0.0400
 8023W        W26227   8.357   6.907  12.376 -0.2249  0.2423 -0.3200
 8024W        W26228   8.934   0.365  15.623  0.0690 -0.2067  0.2591
 8025W        W26229  10.997   4.769   2.363  0.0402 -0.1498 -0.1175
 8026W        W26230   5.536   2.638  12.318  0.0419  0.0736  0.0749
 8027W        W26231  14.870  16.608   0.262 -0.0229  0.0231  0.3582
 8028W        W26232  13.024   5.777   1.963  0.0828 -0.1411  0.2593
 8029W        W26233  15.921  15.662   1.600 -0.0463 -0.3769 -0.0739
 8030W        W26234   5.078   3.575  13.383  0.0675 -0.1624  0.0189
 8031W        W26235   3.060  12.677   3.481 -0.2185  0.0303  0.1161
 8032W        W26236   0.073   4.570  15.874 -0.0857  0.3156  0.0285
 8033W        W26237  15.371   9.780   0.855 -0.0584  0.0079  0.0275
 8034W        W26238   3.408  16.225  14.303 -0.1377  0.2111  0.1205
 8035W        W26239   2.180   2.798  14.520  0.1290 -0.2790 -0.3346
 8036W        W26240  15.354   9.366   3.994  0.0697  0.1575 -0.1333
 8037W        W26241  12.099   8.169  13.028  0.1136 -0.3629 -0.2633
 8038W        W26242   7.262  12.596   0.405  0.0823 -0.1659  0.2491
 8039W        W26243  17.358  13.977   1.590  0.1769 -0.0764 -0.0768
 8040W        W26244   1.589  15.964  14.363 -0.1586  0.2390  0.2884
 8041W        W26245   5.448   6.751   0.558 -0.0380  0.0576  0.3076
 8042W        W26246  15.337  15.758  15.225 -0.0831  0.1560  0.0162
 8043W        W26247  11.116  12.724  11.148  0.1797  0.1579  0.1428
 8044W        W26248  11.207  14.448   3.140 -0.0753  0.0271  0.4494
 8045W        W26249  12.140  13.091   4.711 -0.0539 -0.2365  0.1325
 8046W        W26250  15.645   3.782  14.699  0.2458 -0.1795  0.0372
 8047W        W26251   1.434   7.825  12.221  0.2333 -0.1790 -0.0326
 8048W        W26252   4.294   4.071  13.483 -0.0284 -0.1064  0.0971
 8049W        W26253   5.963   7.074   4.117 -0.1019 -0.0571  0.0307
 8050W        W26254   3.990   6.310   2.358  0.3198  0.1243 -0.0686
 8051W        W26255  12.851  13.253   4.267  0.3021 -0.0121  0.0912
 8052W        W26256  13.932  10.394   1.783  0.2532  0.0842  0.0956
 8053W        W26257  11.108  10.980  12.376 -0.0788 -0.4095  0.1523
 8054W        W26258   7.917  15.718  15.094  0.4470  0.2656 -0.0700
 8055W        W26259  17.455   3.165  16.398 -0.1962 -0.1126  0.2085
 8056W        W26260   2.793   2.900  15.400 -0.1498  0.0497  0.1736
 8057W        W26261  10.610  17.039   1.760 -0.1019 -0.1306  0.0691
 8058W        W26262   9.117  16.228   4.283 -0.3742  0.2768 -0.3939
 8059W        W26263   5.817  17.501   0.754  0.2598 -0.0192  0.2033
 8060W        W26264   0.830  11.970   2.547  0.2032 -0.1016 -0.3492
 8061W        W26265   1.152   3.824   1.664  0.0337  0.1109  0.0169
 8062W        W26266   5.965  10.450   0.465 -0.0343  0.2784  0.2602
 8063W        W26267   9.411  16.317  13.855 -0.1043 -0.0454  0.1672
 8064W        W26268  11.360   6.646   1.543 -0.0350 -0.1865  0.3950
 8065W        W26269   2.533   6.398  16.373 -0.1125 -0.5729  0.0833
 8066W        W26270  15.328  12.798   3.551 -0.0210  0.0002 -0.1044
 8067W        W26271   3.304   8.324   2.675  0.2616  0.0648 -0.3342
 8068W        W26272   8.707   3.854  15.153 -0.0355 -0.0736  0.0108
 8069W        W26273  15.348  14.398  15.163 -0.5152  0.1870 -0.0329
 8070W        W26274   8.357   9.997   0.629  0.1202 -0.0741 -0.0189
 8071W        W26275   6.901   7.444  13.303 -0.1436  0.2785  0.1548
 8072W        W26276   6.558   2.561   2.910 -0.1848  0.0083  0.0602
 8073W        W26277  10.556  17.094   3.672  0.2740 -0.0634 -0.0907
 8074W        W26278  11.828  11.924  13.700 -0.1833 -0.1575  0.0995
 8075W        W26279   5.634   0.435   4.038 -0.0486  0.2071 -0.0694
 8076W        W26280   1.433  10.750  16.663 -0.2436  0.0333 -0.3610
 8077W        W26281   6.536  10.965  12.112 -0.1221  0.0650 -0.1231
 8078W        W26282  14.799  17.531  17.249 -0.0612  0.2613  0.0948
 8079W        W26283  17.309   5.892   4.285 -0.0193  0.0117  0.1556
 8080W        W26284   1.536  14.045   0.020  0.1127  0.0312 -0.0392
 8081W        W26285   0.115   2.162   0.003  0.0099 -0.0663 -0.1410
 8082W        W26286  17.386  11.044   1.002  0.0236  0.0077  0.1434
 8083W        W26287  14.950  15.023  12.192 -0.2675  0.0344 -0.2340
 8084W        W26288   3.465  10.214  14.570 -0.0713 -0.2061  0.4514
 8085W        W26289  13.000  11.152  17.243 -0.1288  0.2588 -0.0216
 8086W        W26290   4.788   0.321   0.690  0.0956  0.1032  0.0491
 8087W        W26291  11.733  16.465   2.676  0.0559  0.0802  0.0265
 8088W        W26292  13.725   5.803   3.030  0.0401  0.1966 -0.0051
 8089W        W26293   3.615  10.628   0.218  0.0141 -0.1740  0.1260
 8090W        W26294   4.457   2.039  13.302 -0.1090  0.2066 -0.0275
 8091W        W26295   9.163  12.138  16.064  0.0908 -0.0515  0.2266
 8092W        W26296   5.172   5.644  17.109  0.0166  0.1347 -0.0711
 8093W        W26297  16.965   7.350   4.898 -0.1497  0.0905  0.0884
 8094W        W26298  16.470   7.294  16.653 -0.0353  0.0487 -0.2467
 8095W        W26299   9.979   9.434   3.487 -0.2654  0.0207  0.4076
 8096W        W26300  17.179   2.943   1.229 -0.0975 -0.1692 -0.0985
 8097W        W26301  16.526  12.947   3.988 -0.3996  0.1672 -0.1355
 8098W        W26302  10.280   4.134   0.727  0.3281  0.1196  0.2981
 8099W        W26303   3.662   4.375   2.554 -0.0497  0.3203  0.0486
 8100W        W26304  10.122  15.515   3.754  0.2409 -0.1509 -0.2381
 8101W        W26305  15.306   5.006  13.051  0.2460  0.0475 -0.1172
 8102W        W26306   3.819   2.256   2.831  0.1326  0.0119 -0.1353
 8103W        W26307   7.647  12.862   1.183 -0.3322  0.1863  0.2907
 8104W        W26308  13.022  12.936  13.432 -0.1318  0.0210  0.0686
 8105W        W26309   6.968   9.030  15.735  0.4872  0.0269 -0.2608
 8106W        W26310  10.866   5.254  15.409 -0.0119  0.2545 -0.2397
 8107W        W26311  17.483   2.233   1.043 -0.1266  0.0363 -0.2390
 8108W        W26312   7.551   3.867   1.306  0.0177 -0.1283  0.1046
 8109W        W26313   5.572   3.250  16.243  0.1295 -0.1139 -0.0756
 8110W        W26314   8.545   0.547  15.221 -0.0686 -0.0509  0.0618
 8111W        W26315   4.382   6.007   2.311  0.1569 -0.3116  0.0094
 8112W        W26316   8.285   8.398  14.165 -0.2654 -0.0477 -0.0724
 8113W        W26317   8.610   4.684   0.512 -0.1355  0.4638  0.1072
 8114W        W26318   9.438   3.314   0.083  0.3951  0.4415 -0.0448
 8115W        W26319   9.242  16.688   2.143  0.1450 -0.0603  0.2314
 8116W        W26320  15.322   0.553  14.132 -0.3036 -0.2371  0.2132
 8117W        W26321  14.608  11.581  14.810  0.1743  0.2979  0.0268
 8118W        W26322   0.747  16.191  15.372 -0.0028 -0.0868  0.2378
 8119W        W26323  11.797   8.861   4.564  0.0369  0.0597  0.2605
 8120W        W26324   7.807  10.907   4.559 -0.4124  0.0243  0.0609
 8121W        W26325   7.976   9.480  15.726  0.0157 -0.2347 -0.1018
 8122W        W26326   7.981   9.307  12.334  0.0504  0.0288  0.1015
 8123W        W26327  17.217   8.050   1.125 -0.2017 -0.1180  0.0267
 8124W        W26328   5.439   9.654  16.090 -0.0817  0.0502  0.0756
 8125W        W26329  10.281   1.658  17.221 -0.0239 -0.0486  0.0141
 8126W        W26330   1.269   3.031  15.981  0.2810 -0.0442  0.1858
 8127W        W26331  10.722   4.822  14.744  0.0186  0.3267  0.0446
 8128W        W26332   0.208   0.737  12.992  0.0959 -0.1793  0.1444
 8129W        W26333   6.415   1.593   4.356  0.0685 -0.1842 -0.0196
 8130W        W26334  15.412   6.069   5.183  0.2105  0.0396  0.2530
 8131W        W26335   7.703  14.160   3.837  0.1674 -0.0627  0.0744
 8132W        W26336  12.163   1.029   2.529  0.1809 -0.4122 -0.3766
 8133W        W26337   6.899   9.675   5.404 -0.3341  0.0881  0.0753
 8134W        W26338   2.737  11.321   2.057  0.0756  0.2093  0.0579
 8135W        W26339   3.261   8.885  14.797  0.0498 -0.2427 -0.1943
 8136W        W26340   6.164  17.113  15.405  0.2161  0.0323 -0.0830
 8137W        W26341  14.488   5.690   1.356  0.0618  0.1500 -0.0317
 8138W        W26342  14.990  11.074   3.140 -0.0092 -0.0974  0.2205
 8139W        W26343   7.207  17.179  11.934 -0.0473 -0.1737 -0.0697
 8140W        W26344   0.324  14.303  17.209  0.0107 -0.1137  0.0214
 8141W        W26345  12.099  13.916   4.775  0.0798 -0.1526  0.2323
 8142W        W26346   0.300  15.991  15.147 -0.0948 -0.0299  0.1760
 8143W        W26347   6.611  13.322   2.627  0.3023  0.0711  0.0281
 8144W        W26348   4.928   1.022  12.117  0.2262  0.4577 -0.1036
 8145W        W26349   6.362   5.467  13.247  0.1789 -0.1271 -0.1012
 8146W        W26350  16.756  16.095  13.076  0.0199  0.2380  0.0441
 8147W        W26351  13.620  11.637  12.647 -0.3588 -0.3233  0.0317
 8148W        W26352   6.116  12.933  13.281  0.0543  0.1955 -0.2418
 8149W        W26353  16.828   2.242   2.390  0.0317 -0.1158 -0.0733
 8150W        W26354  14.611   7.223  13.226  0.0075  0.1556 -0.1764
 8151W        W26355  13.382   9.376   0.892 -0.0343  0.0075 -0.0271
 8152W        W26356   7.992   3.642   3.920 -0.1159 -0.0252  0.1861
 8153W        W26357   8.213   7.514   3.525 -0.0421  0.0544 -0.0383
 8154W        W26358   3.167   7.360   1.092 -0.0657 -0.0866 -0.1375
 8155W        W26359  10.281  15.731  15.808 -0.1730 -0.2064 -0.0364
 8156W        W26360   9.109   8.109  16.166 -0.0148 -0.1181  0.1506
 8157W        W26361   6.584   1.038  14.534 -0.2055 -0.0123  0.0093
 8158W        W26362   2.104  13.741  12.706 -0.0481  0.1006 -0.0651
 8159W        W26363   8.128   3.401   1.978 -0.1419  0.0704 -0.3495
 8160W        W26364  10.271   5.038  14.570 -0.2004  0.0430 -0.1074
 8161W        W26365  16.164   8.047   1.743  0.3923  0.0540 -0.2599
 8162W        W26366  12.482   1.022   4.780  0.1105 -0.2315  0.3767
 8163W        W26367   2.917   7.080  12.969 -0.0723  0.2899  0.1420
 8164W        W26368  14.286  13.257  15.761  0.3347  0.1355 -0.0138
 8165W        W26369  16.502  13.548  13.729  0.1541 -0.0607  0.2034
 8166W        W26370   8.717  12.961  14.258  0.0869 -0.1501 -0.2094
 8167W        W26371  13.743  13.232   3.306  0.0221 -0.1459  0.2832
 8168W        W26372  10.546   6.279  12.365  0.0279  0.1097  0.1914
 8169W        W26373  11.049   3.749   2.370 -0.0823 -0.1698 -0.1155
 8170W        W26374  16.482  12.210  16.446  0.0749 -0.1162  0.1510
 8171W        W26375  17.489   8.525   5.688 -0.0587  0.0393 -0.0039
 8172W        W26376   5.165   6.404   0.287  0.0503 -0.0191  0.3838
 8173W        W26377   3.642   7.478   4.041 -0.0609 -0.0606  0.2269
 8174W        W26378   4.967   7.220  16.240  0.1258  0.0440  0.0199
 8175W        W26379  17.094  13.760  14.709 -0.3485 -0.2712 -0.1111
 8176W        W26380  13.101   6.686  14.264 -0.1024 -0.1941  0.2518
 8177W        W26381  16.546  15.196  17.125 -0.1443 -0.0995  0.3625
 8178W        W26382   4.488   1.207   1.814 -0.3638  0.1473 -0.0633
 8179W        W26383   3.631   4.891   1.192 -0.0534  0.0929 -0.0149
 8180W        W26384   3.595   7.663  16.107  0.0723  0.0446 -0.2281
 8181W        W26385  16.626  10.726  17.040 -0.2151 -0.0191  0.0574
 8182W        W26386   8.937  16.663   5.109  0.1149  0.2381  0.1658
 8183W        W26387  16.223   2.642   2.924  0.0939 -0.2667 -0.0145
 8184W        W26388   3.048  16.466   1.979 -0.1962 -0.1265  0.0264
 8185W        W26389   4.949   9.000   3.200  0.1963 -0.0124  0.1434
 8186W        W26390  13.733  15.681   3.726  0.1716 -0.1219  0.1284
 8187W        W26391   4.930  17.117  13.398  0.0877  0.1553  0.2673
 8188W        W26392   8.419   7.456  16.761 -0.0661 -0.0085 -0.1665
 8189W        W26393  12.983  16.227  14.116  0.3344 -0.0960  0.2048
 8190W        W26394  13.175   4.796   2.299  0.1146  0.1803 -0.1718
 8191W        W26395   1.086  11.926   1.228 -0.0635  0.2087 -0.0670
 8192W        W26396  16.511   3.427  14.669 -0.2223  0.0933 -0.0945
 8193W        W26397  16.165   0.256  16.944  0.1405 -0.0342  0.0871
 8194W        W26398  10.105   1.498   1.236  0.1205 -0.1497 -0.0732
 8195W        W26399  15.490   2.189  13.296 -0.0954  0.1310 -0.1462
 8196W        W26400   1.119  17.336  13.973 -0.0204  0.0180 -0.1498
 8197W        W26401  10.341   5.712  16.863  0.0168 -0.0003 -0.0637
 8198W        W26402  13.476   6.650  16.034  0.0926 -0.0921 -0.0277
 8199W        W26403  12.943  16.832   6.298  0.2205  0.1075 -0.0852
 8200W        W26404  13.706  12.973   2.400 -0.2090 -0.1668 -0.0471
 8201W        W26405  14.440  13.924  16.992  0.0852  0.0647  0.1249
 8202W        W26406   1.068  15.019   2.330  0.0553 -0.1281 -0.0053
 8203W        W26407  16.020   5.415  13.844 -0.1169  0.1212 -0.2284
 8204W        W26408  11.156  14.457  15.856  0.0099  0.3036 -0.0147
 8205W        W26409   8.373  13.748   1.185 -0.3032  0.1845 -0.2646
 8206W        W26410   1.263  16.376  15.647 -0.0281  0.1925  0.1888
 8207W        W26411  14.104  12.989  10.961 -0.1439 -0.2649  0.0484
 8208W        W26412  17.371   6.541   2.085  0.0276 -0.1293  0.1540
 8209W        W26413  16.908   6.917  17.246 -0.0682  0.1766 -0.1177
 8210W        W26414   0.688  14.687  12.656 -0.1069  0.1531 -0.3015
 8211W        W26415   6.952  14.288   0.538  0.0289  0.0431 -0.0034
 8212W        W26416   3.475  11.469   0.112  0.1692 -0.0410  0.3994
 8213W        W26417   9.371  12.993  14.793 -0.3580 -0.2355 -0.2466
 8214W        W26418   1.008  16.998   0.606 -0.2514 -0.1763 -0.0218
 8215W        W26419   7.105   9.950  16.821 -0.0766  0.3483 -0.0476
 8216W        W26420   3.826   7.680   0.271 -0.2661  0.2371 -0.2351
 8217W        W26421  14.609   1.384   0.822  0.2683 -0.1570  0.0566
 8218W        W26422  12.536   9.030  14.572 -0.3704  0.0122  0.1845
 8219W        W26423  15.865   3.390  16.303  0.3541  0.0357  0.0116
 8220W        W26424   2.075   3.434   4.870  0.0745 -0.1365  0.0435
 8221W        W26425   9.071   6.074   3.958 -0.1994 -0.0874  0.0426
 8222W        W26426   0.615  15.226   1.937 -0.1534  0.0376  0.1515
 8223W        W26427   6.371   4.488   4.406  0.0580  0.0867 -0.0941
 8224W        W26428  12.948   5.710   5.792 -0.2848 -0.0701 -0.4285
 8225W        W26429   7.306  10.407   3.404 -0.3027  0.2878  0.0283
 8226W        W26430  10.414  12.068  11.083  0.2808 -0.3654  0.1510
 8227W        W26431   4.207   2.080  14.628  0.0544  0.1667  0.1764
 8228W        W26432   8.480   6.736  12.887  0.0412 -0.0400 -0.3575
 8229W        W26433   3.079   0.318  15.531 -0.1567 -0.1396  0.0992
 8230W        W26434  10.493  12.157  15.611  0.0506  0.1278 -0.0047
 8231W        W26435   8.515   4.524  13.093 -0.0167 -0.0261  0.0052
 8232W        W26436  14.472   0.947   3.544  0.0896 -0.0637 -0.0196
 8233W        W26437   4.557   5.330   3.494  0.1949  0.2090 -0.1144
 8234W        W26438  17.238  15.753   1.099 -0.0004 -0.3467  0.1786
 8235W        W26439   1.247  15.450  14.805 -0.0405 -0.0700 -0.3138
 8236W        W26440  16.912   9.625  12.370 -0.0423 -0.0552 -0.0327
 8237W        W26441  12.669   2.755  14.344  0.0608  0.0330 -0.1693
 8238W        W26442   2.941  14.930   4.777 -0.1657  0.4059 -0.3002
 8239W        W26443   7.869  14.911  15.220  0.1111 -0.0792  0.0136
 8240W        W26444   5.363  11.167   3.214  0.0835 -0.2507 -0.0047
 8241W        W26445   6.168   4.941   4.527 -0.2100  0.3190 -0.0178
 8242W        W26446  15.591  14.111  14.739  0.0746  0.0833 -0.2457
 8243W        W26447   8.428  16.153  13.135 -0.2116 -0.0364  0.1517
 8244W        W26448   7.645   4.360   4.813 -0.4082 -0.1443  0.0472
 8245W        W26449   2.421  14.157  14.592 -0.0740 -0.2559  0.1415
 8246W        W26450  11.937   4.535  15.910  0.0779 -0.3378 -0.1475
 8247W        W26451   1.042   4.977  15.546 -0.2223 -0.3421 -0.0352
 8248W        W26452  12.303  10.302  14.084  0.0687  0.1930 -0.0428
 8249W        W26453   3.320   5.661   0.613 -0.2797  0.0572 -0.2725
 8250W        W26454  11.211   9.227  12.621  0.4566  0.2049 -0.1999
 8251W        W26455   0.147   6.344  13.456 -0.0663  0.0388  0.0576
 8252W        W26456  14.238   2.076   4.799  0.1722  0.2461 -0.1091
 8253W        W26457   1.246   7.297  15.680 -0.1769  0.1924  0.1484
 8254W        W26458   1.297  15.345  12.978  0.2460  0.1566 -0.0497
 8255W        W26459   5.273  17.329  15.303 -0.0214 -0.0534  0.1151
 8256W        W26460  11.574   5.068  14.234  0.0994  0.3313  0.0148
 8257W        W26461   7.267  13.794   0.533  0.1427  0.1790  0.0539
 8258W        W26462  17.133   6.703  11.088  0.2508 -0.2400  0.1790
 8259W        W26463  14.789  15.952   3.562  0.0323 -0.0496 -0.2317
 8260W        W26464   2.583   5.741   3.399  0.3639 -0.1778 -0.3014
 8261W        W26465   5.221   3.802  13.844  0.1652 -0.1728 -0.1615
 8262W        W26466  10.197   7.868  12.925 -0.0436 -0.0594 -0.1411
 8263W        W26467  17.193  12.001   4.290 -0.2346 -0.3186 -0.0433
 8264W        W26468  10.518   1.313   5.439  0.2923 -0.2501 -0.2850
 8265W        W26469   6.870   3.297   0.269  0.4432 -0.0257  0.1582
 8266W        W26470  17.191  13.863   0.543  0.1141 -0.0571  0.0917
 8267W        W26471  16.562  14.565   1.239  0.5452  0.0227 -0.1014
 8268W        W26472   4.498  16.608  15.014  0.1927 -0.0481 -0.0001
 8269W        W26473   1.985   3.867  12.917 -0.0717  0.3090 -0.3286
 8270W        W26474   0.124   6.485  17.199 -0.2054  0.0943  0.1743
 8271W        W26475   4.180  16.274  14.002 -0.1223  0.2045 -0.1423
 8272W        W26476  14.631   1.890   3.556 -0.2367 -0.1291 -0.2397
 8273W        W26477   6.443   1.322  14.904 -0.1263  0.0493 -0.0377
 8274W        W26478   1.645   5.343  12.974 -0.2432  0.4790 -0.1507
 8275W        W26479   4.398   3.580   1.777 -0.1587  0.2945  0.0691
 8276W        W26480  15.567  10.799   2.956  0.2443 -0.2721  0.4549
 8277W        W26481   9.089   4.276  14.048 -0.5871 -0.4400  0.0490
 8278W        W26482   5.919  11.411  14.563 -0.1764  0.1023  0.0912
 8279W        W26483   8.991   0.141  13.007 -0.1811  0.0236 -0.2211
 8280W        W26484  12.529   4.029   4.891 -0.1908 -0.1486  0.2932
 8281W        W26485   8.914  10.605  15.792 -0.0761  0.0617 -0.1375
 8282W        W26486  15.962   1.411   3.786 -0.1788  0.1182  0.0937
 8283W        W26487  11.954  10.194   2.548 -0.2486 -0.0924  0.2490
 8284W        W26488   4.999   3.551  14.297 -0.1445  0.3825 -0.1624
 8285W        W26489   3.179  14.283   1.543  0.0346 -0.0211  0.0340
 8286W        W26490   2.699   7.832   2.805  0.1203  0.2155  0.2707
 8287W        W26491  15.065  10.712   5.509  0.3176 -0.0800  0.1392
 8288W        W26492  15.278  11.754  11.643  0.0053 -0.1860  0.0544
 8289W        W26493  17.121  15.002  12.895 -0.1009  0.0031  0.0017
 8290W        W26494   4.184   7.635   0.771  0.0595 -0.1972 -0.0950
 8291W        W26495   8.855  10.497   2.304  0.2798  0.1676 -0.1869
 8292W        W26496  13.059  11.087   0.826 -0.0082 -0.0294  0.1130
 8293W        W26497  11.766   4.266   1.598  0.1479 -0.0382 -0.1011
 8294W        W26498   9.427   3.635   4.512  0.1994  0.2919  0.1774
 8295W        W26499   5.634  13.495  13.863  0.2872  0.1277  0.0213
 8296W        W26500  13.082  16.945  12.605 -0.0263 -0.0959 -0.0830
 8297W        W26501   8.239  16.998  12.015  0.0639  0.1944 -0.1148
 8298W        W26502   1.525   2.858   4.538 -0.2325 -0.2948 -0.0937
 8299W        W26503   5.609  12.676  15.510 -0.0673  0.2519  0.3877
 8300W        W26504  10.351   8.821   1.656 -0.0553 -0.1778 -0.4205
 8301W        W26505  15.269  11.872  16.898  0.0263  0.2411  0.1102
 8302W        W26506   4.371  14.643  15.936  0.0523  0.0313 -0.1992
 8303W        W26507   4.503   4.257  12.740  0.0599 -0.0407 -0.2058
 8304W        W26508   7.255   6.017  13.126  0.0805 -0.3704 -0.2115
 8305W        W26509   1.360   2.372  14.408  0.0411 -0.2458 -0.2709
 8306W        W26510  12.072  14.973   4.052 -0.1766 -0.0114 -0.1029
 8307W        W26511  13.529  10.565   4.378  0.2583  0.0163 -0.0831
 8308W        W26512   2.639  13.436   1.991 -0.2068 -0.2364 -0.1197
 8309W        W26513  17.233   0.843   3.678 -0.1546  0.0436 -0.2987
 8310W        W26514  12.885  16.010   2.114  0.2535  0.1135 -0.2942
 8311W        W26515  15.055  11.402   0.526 -0.1651 -0.1279 -0.1742
 8312W        W26516  17.278  15.095   5.007 -0.0058 -0.0687  0.3256
 8313W        W26517   9.692   7.029  15.262 -0.0727 -0.1011 -0.2870
 8314W        W26518   6.235   8.207  13.941  0.2818  0.3354  0.2318
 8315W        W26519  10.599  16.070   1.566  0.4286  0.2075  0.1631
 8316W        W26520  14.708   9.397   4.342 -0.0028  0.4482  0.0306
 8317W        W26521  16.363  16.134  17.247  0.1473  0.0446 -0.0943
 8318W        W26522  14.755  13.676  14.954 -0.0195  0.0537 -0.0968
 8319W        W26523  14.163  14.902   3.175 -0.0797 -0.1386 -0.0956
 8320W        W26524   5.729   3.240   1.543 -0.2761 -0.0597 -0.1421
 8321W        W26525  14.297   7.332   4.436  0.4354  0.0019  0.0904
 8322W        W26526  15.370  15.137   0.750 -0.0481 -0.0592 -0.1645
 8323W        W26527   3.427   7.611   3.125  0.1793  0.1511  0.1181
 8324W        W26528   6.789  10.303   3.616 -0.3484  0.1619  0.0909
 8325W        W26529  15.654   3.092  14.318  0.1979  0.0235 -0.0962
 8326W        W26530   5.151  12.901   4.777  0.2057 -0.0077  0.3047
 8327W        W26531  17.346   9.650  12.101 -0.1609  0.2990 -0.1474
 8328W        W26532   6.937   9.673   2.595 -0.1218 -0.0635  0.0525
 8329W        W26533   0.229  13.944  12.581  0.0572 -0.2185  0.2704
 8330W        W26534   2.060   5.263   2.782 -0.0669  0.0321 -0.2831
 8331W        W26535   4.133   7.678  13.440 -0.1927  0.2158  0.1037
 8332W        W26536   2.235   9.844  12.178 -0.2389  0.1671 -0.2526
 8333W        W26537   1.946   6.887   4.174  0.2396 -0.0035 -0.0277
 8334W        W26538   7.669   5.458   2.972  0.0484 -0.1300 -0.0779
 8335W        W26539   9.258   0.210   1.039  0.1267  0.0358 -0.1866
 8336W        W26540  12.882   1.418   4.233 -0.0138 -0.4724  0.1885
 8337W        W26541  11.625  10.494  12.376 -0.0975  0.1706 -0.0116
 8338W        W26542  12.512  11.320  16.903  0.1830 -0.1895  0.0967
 8339W        W26543   2.402   1.629  16.494 -0.0411 -0.0674 -0.2380
 8340W        W26544   9.882   5.189   3.967 -0.0100  0.0018  0.0435
 8341W        W26545   7.003   5.528   4.588  0.2451  0.4018 -0.2531
 8342W        W26546  14.979   5.625   3.688  0.0492  0.0205  0.0727
 8343W        W26547   9.145   1.530  14.347  0.1489  0.0449  0.0488
 8344W        W26548  13.271  14.172  12.346 -0.1510 -0.0236 -0.0244
 8345W        W26549   4.334   7.841  12.801  0.0912 -0.2583  0.1469
 8346W        W26550   8.841   7.202  12.912 -0.0580 -0.0887  0.1806
 8347W        W26551   4.612  17.074  14.828 -0.0191  0.0278  0.1698
 8348W        W26552  12.582  16.427   5.548 -0.2170  0.0280  0.2142
 8349W        W26553   8.005  16.025   1.579 -0.1418 -0.0089  0.1254
 8350W        W26554  14.693  15.098  15.290 -0.0652  0.4070  0.0306
 8351W        W26555   1.589   2.255  13.649  0.0840  0.1968 -0.0097
 8352W        W26556  12.673   6.752   5.409 -0.0420 -0.2024 -0.1606
 8353W        W26557   4.157   5.399   1.658  0.0165  0.0214 -0.2477
 8354W        W26558   0.989  16.508  11.102 -0.4740  0.1615  0.1716
 8355W        W26559  13.043   8.791  11.585 -0.1093  0.0576 -0.1094
 8356W        W26560  16.738   9.338   3.162 -0.0013  0.0943  0.1593
 8357W        W26561  11.669   2.938  16.456 -0.0389 -0.2258  0.0548
 8358W        W26562  11.874  11.074  13.481 -0.1014  0.0126 -0.2724
 8359W        W26563   2.508   2.896   1.084 -0.3215 -0.1531  0.1589
 8360W        W26564  17.319   8.335   3.296 -0.2383 -0.3594 -0.1834
 8361W        W26565  14.301  14.737   1.101 -0.4046  0.0446  0.1364
 8362W        W26566   4.689  13.780  17.243 -0.0872 -0.0030  0.0214
 8363W        W26567   5.627   4.461   1.370 -0.1239  0.0734 -0.1256
 8364W        W26568  12.996  14.410   2.654  0.0024 -0.1235 -0.3781
 8365W        W26569   5.944  12.800  14.764 -0.3470 -0.0214 -0.1498
 8366W        W26570  11.268   1.737  15.140  0.0554 -0.0361  0.0287
 8367W        W26571  12.777   2.254   4.792 -0.2102 -0.1165  0.0238
 8368W        W26572   4.981   2.399   1.945  0.2866 -0.1478  0.1300
 8369W        W26573   4.913   7.138  14.723  0.0254  0.4313 -0.1653
 8370W        W26574   9.523  17.290   1.017 -0.1294  0.1563 -0.2916
 8371W        W26575  16.165  17.531   0.730 -0.0154 -0.3250 -0.0203
 8372W        W26576   0.068  11.168  13.792 -0.1112 -0.0124 -0.1219
 8373W        W26577   2.276   3.040  12.083  0.3995 -0.0835 -0.0218
 8374W        W26578   3.514   9.693   3.459 -0.0860  0.0072 -0.0603
 8375W        W26579   8.694  14.043  13.099  0.0334 -0.0975 -0.2182
 8376W        W26580   0.720  14.314   2.821 -0.1107  0.0868 -0.0354
 8377W        W26581  15.064   3.228  11.864  0.0380  0.1582 -0.1808
 8378W        W26582   3.652   2.622   0.126 -0.0652  0.2136 -0.2747
 8379W        W26583   2.573  13.279  14.732 -0.0965 -0.3509 -0.0534
 8380W        W26584  10.388   9.809   4.269  0.3387 -0.0272 -0.1074
 8381W        W26585  15.650   6.282  12.956  0.3538  0.1707  0.2217
 8382W        W26586   6.017   5.421  12.483 -0.1717 -0.1054 -0.0046
 8383W        W26587   5.506  12.867  14.556 -0.0773  0.1374  0.1299
 8384W        W26588   9.649   2.898  13.621 -0.0847 -0.0499 -0.0329
 8385W        W26589  13.078   2.459  12.606 -0.0567 -0.2559 -0.0638
 8386W        W26590   8.665  13.211   4.794  0.1843 -0.0872  0.1076
 8387W        W26591   2.831  12.476  12.083 -0.1488  0.1812 -0.0795
 8388W        W26592  15.599   7.165  16.715  0.3671 -0.2576  0.0639
 8389W        W26593   5.899  17.360   3.151 -0.0409 -0.1443 -0.1383
 8390W        W26594  14.656  15.847   2.234  0.0583  0.3118 -0.2368
 8391W        W26595  16.012   5.617  16.398 -0.0487 -0.3133  0.0239
 8392W        W26596   2.836   5.815  12.148  0.0701 -0.0652 -0.1790
 8393W        W26597   8.368   2.185   2.242  0.1929 -0.2301  0.0223
 8394W        W26598  16.150   0.672   4.149 -0.1731 -0.0903  0.0881
 8395W        W26599   1.437  15.141   2.726  0.0468 -0.1179  0.0186
 8396W        W26600   7.840   9.963   2.845  0.0666 -0.0823 -0.0263
 8397W        W26601  14.440  17.209  13.941 -0.1564  0.0553  0.1584
 8398W        W26602  12.980   4.222  16.578  0.4804 -0.3168  0.4148
 8399W        W26603   6.623   8.113  16.240 -0.0109 -0.5039 -0.1667
 8400W        W26604  15.601  16.871  12.366 -0.0685  0.0508  0.0289
 8401W        W26605   0.133  11.380  11.893  0.0921 -0.0425 -0.1794
 8402W        W26606  11.381   6.609  11.933 -0.0240 -0.0475  0.2170
 8403W        W26607   7.985   9.248  13.515  0.3072  0.1196  0.1580
 8404W        W26608  12.976   1.812   3.102 -0.3755 -0.0255  0.0636
 8405W        W26609  12.515  13.180  16.851 -0.1315 -0.2416  0.1085
 8406W        W26610  16.588   3.912  14.886 -0.1998 -0.3249  0.2435
 8407W        W26611  14.083   2.923   4.465 -0.0752 -0.1332  0.2926
 8408W        W26612   8.502  12.360  14.455  0.1614 -0.0539 -0.1220
 8409W        W26613  16.235  12.266   2.593  0.1046  0.1872 -0.0945
 8410W        W26614   7.488   0.558   3.355  0.0331 -0.1675  0.1707
 8411W        W26615   8.169   1.917  15.487 -0.0461  0.0782 -0.0072
 8412W        W26616  12.227  17.218   5.792 -0.2120  0.2489  0.1377
 8413W        W26617   8.340   6.784   4.930 -0.1070 -0.1272  0.0565
 8414W        W26618  17.217  16.699  13.525 -0.0283 -0.0612  0.1868
 8415W        W26619  11.224  11.056  15.383  0.0623 -0.1376  0.0420
 8416W        W26620  14.535  11.650  16.704  0.2594 -0.0454  0.0738
 8417W        W26621  10.826  11.642  14.010  0.1968  0.0517 -0.0712
 8418W        W26622   1.797  10.461  12.569 -0.0322 -0.0757  0.0676
 8419W        W26623  17.485   3.573  12.481  0.2777 -0.0596 -0.1959
 8420W        W26624   1.915  10.541  15.866  0.3038  0.3549  0.2640
 8421W        W26625  13.998   3.610  12.853 -0.4871 -0.2749  0.2405
 8422W        W26626  12.804   2.213   3.995 -0.2791  0.0082  0.2110
 8423W        W26627  14.808  10.095   3.753  0.2029  0.1089  0.0060
 8424W        W26628   4.148  12.477  14.446 -0.2783 -0.0470  0.1629
 8425W        W26629   1.115  17.361   4.338  0.1187 -0.2494 -0.1989
 8426W        W26630   9.450  16.691   1.039  0.0453  0.1318  0.2078
 8427W        W26631  13.379  15.876   0.392 -0.0306  0.1379  0.0461
 8428W        W26632   1.425   8.047   2.316  0.0654  0.3227  0.1604
 8429W        W26633   0.189  15.811  13.820 -0.1513 -0.3289 -0.2892
 8430W        W26634   0.174   5.021   4.527 -0.2899  0.1694 -0.0277
 8431W        W26635   9.093   3.338  16.279 -0.2372  0.0703 -0.0178
 8432W        W26636  13.608  11.254  16.827 -0.2578  0.0078 -0.1381
 8433W        W26637  10.673  12.665   0.783 -0.0138  0.0293 -0.0939
 8434W        W26638  13.150   3.016  14.164  0.1493 -0.1955  0.1646
 8435W        W26639   7.136  13.206   4.235  0.2267  0.2840  0.3032
 8436W        W26640   7.784   5.421  14.423  0.2195  0.0627 -0.2213
 8437W        W26641   9.658  17.275   4.592  0.0470  0.1467 -0.0115
 8438W        W26642  15.939   2.179   5.594 -0.0559  0.1543 -0.2030
 8439W        W26643   9.153  13.765  15.881  0.0993  0.2251  0.1702
 8440W        W26644  11.928  17.494   0.696 -0.1480 -0.3583 -0.2011
 8441W        W26645  13.370   5.637  11.306  0.0291 -0.2716 -0.0340
 8442W        W26646   0.743  13.755   2.653  0.2722  0.0498 -0.2681
 8443W        W26647   9.294   9.460  12.003 -0.2075  0.3127 -0.3877
 8444W        W26648  14.131   0.832   5.846 -0.0204 -0.0123 -0.1421
 8445W        W26649   1.175   6.643  12.092 -0.2245  0.1959  0.4607
 8446W        W26650   5.187  14.782   3.656  0.0045 -0.1215  0.1716
 8447W        W26651   0.873   3.771  12.417  0.2429  0.0387  0.0853
 8448W        W26652   9.320  11.283  15.372 -0.0540  0.1213 -0.2132
 8449W        W26653  17.096  10.244   2.476 -0.0683  0.2806  0.1616
 8450W        W26654  12.406   6.617   1.466  0.0632  0.1310 -0.2750
 8451W        W26655   5.252   3.635   3.858 -0.0045 -0.1202  0.0948
 8452W        W26656  10.458  14.521  12.421  0.2680  0.0625  0.0798
 8453W        W26657   1.480  10.093   6.038  0.3585 -0.1215  0.2391
 8454W        W26658   9.565   8.732   2.351  0.2225 -0.2690  0.2343
 8455W        W26659   9.101  15.850  16.663  0.1374  0.0884 -0.2579
 8456W        W26660   2.359   9.242  15.902 -0.0053  0.0019  0.1347
 8457W        W26661   7.283  14.467  14.534 -0.1467 -0.1671 -0.2534
 8458W        W26662   5.844  15.335   2.198 -0.0383 -0.0843  0.2787
 8459W        W26663  13.037   2.766  11.904  0.1242  0.1261  0.1801
 8460W        W26664  14.037  14.131  12.345  0.0254 -0.1305 -0.1891
 8461W        W26665   7.316   3.995  12.732  0.0396  0.3167  0.1329
 8462W        W26666   6.787  17.125   0.060 -0.2305 -0.1305  0.3127
 8463W        W26667   5.213  10.905   5.412 -0.2209 -0.0479  0.1123
 8464W        W26668  17.514   7.852  12.291 -0.0336 -0.0104 -0.3000
 8465W        W26669   7.436   5.721  15.871  0.1034 -0.1728  0.0510
 8466W        W26670  15.502   8.834   1.317  0.3851  0.3349 -0.0148
 8467W        W26671   0.513   1.587  15.281  0.1497 -0.1055  0.2279
 8468W        W26672   6.388  12.239   2.449  0.1238  0.0487 -0.0533
 8469W        W26673  11.711   0.631  14.146  0.1034 -0.0217  0.1314
 8470W        W26674  13.868   9.214  13.410  0.1117  0.1746  0.1724
 8471W        W26675  11.289  11.109  12.905 -0.0306 -0.1496 -0.0604
 8472W        W26676  15.527   6.158   1.773 -0.1621 -0.4291 -0.1685
 8473W        W26677  12.647  10.102  16.621  0.3124 -0.2229  0.2404
 8474W        W26678   3.810   7.393  12.774 -0.2546 -0.3109  0.2018
 8475W        W26679  11.845  15.604   2.049  0.0657  0.1835 -0.2420
 8476W        W26680   7.006   6.252  12.719 -0.4106 -0.1303 -0.2362
 8477W        W26681   1.006  10.403  12.826 -0.2880  0.1138 -0.2896
 8478W        W26682  17.382   3.649   5.411 -0.0666 -0.2118 -0.1354
 8479W        W26683   5.288   9.256  12.070 -0.1128 -0.2543 -0.3403
 8480W        W26684   3.677  14.250  15.055 -0.0937  0.2855 -0.0035
 8481W        W26685  16.989   9.860  13.670 -0.0072  0.1946 -0.1225
 8482W        W26686  11.965   3.079   5.622  0.0049  0.0594 -0.5114
 8483W        W26687   5.423   3.766  16.081 -0.0419  0.2056 -0.1941
 8484W        W26688   4.852  14.590  16.200 -0.0273 -0.0491  0.0930
 8485W        W26689  15.673  14.267  12.095  0.0619  0.0641  0.1762
 8486W        W26690   0.258  14.508  12.533  0.2024 -0.4680  0.0202
 8487W        W26691   7.945   4.688   2.520 -0.1840 -0.0579 -0.0578
 8488W        W26692   1.313  12.167  14.746  0.0458  0.2032 -0.1842
 8489W        W26693  16.337  15.137  14.847 -0.0068 -0.2186 -0.0550
 8490W        W26694   4.344  14.161  16.357 -0.0665  0.1301  0.1380
 8491W        W26695   5.370  13.800   2.094  0.0764  0.1830 -0.0316
 8492W        W26696  12.648   4.838  13.040 -0.2601 -0.0596 -0.1077
 8493W        W26697   4.186  11.916  13.319  0.2068  0.0634  0.0335
 8494W        W26698   7.076  16.960  16.886 -0.0792  0.2122 -0.2524
 8495W        W26699   6.273  17.301   3.721  0.2085 -0.0563 -0.3087
 8496W        W26700  13.611   0.307   4.542 -0.2177 -0.1681  0.2661
 8497W        W26701   6.361  12.254   1.765  0.1556  0.0721  0.0122
 8498W        W26702  14.255   5.519  12.458  0.1875  0.2939 -0.1046
 8499W        W26703  12.921  16.882   3.937  0.1429 -0.1289 -0.1708
 8500W        W26704   1.445  15.276   3.799  0.2084  0.1770 -0.1473
 8501W        W26705   4.764   2.923  15.773  0.0785  0.0616 -0.2305
 8502W        W26706   1.644   0.352  16.454 -0.3900 -0.0786  0.0886
 8503W        W26707   8.264   2.074  16.946 -0.0632 -0.0935  0.3140
 8504W        W26708  16.354  12.498   2.135 -0.3255 -0.4243  0.0243
 8505W        W26709   5.996   0.320   4.959 -0.0192  0.2089  0.0501
 8506W        W26710  13.107  13.718  15.803 -0.0627 -0.5895  0.1624
 8507W        W26711  13.195   1.238  14.395 -0.4576  0.0868  0.0959
 8508W        W26712   7.106  16.290   3.871  0.4113 -0.0306 -0.0096
 8509W        W26713   8.224   3.919   0.714  0.1225 -0.3221 -0.1833
 8510W        W26714   6.953   3.676   4.426  0.0961  0.2439  0.1651
 8511W        W26715  16.962   6.494  14.906  0.0690 -0.1895  0.2419
 8512W        W26716  11.280  11.977   1.324  0.2247  0.0354 -0.2152
 8513W        W26717   2.991   6.007   0.415  0.1744  0.2610 -0.0573
 8514W        W26718   2.951   9.642   4.511 -0.0326  0.0650  0.1891
 8515W        W26719   2.763  16.385  15.858  0.0121  0.2412  0.2082
 8516W        W26720  12.396   5.088   4.332 -0.0887  0.0068 -0.2320
 8517W        W26721   4.836  16.931   0.445 -0.1499  0.1733  0.1627
 8518W        W26722   8.774   4.122  12.832  0.0560 -0.1790 -0.0682
 8519W        W26723  14.343  14.215  16.531  0.0778 -0.2713  0.1632
 8520W        W26724   3.581  15.127  12.528  0.0227  0.0381 -0.0926
 8521W        W26725   8.637  15.958  15.619 -0.1325 -0.0601 -0.3888
 8522W        W26726   3.578   1.968  16.002 -0.0920  0.5301 -0.2128
 8523W        W26727   4.571  13.746  15.879  0.1518  0.0254  0.0240
 8524W        W26728   6.847  10.315   2.422  0.1104  0.0411 -0.1281
 8525W        W26729  10.729  15.133   1.476  0.1744  0.1430  0.3113
 8526W        W26730   0.876  16.947   4.092  0.0096 -0.0591  0.2521
 8527W        W26731   8.171   5.262  14.071 -0.1417 -0.1504 -0.0335
 8528W        W26732  15.400   1.986  14.603 -0.0793 -0.0826  0.2452
 8529W        W26733   1.401   9.756  13.607  0.1657  0.1259 -0.1233
 8530W        W26734  14.327   0.493   4.093  0.2646  0.1623 -0.2947
 8531W        W26735  11.254   7.072  11.946  0.0242 -0.1101  0.0343
 8532W        W26736   9.591  13.104   5.078 -0.1221  0.2854  0.1363
 8533W        W26737   1.927   6.274   5.171  0.1193  0.0875  0.2436
 8534W        W26738   4.507   9.194   1.384 -0.2369 -0.0110 -0.0134
 8535W        W26739  17.369  10.626  12.773 -0.1301 -0.0230  0.0791
 8536W        W26740  13.124   4.664  15.544 -0.0952 -0.4346  0.1834
 8537W        W26741  11.942   5.173   2.872  0.0565 -0.1677  0.1399
 8538W        W26742   8.903  14.753  16.589  0.1668  0.2209  0.0170
 8539W        W26743   7.276  14.954  12.028 -0.1180 -0.1130 -0.0077
 8540W        W26744   2.023  16.356   4.189 -0.1189  0.2811  0.2190
 8541W        W26745   2.107   4.768  15.850 -0.1556 -0.1607  0.2563
 8542W        W26746  11.110   4.861  15.560 -0.0254 -0.1694  0.2627
 8543W        W26747   1.350   6.054   1.797  0.2191 -0.1314 -0.3244
 8544W        W26748  10.206   1.447   3.942  0.0225  0.3535  0.1440
 8545W        W26749   2.082   4.359  11.807  0.3910  0.3080  0.1364
 8546W        W26750  14.377   6.906  13.542 -0.3495  0.0238 -0.1757
 8547W        W26751   2.455  11.419  12.422  0.0374  0.0956 -0.1759
 8548W        W26752  14.345   2.370   5.309  0.2113 -0.0591 -0.1408
 8549W        W26753  17.029  17.327   5.245  0.0665  0.2603  0.0823
 8550W        W26754   8.769  10.291   6.119  0.0734  0.4007 -0.0478
 8551W        W26755   0.939   2.469   0.428  0.0930  0.0297  0.1541
 8552W        W26756  10.402  14.755   2.224 -0.1220 -0.1602 -0.1914
 8553W        W26757  15.219   4.630  12.061  0.0141 -0.2638  0.5306
 8554W        W26758  13.800   9.535  15.555  0.1317  0.1224 -0.1509
 8555W        W26759   1.055   3.595   5.291  0.1401  0.0785  0.2678
 8556W        W26760  10.148   7.368   4.278 -0.0493  0.3625  0.0385
 8557W        W26761   0.237   6.739  16.773  0.0341 -0.1015 -0.2087
 8558W        W26762   7.302  10.518  13.873  0.4686  0.0184 -0.0862
 8559W        W26763  12.846  16.780   3.087 -0.4876 -0.0238  0.0407
 8560W        W26764  11.404   4.585   1.519 -0.0552  0.0758  0.1992
 8561W        W26765   8.623   2.091   3.602  0.3081  0.0736 -0.2924
 8562W        W26766   9.497  16.080  12.555  0.2719  0.1285  0.0900
 8563W        W26767   2.361   2.862  15.177  0.1306 -0.0398 -0.4000
 8564W        W26768   5.874   6.358  13.800  0.1126 -0.1085  0.2604
 8565W        W26769   3.594   4.143  15.958 -0.1361 -0.0288  0.0810
 8566W        W26770   5.894   3.565  14.708  0.0700 -0.1005 -0.1033
 8567W        W26771  14.986  11.749   5.315  0.0210 -0.1277 -0.1341
 8568W        W26772  16.069   8.951  12.954 -0.1985 -0.0308  0.0630
 8569W        W26773   5.351  10.850  12.752 -0.1534  0.2192  0.2349
 8570W        W26774  16.973   3.283  16.391 -0.4281  0.4163 -0.0278
 8571W        W26775  15.367   2.234   4.710 -0.0376  0.1789 -0.1195
 8572W        W26776   1.036   1.617  15.879  0.2378 -0.0761 -0.3008
 8573W        W26777   9.551   0.079  13.605 -0.3208  0.0895  0.0580
 8574W        W26778   5.476   1.410  12.954 -0.0521  0.0024 -0.3015
 8575W        W26779  13.329   9.996   2.506 -0.2984 -0.1385 -0.1093
 8576W        W26780   0.116   9.348   3.002 -0.1042  0.1211  0.0558
 8577W        W26781  15.171   0.087  14.362 -0.3299  0.2240 -0.4061
 8578W        W26782   2.324   0.207  16.739  0.0625  0.1911  0.2078
 8579W        W26783   2.179   7.080   2.298  0.2025 -0.0665  0.0627
 8580W        W26784  13.879  14.518  13.750  0.0639  0.0554 -0.1364
 8581W        W26785   9.113   0.807  13.909  0.0617  0.3180 -0.2742
 8582W        W26786  13.238  12.546  17.040  0.0349  0.0729 -0.0893
 8583W        W26787   7.255   5.900  14.480 -0.1908  0.4930  0.1444
 8584W        W26788  15.860  12.504  11.599  0.4050 -0.0244  0.0035
 8585W        W26789   7.083  14.146  17.169 -0.0802  0.2198  0.3311
 8586W        W26790   4.323   1.869  14.202  0.1710  0.1889  0.4060
 8587W        W26791  14.369  11.269   1.706 -0.1925  0.0873  0.2662
 8588W        W26792   1.246   6.386   1.394 -0.1335  0.4410  0.0514
 8589W        W26793   2.820  11.141  17.273  0.0751  0.0482  0.0359
 8590W        W26794  15.445  17.164  14.448  0.1892 -0.3009  0.1603
 8591W        W26795   8.246   2.662   2.196  0.1492 -0.1112 -0.2572
 8592W        W26796   8.392   1.325   1.768 -0.0488  0.0615 -0.1204
 8593W        W26797  10.094  12.488   4.431  0.1259 -0.2364 -0.0346
 8594W        W26798  12.950  15.472  13.212 -0.0846 -0.0843 -0.0849
 8595W        W26799   5.827  14.068   3.378  0.0577 -0.0985 -0.0806
 8596W        W26800  16.588  11.963   3.409  0.3709 -0.1610 -0.1000
 8597W        W26801  14.342  16.761   5.061  0.0508 -0.4305  0.1730
 8598W        W26802   0.647  15.389   4.660 -0.1778  0.2742 -0.0191
 8599W        W26803   7.712  14.348   2.484 -0.1141  0.3428  0.2583
 8600W        W26804  13.443  14.169  13.539  0.0430  0.4821  0.2257
 8601W        W26805  11.809   8.594  13.174  0.1046 -0.0528  0.1272
 8602W        W26806   9.844   8.958   1.513 -0.0029 -0.0826 -0.1211
 8603W        W26807  11.288   2.427  14.636  0.2492 -0.0230  0.0580
 8604W        W26808   0.260   8.365  13.161  0.0608  0.1239 -0.1687
 8605W        W26809  11.989  15.623   5.217  0.0392  0.1751  0.0867
 8606W        W26810   1.727  13.480  15.192 -0.1284  0.2510  0.2691
 8607W        W26811   9.483   5.617  14.011  0.1070  0.1672  0.0589
 8608W        W26812  14.110   0.545   4.547 -0.5281  0.1762  0.2175
 8609W        W26813  10.340  15.114   1.207  0.1486 -0.0196  0.0509
 8610W        W26814   6.268  14.166   3.479 -0.1648 -0.0936 -0.2791
 8611W        W26815   8.011   9.554  14.990  0.1095 -0.2955  0.3580
 8612W        W26816  16.571   0.524  15.619  0.2738  0.0516  0.0190
 8613W        W26817   3.166   1.584  13.612 -0.0157 -0.0222  0.0480
 8614W        W26818   4.567  14.361  13.343  0.0833  0.1205  0.0354
 8615W        W26819  16.935  12.106  16.806  0.0284 -0.0884  0.0831
 8616W        W26820   8.089  17.394   4.252 -0.0203 -0.0314  0.1595
 8617W        W26821   4.075   6.680   2.737  0.0499  0.0636 -0.2025
 8618W        W26822   7.881  14.514  13.700 -0.0390 -0.0709  0.1139
 8619W        W26823   8.878  14.736   3.089 -0.4199 -0.0505 -0.0279
 8620W        W26824  17.465   9.094  12.098 -0.1310 -0.1527  0.0418
 8621W        W26825  16.248  12.719  13.429  0.1089  0.0420  0.2300
 8622W        W26826  14.542  10.055   0.840  0.0957  0.1985 -0.3859
 8623W        W26827  15.999  13.930   3.993  0.0872 -0.0111 -0.1144
 8624W        W26828  10.707   7.917   2.002 -0.0606 -0.0909 -0.2999
 8625W        W26829  15.738  15.890   2.692 -0.2994 -0.0136  0.2865
 8626W        W26830  15.329   8.578  12.465  0.0394  0.2473  0.2526
 8627W        W26831   1.527  12.594   2.040 -0.1472 -0.1986 -0.5523
 8628W        W26832   3.704   7.294   2.033 -0.1940 -0.1231  0.0374
 8629W        W26833   5.995   4.212   2.415  0.0407 -0.3234 -0.0102
 8630W        W26834  17.198  17.149   1.633 -0.1237 -0.1733  0.1297
 8631W        W26835   4.908   2.995  15.308 -0.0543 -0.1127  0.1798
 8632W        W26836  12.130   5.586   2.277 -0.2080 -0.0898  0.0570
 8633W        W26837   3.554  12.431  16.934  0.0641  0.3758 -0.0486
 8634W        W26838  15.641  14.671   0.127 -0.1383 -0.2549 -0.2033
 8635W        W26839   1.991   8.781  15.992 -0.6355 -0.0722 -0.1865
 8636W        W26840  16.669   0.511  14.597 -0.1503  0.0777 -0.6154
 8637W        W26841   9.575  10.127   5.188  0.1252 -0.0374  0.0862
 8638W        W26842   5.475  14.801  13.515 -0.1230  0.0780  0.3056
 8639W        W26843   1.934   1.923  13.421 -0.4114  0.0646 -0.4548
 8640W        W26844  12.255  15.155  16.911  0.2114  0.0220  0.1312
 8641W        W26845   2.998   7.096  12.407  0.3584 -0.2702 -0.1466
 8642W        W26846   8.600   8.239  13.287  0.1119 -0.0713  0.3947
 8643W        W26847   1.238  11.164  12.714  0.0691  0.0703 -0.4008
 8644W        W26848   9.787   6.886  16.449  0.1814 -0.0250  0.2834
 8645W        W26849  10.728   0.375  14.174 -0.0651 -0.0141 -0.1338
 8646W        W26850  16.992   8.928  16.270 -0.0513 -0.1052  0.0636
 8647W        W26851   5.181   3.221  13.939 -0.0534  0.1637 -0.1913
 8648W        W26852   8.494  14.526   1.727 -0.2434  0.0888 -0.2766
 8649W        W26853  13.525  14.499  16.602  0.1571  0.1237 -0.0949
 8650W        W26854   9.264  16.186  12.057  0.3099  0.2732  0.0928
 8651W        W26855   6.030   0.798   2.693 -0.1115  0.1661  0.2213
 8652W        W26856  17.437   5.442   4.283 -0.1191  0.3305 -0.0563
 8653W        W26857  15.791   1.457  13.774 -0.3283 -0.1533  0.2200
 8654W        W26858  16.586  16.401   0.402 -0.2448  0.0966  0.1993
 8655W        W26859  16.624  16.460   3.773 -0.0176  0.3269 -0.0176
 8656W        W26860   3.884  13.626  17.078 -0.0759 -0.0462 -0.0075
 8657W        W26861   0.003  13.721  15.880 -0.2767 -0.0190  0.2814
 8658W        W26862  13.605   1.620   1.372 -0.0014  0.0156 -0.0607
 8659W        W26863   9.229   2.577  16.713 -0.1137  0.3795  0.0468
 8660W        W26864  12.490   8.787   0.331 -0.2576 -0.0447 -0.0184
 8661W        W26865  14.451  13.688  12.320 -0.2603  0.0622 -0.4288
 8662W        W26866   6.458   6.663  17.074  0.2299  0.1296  0.1944
 8663W        W26867   3.494  16.522   3.244  0.2421 -0.1632  0.3365
 8664W        W26868  16.448  15.644   2.914 -0.2109  0.1963  0.0469
 8665W        W26869   8.860  11.335  15.064 -0.0478  0.1917 -0.0409
 8666W        W26870   1.686   7.616  16.576 -0.1652 -0.1700  0.3274
 8667W        W26871   7.805  11.647  16.057 -0.0396  0.0199  0.0866
 8668W        W26872  13.799   0.253  14.570 -0.1015 -0.3454 -0.4006
 8669W        W26873   0.684   5.742  16.895 -0.0939 -0.0509 -0.1845
 8670W        W26874   2.998  10.751   1.966  0.1819 -0.0153  0.0549
 8671W        W26875  14.045   5.985  13.900 -0.1343 -0.2371 -0.0584
 8672W        W26876   9.632   5.226   4.361  0.2272 -0.2235 -0.1397
 8673W        W26877   9.616  14.463  12.805  0.2353 -0.2357  0.3233
 8674W        W26878   6.678   6.631  12.861 -0.0007  0.2553 -0.1487
 8675W        W26879  14.065   8.444   2.930  0.1485 -0.0282  0.0979
 8676W        W26880  10.125  13.175  15.446 -0.1338  0.1482 -0.0005
 8677W        W26881  13.555  14.803  15.095 -0.3686  0.2094  0.1476
 8678W        W26882  15.246   0.432   4.928  0.1109  0.2297  0.1854
 8679W        W26883   0.977  11.385   5.060 -0.1380 -0.1279  0.1477
 8680W        W26884   7.294   4.699  15.993 -0.1698 -0.1124 -0.1507
 8681W        W26885   8.565  10.241  16.625  0.1711  0.0653  0.1554
 8682W        W26886   4.113   2.869  16.585  0.0599 -0.0232 -0.2480
 8683W        W26887  15.896  11.558   4.565 -0.1015  0.0529 -0.2544
 8684W        W26888   7.333   1.295  13.908  0.1105 -0.1366  0.0579
 8685W        W26889  11.060   2.860   1.360 -0.0407  0.3214  0.0253
 8686W        W26890   3.581  15.456   1.997 -0.0151 -0.1204  0.0655
 8687W        W26891   7.458  13.367   0.275 -0.3385  0.3212 -0.0251
 8688W        W26892   4.342   4.413   4.678  0.0028  0.2075  0.1561
 8689W        W26893  16.291   1.150   3.220  0.0808  0.0047  0.1425
 8690W        W26894   8.954   7.398   2.857  0.4320  0.2357 -0.2083
 8691W        W26895  10.310  11.396   0.110  0.2314 -0.0068 -0.1718
 8692W        W26896  17.128  11.670  16.612  0.1343  0.1880 -0.1482
 8693W        W26897  10.203  15.172  12.091  0.1250 -0.3176  0.1624
 8694W        W26898   8.935   6.853  17.000  0.0531 -0.2310  0.2344
 8695W        W26899  13.289  15.287  16.767  0.0079  0.0502  0.1167
 8696W        W26900   6.637  16.298   4.031 -0.3738  0.1786  0.0681
 8697W        W26901  16.579   0.052  14.482  0.0681 -0.1878 -0.0839
 8698W        W26902   9.728  13.273  12.149 -0.0130  0.1890  0.4305
 8699W        W26903  14.506  16.051  14.384  0.0237 -0.1685 -0.1359
 8700W        W26904   1.597   7.406   1.114 -0.0803  0.1462  0.1100
 8701W        W26905  14.287   2.253   3.825 -0.0051 -0.0156 -0.4118
 8702W        W26906   3.375   0.336  12.764  0.0438 -0.0526  0.0236
 8703W        W26907   7.460   6.868   0.549  0.0232  0.1300 -0.1430
 8704W        W26908   1.315   8.188   1.776  0.3180  0.2227 -0.0955
 8705W        W26909  10.215  15.544  16.732 -0.2582  0.0793 -0.2690
 8706W        W26910   4.014  13.456  15.255  0.0998  0.1013  0.0641
 8707W        W26911  12.869   7.647  13.120 -0.3709  0.1506 -0.0592
 8708W        W26912   7.482   6.523  12.803  0.0417  0.1159 -0.0708
 8709W        W26913   8.861   1.258  14.066  0.2384  0.0550  0.1421
 8710W        W26914  15.333  12.310   2.753  0.1068  0.1608  0.1238
 8711W        W26915  16.410   6.686   0.944  0.0625 -0.0720 -0.4587
 8712W        W26916   5.735   8.936   3.765 -0.2459  0.1356  0.1691
 8713W        W26917  17.395   7.095   0.130 -0.0473 -0.1184  0.2121
 8714W        W26918  17.068  10.882  16.705  0.2650 -0.0291 -0.0053
 8715W        W26919   6.050  17.516  14.650  0.1256  0.2096 -0.0539
 8716W        W26920   3.559  12.862   2.492 -0.2579  0.3132  0.0552
 8717W        W26921   2.988  15.547   0.699 -0.2178  0.0022 -0.0613
 8718W        W26922   9.831   4.356  13.618 -0.0648  0.0020 -0.1509
 8719W        W26923   4.611   2.737  12.731 -0.0238  0.3683 -0.0329
 8720W        W26924  14.755   2.553  13.481 -0.1670 -0.0932 -0.2010
 8721W        W26925   0.740   7.304   3.559 -0.2920 -0.2474  0.0203
 8722W        W26926   7.361  10.128  13.582 -0.1428 -0.0208  0.0698
 8723W        W26927  13.841  16.347   0.539 -0.0082 -0.2294 -0.0402
 8724W        W26928   2.245   4.351  12.268  0.1528 -0.0864  0.0429
 8725W        W26929   9.157   2.474   0.078 -0.0252 -0.0495 -0.0916
 8726W        W26930  16.070   8.566   0.719 -0.2583  0.0605 -0.2559
 8727W        W26931   6.893   1.089  16.832 -0.1372 -0.1975 -0.1366
 8728W        W26932  10.723   3.678  15.797  0.0010  0.1026 -0.0357
 8729W        W26933   7.954   2.179   5.094 -0.3306  0.0732  0.0104
 8730W        W26934  13.447   3.365   3.862  0.2321 -0.0970  0.1135
 8731W        W26935  11.596  17.150  15.277  0.2817 -0.0299 -0.0579
 8732W        W26936   4.023  12.405   0.546  0.4439  0.0135 -0.0290
 8733W        W26937   8.336  14.575  15.373  0.0152 -0.0997 -0.0136
 8734W        W26938   7.301  11.412  16.146 -0.2550 -0.1562  0.1709
 8735W        W26939  12.449  11.310   0.104 -0.1726  0.0080 -0.0271
 8736W        W26940   5.647  16.124  12.515 -0.1235 -0.3185 -0.2688
 8737W        W26941   0.191   7.390   5.420  0.2812 -0.3613 -0.0483
 8738W        W26942   3.882   5.935   3.978 -0.0041  0.0690  0.5682
 8739W        W26943  10.373   2.517   4.436  0.4486  0.5082  0.2435
 8740W        W26944  11.118  15.426   1.096  0.2115 -0.0877  0.1788
 8741W        W26945  11.693  14.389  15.856  0.1049 -0.2456 -0.0333
 8742W        W26946  13.815  15.017   0.927 -0.3667 -0.0808  0.0737
 8743W        W26947   0.582   0.979   4.605  0.4512  0.3868  0.1730
 8744W        W26948   2.783  12.825   4.660  0.1894 -0.1760 -0.1726
 8745W        W26949   0.951  15.014  16.239 -0.1354 -0.0122  0.0943
 8746W        W26950   9.131   7.712  15.805  0.0179 -0.2940  0.2904
 8747W        W26951  15.697   4.643  13.721  0.2609  0.2182 -0.2195
 8748W        W26952   2.154  11.599  15.343  0.1808  0.3049 -0.0096
 8749W        W26953  14.030   7.750  14.729 -0.1701 -0.0994  0.1544
 8750W        W26954   5.870   2.348  12.706  0.1909  0.2034  0.0516
 8751W        W26955  14.466   9.326  16.315  0.2833 -0.1759  0.0310
 8752W        W26956  15.128  16.815  12.603 -0.0401  0.1185  0.2175
 8753W        W26957  14.810  14.266   4.752 -0.0276 -0.1861  0.4010
 8754W        W26958   7.647  16.237   3.699  0.0138  0.1972  0.1682
 8755W        W26959  14.967   7.512  12.482  0.2732  0.0408  0.0127
 8756W        W26960   8.951  14.161   2.707  0.0633 -0.2395  0.0878
 8757W        W26961   8.454   3.736   1.124  0.2268  0.3007  0.0468
 8758W        W26962   2.793   4.165  13.441 -0.2452 -0.0041 -0.0914
 8759W        W26963  17.364   7.564   1.076 -0.0118  0.0738 -0.0793
 8760W        W26964  14.167   2.370  16.435 -0.0813 -0.1693 -0.0817
 8761W        W26965   0.883   1.942  15.519  0.3486 -0.1388  0.2340
 8762W        W26966  11.443  14.214  13.146 -0.1240 -0.2446  0.1410
 8763W        W26967  10.558   5.836   0.401  0.0946  0.1263 -0.1212
 8764W        W26968   6.381   1.593  12.449  0.2439  0.1163 -0.2868
 8765W        W26969  13.001  15.095   3.669  0.0932  0.0612  0.0016
 8766W        W26970   2.960  10.050   3.442  0.0890  0.0659  0.0811
 8767W        W26971  14.750  14.166   3.629  0.0031 -0.1167  0.0964
 8768W        W26972   9.589   8.490  15.492  0.0748  0.1920  0.0946
 8769W        W26973  16.729  15.332  14.204 -0.2446  0.1884 -0.4684
 8770W        W26974   6.675   9.683  14.479  0.0970 -0.3704 -0.1461
 8771W        W26975   5.412   8.240   1.740 -0.3729  0.2052  0.3630
 8772W        W26976   9.227   5.832   4.488  0.0850 -0.1506  0.1774
 8773W        W26977   8.814  17.214   4.899  0.0712 -0.0706  0.2202
 8774W        W26978  12.250  16.309  15.714  0.0697 -0.2204 -0.1330
 8775W        W26979   6.733  14.515   2.664 -0.1850  0.0207  0.2398
 8776W        W26980   2.935  11.246  15.561  0.2337  0.1532 -0.1149
 8777W        W26981   2.976   2.127   1.508 -0.1791  0.1557 -0.1065
 8778W        W26982   2.402   8.903  17.128  0.2579 -0.1013  0.1388
 8779W        W26983  12.167   3.477  13.486 -0.1236 -0.0061 -0.2950
 8780W        W26984  12.488  11.817  17.197  0.1030 -0.1261  0.0501
 8781W        W26985   5.622  11.553  14.913 -0.0071 -0.1397  0.1431
 8782W        W26986   2.400  14.321  15.081  0.0062  0.2056 -0.0494
 8783W        W26987   0.084   2.475  13.257  0.4201 -0.3379  0.2918
 8784W        W26988   0.470   6.175  12.987 -0.1850  0.1736 -0.1660
 8785W        W26989  10.233  14.136   4.872 -0.0152 -0.0980 -0.0903
 8786W        W26990   5.261  14.053   4.864 -0.2158 -0.1305  0.0330
 8787W        W26991   8.047  12.910  14.987 -0.0292 -0.2448  0.0974
 8788W        W26992   1.362  15.919  17.144  0.0260 -0.0492 -0.1758
 8789W        W26993   0.728   6.711  16.736 -0.2072 -0.2657 -0.1468
 8790W        W26994  12.005   2.411   1.832 -0.0602 -0.2084 -0.3561
 8791W        W26995   0.622   4.224  16.653  0.2371  0.0613  0.2715
 8792W        W26996   8.116  14.728  14.684  0.1749 -0.1971 -0.1536
 8793W        W26997  16.794   6.300  13.150 -0.1739  0.1821  0.1144
 8794W        W26998   0.677   9.309   3.538  0.2759 -0.0301 -0.0605
 8795W        W26999   0.421   3.463  15.681 -0.1488 -0.2497  0.0475
 8796W        W27000   0.804  11.690  13.316 -0.2410 -0.2115  0.0664
 8797W        W27001   0.806   7.345  16.101  0.0827  0.2149  0.1509
 8798W        W27002   5.054  17.051   2.968  0.1516  0.1286 -0.0687
 8799W        W27003  15.235  10.845  15.675  0.0792 -0.1022 -0.1527
 8800W        W27004   0.393  11.166   4.983 -0.1926 -0.2663  0.0503
 8801W        W27005   7.980  15.742   1.121 -0.1846 -0.3063  0.2590
 8802W        W27006  10.428   5.779  15.022  0.0299  0.2180  0.4255
 8803W        W27007   5.402   1.174   5.108 -0.0602  0.1911 -0.0468
 8804W        W27008  17.393   2.316   4.297  0.2586  0.0712  0.1830
 8805W        W27009   8.339  16.623  14.996  0.0296 -0.2693  0.0223
 8806W        W27010   1.388   6.280  12.434 -0.2171  0.2368  0.1826
 8807W        W27011   2.301   3.803   1.494  0.1854  0.2133  0.0971
 8808W        W27012  17.207   1.437   2.987 -0.2605  0.2411  0.1382
 8809W        W27013  10.850   0.649   5.941 -0.1169  0.1529  0.1301
 8810W        W27014  15.884   1.509   4.540 -0.1927  0.0530  0.0191
 8811W        W27015  11.833   1.967  16.686 -0.0861 -0.2432  0.0328
 8812W        W27016   9.726   9.921  15.907 -0.1063  0.1330  0.2812
 8813W        W27017   5.141   5.960   4.424 -0.0669  0.0480 -0.4879
 8814W        W27018   6.253   7.962   0.312 -0.2234 -0.1116  0.0104
 8815W        W27019   6.433  14.328   0.400 -0.0572 -0.2383  0.0585
 8816W        W27020   0.481   9.984  15.435 -0.1481 -0.2864 -0.3166
 8817W        W27021  12.609  10.222   2.219 -0.1328 -0.1320 -0.1157
 8818W        W27022  15.347  13.562   5.229 -0.0040 -0.4266  0.1129
 8819W        W27023   5.028   6.269   5.368  0.2424  0.0185 -0.1869
 8820W        W27024   3.171   4.433   1.713 -0.1761 -0.0411  0.0883
 8821W        W27025  15.844  11.972  15.078  0.2798  0.0761 -0.0402
 8822W        W27026  14.680  11.319   5.006  0.0823  0.2009 -0.3176
 8823W        W27027  12.927  12.572   0.260 -0.0562  0.0482 -0.0659
 8824W        W27028  11.332   6.992  15.215 -0.1015  0.2273 -0.1035
 8825W        W27029   8.406  11.602  15.980 -0.1714  0.1174 -0.0128
 8826W        W27030  13.385  11.843  14.229 -0.0260  0.1576 -0.2545
 8827W        W27031   5.771  15.501  13.489  0.0576 -0.0900  0.2040
 8828W        W27032  16.330   7.923  15.398  0.1717  0.3201 -0.0130
 8829W        W27033   7.660   8.724  12.634 -0.0708  0.1199  0.2769
 8830W        W27034  13.035   2.533   2.483  0.0276 -0.0241  0.0402
 8831W        W27035   0.697   9.691  16.676 -0.3430  0.3991 -0.0131
 8832W        W27036   3.316   2.953  13.723  0.0707  0.0314  0.0924
 8833W        W27037   6.947   1.530  14.647  0.2301  0.1261  0.1126
 8834W        W27038  14.031   1.390   2.689  0.1504 -0.2209  0.0717
 8835W        W27039  12.363  15.194   1.402 -0.0868  0.4578  0.1596
 8836W        W27040  10.454   7.098   2.923  0.2001  0.2544 -0.1051
 8837W        W27041   4.039   4.668  16.675  0.1419  0.0790  0.3001
 8838W        W27042  15.462  11.861   2.999  0.0386 -0.1292  0.2787
 8839W        W27043   2.312   7.446   0.998 -0.0518 -0.0757  0.2287
 8840W        W27044   7.487  10.921  16.728  0.1860  0.2664  0.1490
 8841W        W27045  14.744   9.089   0.870  0.3164  0.1161  0.2853
 8842W        W27046   2.650   7.756   4.066 -0.0246  0.1290 -0.0931
 8843W        W27047   7.209  16.856  14.748 -0.0441  0.0706 -0.0005
 8844W        W27048   2.859  14.044  12.910 -0.0111 -0.2104  0.0643
 8845W        W27049   8.405   0.452  13.059 -0.4727  0.0894  0.2206
 8846W        W27050   1.743  13.137   1.876 -0.0698  0.0299 -0.0065
 8847W        W27051   3.079  12.776  16.438 -0.0919 -0.1905 -0.1818
 8848W        W27052   7.129  13.739  13.636 -0.1827  0.0971 -0.1657
 8849W        W27053   2.508   0.172  13.620  0.1226  0.0803 -0.0053
 8850W        W27054   3.579   8.732  15.969 -0.2613 -0.0085 -0.5135
 8851W        W27055   4.581   6.812   4.555  0.2746  0.1352 -0.0732
 8852W        W27056   8.818   2.974   1.817  0.0472  0.0079  0.0261
 8853W        W27057   7.347   4.760   3.717 -0.1871  0.4598 -0.1352
 8854W        W27058  14.240   7.286   3.518 -0.0877 -0.0688  0.2520
 8855W        W27059   3.940   4.147  16.749 -0.1534 -0.1938 -0.0428
 8856W        W27060  13.717  14.457   4.587 -0.2063 -0.2398 -0.0494
 8857W        W27061   5.063  16.943  12.820  0.1787  0.1045  0.0835
 8858W        W27062  17.449   3.695  17.173  0.0803  0.1420 -0.0349
 8859W        W27063  14.447   8.292   3.320  0.0044 -0.0401  0.2037
 8860W        W27064   4.110  12.676   3.474  0.0652 -0.0896 -0.1160
 8861W        W27065   4.655  11.555  16.404 -0.3912 -0.2444 -0.1541
 8862W        W27066  14.182   3.342   1.979  0.0522 -0.2119  0.1437
 8863W        W27067   6.016   2.311   2.781  0.1166 -0.1821 -0.1840
 8864W        W27068  11.581   3.845  17.152 -0.1002  0.1039  0.4046
 8865W        W27069   1.279   1.209  12.493  0.1085  0.2442 -0.1494
 8866W        W27070   5.946   7.066  12.106  0.0183  0.1008  0.4821
 8867W        W27071   4.418  14.147  12.568 -0.0745  0.0898 -0.0498
 8868W        W27072   7.144   5.126   2.472  0.1969  0.0297 -0.3092
 8869W        W27073  10.998   1.727  14.593 -0.0577  0.2985  0.0525
 8870W        W27074  13.955   2.686   3.425  0.0753 -0.1393 -0.0271
 8871W        W27075   2.057   6.493  13.277  0.1040  0.0357 -0.0618
 8872W        W27076   8.103   4.746   5.211 -0.1662 -0.0088  0.0773
 8873W        W27077  15.570   8.623   0.830  0.0592 -0.1688 -0.0341
 8874W        W27078  16.294   4.824   0.832 -0.0233  0.3388 -0.2265
 8875W        W27079   5.592   8.958   0.259  0.2307 -0.2450 -0.2470
 8876W        W27080   2.099   8.361  12.189  0.1249  0.1231  0.0105
 8877W        W27081   5.648   2.384   3.141  0.0220 -0.2558 -0.1400
 8878W        W27082   1.232  12.350   3.953  0.1437 -0.2189  0.0064
 8879W        W27083   8.878  11.532   4.427 -0.0043  0.1281 -0.0219
 8880W        W27084   4.562   4.359   0.168  0.2161 -0.0327 -0.3255
 8881W        W27085   5.679  15.916   0.120  0.1514  0.0077 -0.2769
 8882W        W27086   5.652  14.059   2.905 -0.1092  0.2248 -0.0687
 8883W        W27087  11.721  14.146  12.715  0.2261  0.0698  0.3157
 8884W        W27088  10.936  11.961   1.883  0.2373 -0.1593 -0.1002
 8885W        W27089   5.230   9.842  14.234  0.0324  0.0386 -0.3106
 8886W        W27090   4.843   1.421   1.128  0.3263  0.3796  0.3442
 8887W        W27091   4.167  16.787  12.855 -0.0432  0.5643 -0.3300
 8888W        W27092  16.035  13.844  16.007 -0.1589  0.1034 -0.0543
 8889W        W27093  12.644  11.889  16.705 -0.0488  0.0837  0.1413
 8890W        W27094  14.508   4.195  15.855 -0.2716 -0.1830 -0.1521
 8891W        W27095   5.896   8.550  16.295  0.4074 -0.0107  0.1577
 8892W        W27096   0.170   1.755   1.066 -0.0100  0.0754 -0.0823
 8893W        W27097  14.025  13.848   5.920 -0.1813 -0.2907  0.1179
 8894W        W27098   1.004   3.225  15.159  0.4965 -0.0499 -0.0934
 8895W        W27099  14.564  14.561   3.100 -0.0093  0.0588 -0.0220
 8896W        W27100   4.667   3.461   0.207 -0.4258 -0.1914  0.1009
 8897W        W27101  15.478   4.869   3.686 -0.0033  0.0971 -0.0880
 8898W        W27102  10.654   6.330   3.036  0.1955  0.5736  0.2263
 8899W        W27103  11.677  13.344   3.486 -0.1346 -0.0795 -0.0389
 8900W        W27104   9.236  12.417  12.167 -0.0910  0.1734  0.0277
 8901W        W27105   6.303   3.313   0.242 -0.0093  0.0482 -0.0979
 8902W        W27106   6.163  16.949   2.911 -0.1668 -0.0092  0.0948
 8903W        W27107   2.478  16.049  13.805 -0.0140  0.3568  0.0152
 8904W        W27108   5.766   9.117   4.347 -0.2181 -0.2185 -0.2079
 8905W        W27109   6.063  10.003  13.692  0.0333  0.0012  0.2783
 8906W        W27110  15.204   2.595  13.945  0.0712 -0.2534 -0.0339
 8907W        W27111  13.713   9.891  12.911  0.1605  0.2553  0.1388
 8908W        W27112  13.186  13.215  12.910  0.4750  0.0717  0.0360
 8909W        W27113  12.348  15.951  11.552  0.1804 -0.3146 -0.1254
 8910W        W27114  11.224   6.547  16.054 -0.1028 -0.3868 -0.2204
 8911W        W27115   1.876   1.825  15.625 -0.3943 -0.0593 -0.3997
 8912W        W27116  11.677   6.353  16.798  0.0635  0.0516  0.2729
 8913W        W27117  16.903  17.540   3.298 -0.0970  0.0782  0.4751
 8914W        W27118  11.713  14.933  15.261  0.0556 -0.0345  0.1953
 8915W        W27119  10.651   9.606  15.427 -0.1104  0.2013  0.0115
 8916W        W27120  10.381   7.388   5.153 -0.1478 -0.0916  0.1623
 8917W        W27121  12.724  12.831   1.543  0.1479  0.3091  0.1133
 8918W        W27122   0.087   9.264  14.663 -0.1130 -0.2968 -0.0929
 8919W        W27123  10.023   6.906   4.206  0.0584  0.0436 -0.0858
 8920W        W27124  14.470  14.586   5.017  0.1626 -0.0127  0.3162
 8921W        W27125  16.554   4.668  12.805  0.1154  0.0707 -0.2376
 8922W        W27126   8.330   9.610  13.604 -0.1783  0.2284  0.0007
 8923W        W27127   6.634  15.216   0.583  0.0412 -0.2781 -0.0987
 8924W        W27128  11.788  15.911  14.137  0.2195 -0.0894  0.2033
 8925W        W27129  11.572  14.891  15.743 -0.2192  0.0748 -0.2447
 8926W        W27130   3.432  13.329   1.336  0.2780 -0.2134 -0.1111
 8927W        W27131  12.831  16.862  12.234 -0.2647  0.1697  0.1011
 8928W        W27132   8.715   4.673   0.982  0.1316  0.1132 -0.3644
 8929W        W27133   2.785   7.340   4.865  0.2020  0.1151  0.5748
 8930W        W27134   1.983  14.241  15.408 -0.0327 -0.0438  0.1357
 8931W        W27135  17.164   0.343  17.228  0.0162 -0.0741 -0.0487
 8932W        W27136  11.023  10.123  13.538 -0.2230 -0.0626 -0.2158
 8933W        W27137   7.973  14.124   0.665 -0.0968  0.1242 -0.0631
 8934W        W27138   3.983  15.333   2.735 -0.1430 -0.0738  0.3223
 8935W        W27139  14.970  11.376  16.698  0.1309 -0.1204  0.0142
 8936W        W27140  11.712  12.115  16.403  0.0937 -0.0060  0.0269
 8937W        W27141   6.176   8.705  17.086  0.2006 -0.0153  0.3730
 8938W        W27142  11.258  11.920  15.022  0.2160 -0.2919  0.1388
 8939W        W27143  12.118   4.306  13.670 -0.3047 -0.5858  0.1907
 8940W        W27144  16.198  12.617  14.033  0.3093  0.3607  0.1269
 8941W        W27145   7.462   3.547  14.627  0.0494  0.1858  0.2864
 8942W        W27146   8.093   3.760   5.157  0.0848  0.0396 -0.0011
 8943W        W27147   9.405   5.088   0.299 -0.0128 -0.3914  0.0181
 8944W        W27148   0.619  14.938  16.630 -0.0926  0.2226 -0.0629
 8945W        W27149  10.428  12.969   3.334  0.4069  0.2394 -0.0841
 8946W        W27150   8.585  13.898  13.693 -0.2306  0.1248 -0.0398
 8947W        W27151  10.866  12.031  13.626 -0.1093 -0.0198 -0.0454
 8948W        W27152  17.498  11.989  16.663  0.1572  0.0573 -0.0820
 8949W        W27153  13.288   1.645  15.282  0.0239 -0.0554  0.1297
 8950W        W27154   1.256   2.014   1.185 -0.0715 -0.1864  0.1357
 8951W        W27155  11.474   6.384   3.660 -0.4150 -0.0736  0.2498
 8952W        W27156  11.849   5.124   1.025  0.0188 -0.3484  0.1378
 8953W        W27157  12.463  14.914  15.726  0.0288  0.2824  0.0620
 8954W        W27158   1.752  16.722   3.499 -0.1042 -0.0964 -0.1453
 8955W        W27159  16.763  11.818   5.003 -0.1478 -0.0053 -0.0876
 8956W        W27160   8.936  12.599  11.735 -0.1574 -0.2776 -0.0976
 8957W        W27161   8.561   6.012   3.916  0.0705 -0.0247 -0.1197
 8958W        W27162   2.075  11.002  16.575 -0.2838 -0.2734  0.1289
 8959W        W27163   8.901  12.728   3.700  0.2863  0.0061  0.1192
 8960W        W27164  16.056   9.985   5.137 -0.2653  0.0775  0.1227
 8961W        W27165   2.480   8.417  11.883  0.0981 -0.2826 -0.1618
 8962W        W27166  12.271   2.506   1.401  0.1807  0.1025  0.0109
 8963W        W27167   1.931   1.394   3.850 -0.1218  0.1325  0.1612
 8964W        W27168   5.038  10.038  13.813  0.1146 -0.2403 -0.3614
 8965W        W27169   3.662   5.615   2.907 -0.1749  0.0207 -0.0869
 8966W        W27170  15.612  12.585  15.679  0.1728  0.1693  0.0025
 8967W        W27171   5.199  16.163  15.987  0.2191  0.0977 -0.3050
 8968W        W27172   6.744  11.901  15.327  0.0540 -0.0812  0.0385
 8969W        W27173  16.813   1.444  15.680 -0.0153  0.1050 -0.0262
 8970W        W27174  10.755   0.509  13.196  0.1968  0.0650 -0.0662
 8971W        W27175   3.836   6.790  14.336 -0.0643  0.1932  0.0328
 8972W        W27176  17.362   9.167   4.319 -0.4371 -0.0267 -0.0779
 8973W        W27177  12.164   5.553  15.455  0.1851  0.0403 -0.0062
 8974W        W27178  15.609   4.393  15.946 -0.0755 -0.0945  0.0384
 8975W        W27179  17.293   7.679   0.148 -0.1197 -0.2572 -0.0688
 8976W        W27180   5.131  10.941   3.850  0.0540  0.3963  0.3285
 8977W        W27181   4.757  13.394  13.421  0.4194 -0.0224 -0.0412
 8978W        W27182  15.139  14.297  11.314  0.1440  0.1581  0.1901
 8979W        W27183   4.734   3.464  15.533 -0.0159  0.0141 -0.1729
 8980W        W27184  13.827   0.678   1.408  0.2728  0.3467  0.1262
 8981W        W27185   1.149   5.948   4.927  0.1701 -0.2732 -0.1676
 8982W        W27186   4.434   6.595   4.029 -0.2780  0.1694 -0.0078
 8983W        W27187   9.860  11.813  16.090  0.4115 -0.1342  0.1588
 8984W        W27188   4.925   5.236  14.902  0.2137 -0.2311 -0.2385
 8985W        W27189   4.875  13.792   2.615  0.0456 -0.2438  0.2496
 8986W        W27190   6.711   1.799  17.265  0.0247 -0.0677  0.1222
 8987W        W27191   9.329  14.799  13.117 -0.2936 -0.0386 -0.2087
 8988W        W27192   5.797   3.102  13.120 -0.0347  0.0165 -0.1571
 8989W        W27193   9.022   3.474  12.029 -0.0654 -0.2590 -0.1263
 8990W        W27194  15.423   8.780   5.080 -0.0556  0.1267 -0.0570
 8991W        W27195   1.249  14.491   3.786 -0.1648 -0.0314  0.4723
 8992W        W27196  13.287   3.010  15.471  0.3719 -0.0896 -0.3018
 8993W        W27197   6.366   4.099   5.055  0.0150 -0.3029  0.1365
 8994W        W27198   0.866  10.080  10.964 -0.2471  0.1242 -0.0587
 8995W        W27199   6.612   7.436   0.324 -0.1167 -0.3505 -0.1041
 8996W        W27200  12.598  13.560   0.790 -0.4687  0.0537  0.2435
 8997W        W27201  11.214   1.418   4.258  0.2563 -0.1899 -0.0541
 8998W        W27202   9.438  15.728   0.349 -0.0507  0.1189 -0.1960
 8999W        W27203   7.880   6.122   0.165 -0.0198  0.0388 -0.1517
 9000W        W27204   5.759   9.368  16.435 -0.0107 -0.2815  0.0446
 9001W        W27205  17.353  15.374   0.594  0.1195  0.0173  0.0453
 9002W        W27206  17.510  14.344  13.567 -0.1140  0.0895  0.1873
 9003W        W27207  16.774  13.488  14.459 -0.1040  0.0493  0.0532
 9004W        W27208  12.567  10.342   0.847  0.1277  0.0292  0.0234
 9005W        W27209  10.658   2.951   0.449  0.0952 -0.1206  0.1100
 9006W        W27210  16.878   0.636   4.622  0.2005  0.0063  0.0341
 9007W        W27211  10.683   3.857  15.325  0.0746  0.0017 -0.0902
 9008W        W27212  10.889  13.141   0.758  0.1428  0.1979 -0.3432
 9009W        W27213  15.295  13.727   3.381  0.3575  0.4319  0.1482
 9010W        W27214   7.815   8.958   4.404 -0.1620  0.0581 -0.0864
 9011W        W27215  16.760   1.802   2.013 -0.0699 -0.0174  0.0760
 9012W        W27216   7.384  16.675  15.962  0.0168  0.2350  0.1956
 9013W        W27217   8.312  16.620  16.208 -0.0697 -0.3818 -0.3877
 9014W        W27218   9.581   5.978   4.108  0.0160 -0.1249  0.1881
 9015W        W27219  16.560   0.070  16.666 -0.0144 -0.1856  0.1047
 9016W        W27220   1.946   4.898  14.932 -0.1098 -0.0350  0.2309
 9017W        W27221  17.071  11.218   2.535 -0.1397 -0.0944  0.4564
 9018W        W27222   9.770   9.886  13.555  0.0674  0.0736 -0.4533
 9019W        W27223  13.143   3.256   0.254  0.0988  0.0930  0.1484
 9020W        W27224  15.670   1.161   4.234  0.1020  0.0084  0.0593
 9021W        W27225  16.941   4.190   1.639  0.0680 -0.2042  0.3682
 9022W        W27226   4.860  16.383   0.480  0.1269  0.1963  0.1721
 9023W        W27227   6.646   4.869   4.434 -0.0422  0.0504 -0.0799
 9024W        W27228  11.511   8.219   3.346  0.3179  0.0552 -0.0155
 9025W        W27229   0.573   7.207  15.223 -0.1589 -0.2043 -0.0673
 9026W        W27230   2.917   8.015   4.407 -0.0796  0.0251  0.0869
 9027W        W27231   0.993  13.043  14.229  0.1684  0.0339  0.2249
 9028W        W27232   2.804  15.043   4.131 -0.1286 -0.0090 -0.2206
 9029W        W27233   1.800  13.893   2.695  0.1977 -0.0074 -0.0679
 9030W        W27234   6.414  16.522   3.040 -0.0178 -0.0958  0.0051
 9031W        W27235  11.047   4.063   1.960 -0.0651 -0.4912 -0.0142
 9032W        W27236  14.789   2.542   2.015  0.1481  0.3510 -0.0640
 9033W        W27237   2.271   8.836  15.037  0.1313 -0.1492 -0.0058
 9034W        W27238   2.032   7.571  12.830  0.0017 -0.1900  0.0527
 9035W        W27239   2.678  16.616   5.033 -0.1340  0.3046 -0.2452
 9036W        W27240   9.372  11.088  11.873  0.1326  0.4725  0.0060
 9037W        W27241   0.114   3.483   4.996  0.0121  0.0930  0.1286
 9038W        W27242   4.336   2.678   1.390  0.1647  0.3074  0.3024
 9039W        W27243  16.635  11.704   0.899 -0.1088 -0.2892 -0.1063
 9040W        W27244  17.110  12.375  13.110  0.1036 -0.1858  0.0279
 9041W        W27245   9.328   7.071   3.094  0.2350 -0.1095 -0.0441
 9042W        W27246   7.685  10.320  14.149  0.3064 -0.0563 -0.3918
 9043W        W27247   2.022  13.494  14.765 -0.1342  0.2316 -0.0924
 9044W        W27248   8.524   1.382   3.614 -0.0541  0.2296 -0.2183
 9045W        W27249   1.952   7.332  15.773 -0.0929  0.1034  0.2824
 9046W        W27250  17.401   0.656  12.626  0.0382 -0.0711 -0.3585
 9047W        W27251   0.142   1.781  13.951 -0.0041 -0.1372  0.0447
 9048W        W27252  16.975  15.992   2.111  0.2798  0.1694 -0.3410
 9049W        W27253  17.009   3.820  15.782 -0.0267 -0.1797 -0.2977
 9050W        W27254  14.697   7.903   1.044 -0.2828  0.0240  0.0559
 9051W        W27255   4.442  15.332   2.361  0.0084  0.1228 -0.1592
 9052W        W27256   5.172   4.016  14.365 -0.1486 -0.5163 -0.1369
 9053W        W27257   0.166   6.654   3.874  0.2278 -0.1179  0.0722
 9054W        W27258   1.863  10.298   2.821 -0.2449  0.0011 -0.1827
 9055W        W27259  10.505  12.027  12.116  0.2378 -0.0057  0.1280
 9056W        W27260   4.913   5.220  16.489  0.0411  0.2186 -0.1137
 9057W        W27261   6.328   7.992   3.206 -0.1035  0.0344  0.1185
 9058W        W27262   0.562  13.111   1.593  0.1120  0.1584  0.0771
 9059W        W27263   7.976   8.950  14.828 -0.0619  0.0450 -0.0412
 9060W        W27264   6.304   5.430   1.947 -0.0363 -0.1219 -0.1710
 9061W        W27265  11.393   6.570  14.966 -0.1147  0.0491  0.0001
 9062W        W27266  11.261   9.558   4.570 -0.1883  0.2363 -0.0303
 9063W        W27267  14.419  11.184   2.260 -0.3171 -0.0975 -0.0773
 9064W        W27268   1.208  11.225   1.377 -0.2893  0.1310 -0.1670
 9065W        W27269   2.025  15.966  14.559  0.3183 -0.1809  0.0676
 9066W        W27270  13.319  11.601   3.805  0.1159 -0.2209 -0.0968
 9067W        W27271   1.353   4.874  12.268  0.1058  0.0956 -0.0336
 9068W        W27272   4.901   7.887  13.244  0.0585  0.0728 -0.2174
 9069W        W27273   5.923   6.689  17.168  0.2459 -0.0434  0.2393
 9070W        W27274  16.089  10.181  14.551  0.0682  0.1935  0.2221
 9071W        W27275   0.482   0.747   4.148  0.1592  0.0235 -0.4581
 9072W        W27276   6.806  14.949  14.592 -0.0615  0.1376 -0.0526
 9073W        W27277   6.135   4.081   0.751  0.1763 -0.1366 -0.1485
 9074W        W27278  10.795  13.788  14.559 -0.0358  0.3749 -0.2141
 9075W        W27279  13.185  14.701  14.436  0.0603  0.1083 -0.1703
 9076W        W27280   5.717   1.515   0.032 -0.0948 -0.0543 -0.1838
 9077W        W27281   8.147  11.820  12.850 -0.0507  0.2338 -0.0840
 9078W        W27282  12.593  11.739   1.067 -0.2499 -0.1386 -0.0522
 9079W        W27283   8.490  13.900  14.704  0.0410 -0.0960  0.1513
 9080W        W27284   7.884  15.421  13.893 -0.0658 -0.3648  0.1408
 9081W        W27285   4.968   6.576   2.399 -0.3781  0.1690 -0.3124
 9082W        W27286  12.506  16.476  12.240  0.0870 -0.0735  0.0677
 9083W        W27287  12.682  15.190  14.084  0.0137 -0.1576 -0.1929
 9084W        W27288  13.050   4.648  16.965 -0.0464  0.2092  0.2228
 9085W        W27289  11.825  11.012   5.063  0.1811 -0.0402  0.0111
 9086W        W27290   4.370  10.774  13.682 -0.1396  0.1538 -0.1922
 9087W        W27291  16.705  13.901  13.370  0.0096 -0.0258 -0.1848
 9088W        W27292  14.815  11.538   3.565  0.1231 -0.1266  0.3184
 9089W        W27293  14.460   8.867  14.578 -0.0843  0.0711  0.0903
 9090W        W27294  17.311  10.160   4.089 -0.0368 -0.1018 -0.1681
 9091W        W27295  12.847   5.025  15.685  0.1707 -0.0607  0.1905
 9092W        W27296   5.457  17.207   4.957  0.2017  0.3165  0.0711
 9093W        W27297  10.818  12.028  15.251 -0.1996 -0.0529  0.0866
 9094W        W27298   9.299   3.935  16.275 -0.1565 -0.1755 -0.0236
 9095W        W27299   4.451  16.547   4.513 -0.5586 -0.2933 -0.0183
 9096W        W27300   5.289   1.930   2.477  0.0211 -0.1470 -0.2149
 9097W        W27301   9.999   9.155   3.014 -0.1090  0.0626  0.3687
 9098W        W27302   6.105   5.536   0.425  0.1659  0.0713 -0.1651
 9099W        W27303  14.133   7.477  12.399  0.2842  0.3175  0.1589
 9100W        W27304   0.453   5.555  15.172 -0.0626  0.1067 -0.0204
 9101W        W27305  11.039   1.365  13.790 -0.0504 -0.0526  0.1336
 9102W        W27306  11.807  13.089   5.419  0.1055 -0.0141  0.3680
 9103W        W27307   9.587   7.521   0.283 -0.0195  0.1601 -0.1623
 9104W        W27308   0.306  10.221  15.025 -0.0413  0.2794 -0.1274
 9105W        W27309   8.279   4.748   0.085  0.1388 -0.1152  0.1957
 9106W        W27310   2.583  12.786   5.209  0.2190  0.0806  0.0646
 9107W        W27311  10.912  10.535  13.179 -0.0343 -0.2365  0.1082
 9108W        W27312   2.211  17.469  14.660 -0.1525 -0.1473  0.2639
 9109W        W27313   4.088   2.402  17.018 -0.2853  0.0361  0.1085
 9110W        W27314   9.913  16.873   6.135 -0.2804  0.1307  0.0639
 9111W        W27315   1.644  12.080   0.109  0.1061  0.1529 -0.0122
 9112W        W27316  17.214  17.154  14.655  0.1011  0.1283  0.0687
 9113W        W27317   3.000   6.934  14.315  0.1025 -0.1515  0.0240
 9114W        W27318  13.229  11.507  11.955 -0.0688  0.1775 -0.0815
 9115W        W27319  11.618   5.602   2.927  0.2980  0.1359  0.1483
 9116W        W27320   9.468   4.121   3.565  0.1119  0.2142 -0.2125
 9117W        W27321   9.311  12.888  17.032 -0.1022  0.1807  0.3646
 9118W        W27322   2.646   8.777  14.213 -0.1616  0.0351 -0.0175
 9119W        W27323  14.214   4.637   3.802  0.2186  0.1296 -0.2129
 9120W        W27324   2.343   8.563  14.603  0.0996  0.0317  0.1108
 9121W        W27325   8.090   3.019  17.087  0.0419 -0.1619  0.2615
 9122W        W27326  16.149   2.173  16.004 -0.2473 -0.0286  0.4810
 9123W        W27327  15.819   3.685  13.143  0.3047 -0.1054 -0.0948
 9124W        W27328   7.569  10.322  16.058  0.3173  0.2609  0.0284
 9125W        W27329  12.015   6.564   1.043  0.0844 -0.0465 -0.0558
 9126W        W27330   1.220   6.417  15.107  0.0046 -0.2388 -0.1704
 9127W        W27331   0.792   1.153   6.145 -0.1885 -0.1574  0.1704
 9128W        W27332   6.479  13.330  14.113  0.1290  0.1156  0.3747
 9129W        W27333  10.733  15.816  16.757 -0.0924 -0.1937  0.1387
 9130W        W27334   6.476  11.128   2.277  0.1287 -0.2911 -0.0066
 9131W        W27335  16.840   3.697  16.654 -0.4663 -0.3263  0.0532
 9132W        W27336  12.351   9.378   2.452  0.0471  0.1435 -0.2870
 9133W        W27337   1.185   1.788   2.294  0.0078 -0.1770 -0.1559
 9134W        W27338   0.661   8.043  13.799 -0.2825 -0.1275 -0.2315
 9135W        W27339   7.494   6.142  14.038 -0.0638  0.0775 -0.0120
 9136W        W27340   7.281  10.472  16.933 -0.1753 -0.0357 -0.0257
 9137W        W27341  16.472  16.091  16.655  0.7667 -0.2956 -0.0089
 9138W        W27342   0.602   3.516  11.979  0.1569  0.1444  0.2790
 9139W        W27343   0.031  15.323  16.445 -0.0842 -0.1304 -0.1798
 9140W        W27344  14.548   6.070   0.214 -0.2195  0.1003 -0.2608
 9141W        W27345   4.502   8.235   4.148  0.0702  0.1358 -0.0587
 9142W        W27346  17.406   8.272   4.709 -0.1612 -0.0625  0.0228
 9143W        W27347   3.824   1.584   2.076 -0.0019  0.0456  0.0986
 9144W        W27348   6.034  12.582   5.107 -0.2216  0.2403  0.1528
 9145W        W27349   8.932   4.292   4.962  0.1155 -0.0840 -0.1893
 9146W        W27350  15.888   7.770  17.221  0.1627 -0.0222 -0.2096
 9147W        W27351   1.486   6.235  14.690  0.0352  0.2255  0.0277
 9148W        W27352  10.566   5.389  13.774 -0.1111 -0.0692 -0.3439
 9149W        W27353   2.615  10.202   3.841 -0.0318 -0.0847  0.1785
 9150W        W27354  15.750  13.378  14.052 -0.1599 -0.0745  0.0249
 9151W        W27355  14.467   5.924   5.123 -0.2423 -0.0229 -0.0487
 9152W        W27356   6.228   4.700  14.733 -0.0143  0.1882 -0.0115
 9153W        W27357  10.285  14.334   3.142  0.3812 -0.2901  0.0183
 9154W        W27358  15.160  11.448  13.369 -0.0617 -0.0529 -0.1664
 9155W        W27359   0.042   9.341  15.144 -0.3809  0.1252 -0.1087
 9156W        W27360  13.464  13.851  15.405  0.1511  0.0291  0.2396
 9157W        W27361   0.921  11.461   4.156 -0.1958 -0.0056 -0.1369
 9158W        W27362   8.354   8.988   2.497  0.3004 -0.0847  0.1769
 9159W        W27363   6.328   1.582  16.447  0.1660  0.2334 -0.1039
 9160W        W27364   4.339   1.962   2.628  0.1414 -0.3785 -0.2945
 9161W        W27365  12.487  16.253  13.884  0.1692  0.0472 -0.1082
 9162W        W27366   8.323   7.594  16.222 -0.4243  0.0668 -0.2681
 9163W        W27367  16.782  11.749   4.521  0.0220  0.0190 -0.0244
 9164W        W27368   3.357   3.431  14.439 -0.2101  0.2138  0.1985
 9165W        W27369  12.597   5.107   1.077 -0.1249 -0.1436  0.0861
 9166W        W27370  15.196   7.084   2.232  0.1482  0.1867  0.0176
 9167W        W27371   2.856   7.564   2.413  0.0606 -0.1844 -0.1617
 9168W        W27372  14.788   2.989  16.914  0.0388  0.0499  0.0722
 9169W        W27373   9.032  16.196   2.496 -0.0155  0.1173  0.0050
 9170W        W27374  13.429   4.463   0.571 -0.0776  0.2384 -0.1264
 9171W        W27375  13.359  11.556   0.003 -0.3993 -0.0162  0.1465
 9172W        W27376  13.964   1.734  16.827 -0.3221 -0.2276  0.0628
 9173W        W27377  11.167   8.646   3.549  0.0082  0.0888  0.0426
 9174W        W27378   6.823   6.350  13.259 -0.2083 -0.3241  0.0686
 9175W        W27379   0.848   0.844  13.137 -0.2009 -0.2559 -0.0851
 9176W        W27380  16.827   4.302  13.618 -0.2829  0.1076 -0.0212
 9177W        W27381  12.181  14.536   4.884  0.0896  0.1459  0.2416
 9178W        W27382   4.777   1.336  11.739 -0.2739 -0.0655 -0.1048
 9179W        W27383   7.968  16.101   0.775 -0.0939 -0.1671 -0.1027
 9180W        W27384  17.082   2.570  13.999  0.0074  0.0057  0.0390
 9181W        W27385  13.607   8.079  12.198  0.1466  0.4393 -0.1541
 9182W        W27386  14.839   6.338  16.603 -0.1496  0.0738  0.0429
 9183W        W27387   5.701   5.689  14.324 -0.2577  0.3494 -0.1372
 9184W        W27388   0.065   3.266  13.628  0.1693 -0.1876 -0.1785
 9185W        W27389  16.360   8.854  13.383 -0.0463  0.1741  0.2047
 9186W        W27390   0.881   7.955   3.067  0.0173  0.3691  0.2657
 9187W        W27391  15.311   3.450  14.395  0.1526 -0.0174  0.1422
 9188W        W27392   3.549   2.537   4.100 -0.0582  0.1919 -0.1610
 9189W        W27393   7.522  15.933   0.907 -0.0612  0.0944  0.1421
 9190W        W27394  13.561  10.976   0.569  0.0483 -0.0294 -0.1380
 9191W        W27395  16.921  13.164  12.496 -0.1843 -0.0213  0.2451
 9192W        W27396  17.428   2.975  13.252 -0.4133  0.1696 -0.2163
 9193W        W27397  14.375   7.986   1.647 -0.2748 -0.1828 -0.1463
 9194W        W27398   0.937   5.035  16.696 -0.0004  0.0576 -0.0596
 9195W        W27399   0.863   7.773  15.125  0.0654 -0.2473 -0.0615
 9196W        W27400  10.151  16.896   1.512  0.0410  0.2526 -0.1745
 9197W        W27401   9.725  15.659  12.648 -0.1025  0.2254  0.1312
 9198W        W27402  13.602   3.713   0.001  0.0517  0.2391  0.2609
 9199W        W27403   5.836   4.362   2.837  0.4234  0.1179  0.0347
 9200W        W27404   8.269  14.353   1.064  0.0888  0.3436  0.0479
 9201W        W27405  16.920   4.961   3.179  0.1023  0.0632  0.1275
 9202W        W27406   8.623   7.741  13.596 -0.1234 -0.0663  0.0363
 9203W        W27407   6.023  15.389  16.672  0.1558  0.1487  0.0138
 9204W        W27408  10.532   0.655  15.474 -0.2268  0.0161  0.0104
 9205W        W27409  14.088   6.219   3.138  0.0189  0.0719 -0.1624
 9206W        W27410   0.432   6.645  14.016  0.2295 -0.3936  0.1308
 9207W        W27411   6.830   2.857  14.935  0.0344 -0.2001 -0.0181
 9208W        W27412   9.590  12.154  16.745  0.3504  0.0702  0.1768
 9209W        W27413   5.021   6.040  14.253 -0.0399  0.1700 -0.0952
 9210W        W27414   7.938   3.296  16.207 -0.1473  0.0801  0.0169
 9211W        W27415   9.248  14.891   4.664  0.3685 -0.0136  0.6696
 9212W        W27416   3.392   3.942  14.339  0.1320  0.0938 -0.0953
 9213W        W27417  15.376  14.222   0.825  0.1479  0.1408 -0.4150
 9214W        W27418   3.503   7.692  17.106  0.5222  0.1741 -0.1445
 9215W        W27419   5.814   8.801  11.590  0.1984  0.2676  0.4268
 9216W        W27420   2.908  15.330  16.658  0.0944 -0.0971 -0.2491
 9217W        W27421   9.606   9.759   3.660  0.1537 -0.1249  0.1284
 9218W        W27422   4.202  10.612  16.361 -0.3292 -0.1355 -0.2315
 9219W        W27423  10.722  14.703   1.753 -0.0460 -0.0665 -0.1752
 9220W        W27424   6.259   1.548  13.866 -0.2900  0.0206  0.2234
 9221W        W27425  11.809  16.852   5.672 -0.0809  0.0064  0.4018
 9222W        W27426   8.126  13.995   4.194  0.1212 -0.0914  0.1790
 9223W        W27427   7.906  14.130  16.040  0.3601 -0.2357  0.0360
 9224W        W27428   3.644   0.092   2.966 -0.1572 -0.0847 -0.2275
 9225W        W27429   3.946   7.064   3.105  0.0656  0.0788  0.0306
 9226W        W27430   9.770  11.836   5.091 -0.0583 -0.1301 -0.0792
 9227W        W27431  16.878   9.249   3.666 -0.2369 -0.0294 -0.2401
 9228W        W27432  14.538   5.347   0.834 -0.3211 -0.0001  0.1449
 9229W        W27433  17.450  13.280  13.827 -0.1276  0.1521 -0.2114
 9230W        W27434  12.927   6.996   2.767 -0.1428 -0.1264 -0.0018
 9231W        W27435   3.926   4.641   5.355  0.3423  0.2413  0.0373
 9232W        W27436  12.067   2.847   4.862  0.1012 -0.1386 -0.0371
 9233W        W27437   8.033  11.028   3.717 -0.0503  0.0446 -0.0400
 9234W        W27438   8.296   2.778   2.881  0.0534 -0.3144 -0.0383
 9235W        W27439   5.597   6.647   1.001 -0.0481 -0.1303 -0.1975
 9236W        W27440   2.807   2.311  16.041 -0.0342  0.1886  0.0891
 9237W        W27441   5.870  15.970   1.532 -0.0864  0.0235  0.0571
 9238W        W27442   8.176  13.950  16.492 -0.0807 -0.0012  0.1366
 9239W        W27443   5.608  11.975   2.289  0.0462 -0.3442 -0.1931
 9240W        W27444   8.225  13.673  12.265 -0.1946  0.1483  0.0884
 9241W        W27445   2.406  17.463  13.199  0.1374  0.3922 -0.0602
 9242W        W27446   0.096   8.846  12.828  0.0355  0.1602 -0.2594
 9243W        W27447  11.518  15.478  13.837  0.1052 -0.2342  0.1488
 9244W        W27448   6.953  14.990   2.596  0.1069  0.0544 -0.1938
 9245W        W27449   6.370   1.051   2.286 -0.2701 -0.3649  0.1466
 9246W        W27450   0.864   3.783   4.450 -0.0233  0.0354  0.1940
 9247W        W27451   6.049  14.315   0.822  0.0515 -0.0737  0.0100
 9248W        W27452   0.082   7.424  17.113 -0.1521 -0.2275 -0.0139
 9249W        W27453   9.793   3.680  17.187 -0.2106  0.2847  0.3370
 9250W        W27454  15.721  17.413  17.012 -0.1279 -0.3356  0.2166
 9251W        W27455  16.238   1.215  13.095  0.1059 -0.2654 -0.2593
 9252W        W27456   7.336  13.232   1.234  0.0583  0.1862 -0.0132
 9253W        W27457  14.271  15.106  13.225  0.0726 -0.1982  0.1766
 9254W        W27458   9.645  10.648   3.409  0.2466  0.2527  0.0697
 9255W        W27459   4.174   4.831  15.036 -0.0020  0.0603  0.0937
 9256W        W27460   4.361  11.718   3.698  0.4530 -0.0901 -0.0252
 9257W        W27461   3.643   5.931   1.018  0.2037 -0.2244  0.2239
 9258W        W27462  13.479   8.624  12.324  0.0121  0.3753 -0.2363
 9259W        W27463   0.487  15.154  16.206 -0.1298 -0.0390  0.0788
 9260W        W27464   6.474   6.669   4.770  0.0687 -0.1664  0.1157
 9261W        W27465  16.724  10.672   4.077  0.1996  0.2052 -0.0401
 9262W        W27466   3.472   1.683  12.079 -0.0382  0.0565 -0.2358
 9263W        W27467   6.134  12.996  13.820 -0.0207 -0.0343 -0.2495
 9264W        W27468  12.144   5.081   1.781 -0.0235  0.0785 -0.0849
 9265W        W27469  14.918  10.648  16.606 -0.0626  0.0371 -0.2276
 9266W        W27470  14.084  16.494   2.123  0.1951 -0.1556  0.2114
 9267W        W27471   0.929  17.140   1.965 -0.1672 -0.0159 -0.0149
 9268W        W27472   6.558  12.042   4.086  0.3210 -0.1755 -0.1474
 9269W        W27473  16.556  12.493   5.495  0.0670  0.0176  0.0369
 9270W        W27474  12.707  16.108   1.144  0.1420 -0.1530  0.0711
 9271W        W27475  13.700   3.799  12.491 -0.3189 -0.0407  0.0940
 9272W        W27476  13.479  17.425   0.779  0.2195  0.1354 -0.1206
 9273W        W27477   5.887   6.841  13.470  0.0100 -0.1066  0.4053
 9274W        W27478   0.013  14.132   4.883 -0.3300  0.0089 -0.1298
 9275W        W27479  10.004   0.322  16.699  0.0959  0.1711  0.0130
 9276W        W27480   8.388  17.243   2.506 -0.2217 -0.4351  0.2876
 9277W        W27481   1.543  16.810  14.991  0.1835  0.1677 -0.3269
 9278W        W27482   6.821  13.871  15.854 -0.0588 -0.0016 -0.3276
 9279W        W27483   6.243   9.617  14.003  0.2076 -0.3538 -0.1548
 9280W        W27484   0.057   5.215   3.743  0.1453  0.1328  0.4421
 9281W        W27485   3.316   1.953   0.595 -0.0190  0.0817 -0.1659
 9282W        W27486  11.725   2.547   5.041  0.1682 -0.0836 -0.1179
 9283W        W27487   6.720  12.179   3.164 -0.1853 -0.0109  0.1259
 9284W        W27488  10.662   2.208  15.817 -0.2201  0.0426 -0.0972
 9285W        W27489   6.686  16.944  11.949 -0.3386  0.0424  0.0096
 9286W        W27490   1.871  11.318  14.040  0.0410 -0.0687  0.0948
 9287W        W27491   4.023  13.509   2.642 -0.1537  0.0202 -0.2252
 9288W        W27492   2.338   9.994  13.778  0.3554 -0.2757 -0.3257
 9289W        W27493  14.814   8.268   5.178 -0.0910  0.2675 -0.0254
 9290W        W27494   6.408   8.558  16.268 -0.2843  0.0318  0.3594
 9291W        W27495   4.019   6.957   4.833  0.1550 -0.2442  0.0728
 9292W        W27496  16.766  16.017   3.102 -0.0844 -0.1318  0.1860
 9293W        W27497  16.104   5.060  12.373  0.0011  0.1775 -0.0874
 9294W        W27498  13.787   2.734   2.013  0.0125  0.0032  0.3962
 9295W        W27499  10.763   2.321  11.614  0.0380 -0.1330  0.1452
 9296W        W27500   3.503  16.243  12.380 -0.0710 -0.2633 -0.1265
 9297W        W27501  11.329   9.982  14.851 -0.0086 -0.3500  0.0604
 9298W        W27502   4.766   0.364   2.820  0.2682  0.1554 -0.3033
 9299W        W27503  15.966  11.597  13.485 -0.2356 -0.1998 -0.0512
 9300W        W27504  15.858   1.266   0.190  0.2137 -0.0879 -0.1615
 9301W        W27505   6.646   9.283  13.577 -0.0698 -0.0438  0.0814
 9302W        W27506   1.009  16.787   3.003 -0.1651  0.0894  0.2715
 9303W        W27507   0.446  16.986  16.979  0.0265  0.1347  0.0488
 9304W        W27508  11.294   2.621   3.881 -0.0150  0.2341  0.2207
 9305W        W27509  13.489   9.086   4.625 -0.0446 -0.0862 -0.0361
 9306W        W27510   0.302   6.932   4.258  0.2218  0.2258 -0.0571
 9307W        W27511   4.299   5.181   3.913  0.4493 -0.1700  0.1301
 9308W        W27512  16.875  11.348  15.396  0.0082  0.2315 -0.0144
 9309W        W27513   5.178  14.728   2.838  0.1108  0.3166  0.0468
 9310W        W27514  14.367   8.825   1.714  0.5213 -0.0930 -0.1359
 9311W        W27515   1.794   8.214  15.263 -0.2549 -0.1984 -0.1238
 9312W        W27516   1.438  14.086   1.790  0.2799  0.2685  0.3426
 9313W        W27517  16.910   0.148   4.456  0.0666  0.1301  0.0806
 9314W        W27518   1.005  16.317   2.851  0.0350 -0.0407  0.2953
 9315W        W27519  13.547  16.000  12.897 -0.0151  0.1256 -0.0921
 9316W        W27520   2.587  12.875  12.309  0.0196  0.2777 -0.0347
 9317W        W27521   2.802  15.168   2.039  0.1869 -0.2207  0.1794
 9318W        W27522   3.927   0.646  12.873 -0.0539  0.1360  0.4387
 9319W        W27523  14.843   7.930  17.224  0.2763  0.0396  0.0827
 9320W        W27524  10.472   2.461  12.789  0.3969 -0.1943  0.0181
 9321W        W27525   3.748  14.109  17.065 -0.1506 -0.2180  0.0469
 9322W        W27526   3.017  10.747  12.216  0.2804 -0.0382 -0.0808
 9323W        W27527  16.083   1.916   3.613 -0.1137 -0.1272  0.3125
 9324W        W27528   3.714  10.927  14.139  0.0260 -0.4172 -0.3261
 9325W        W27529   5.529  11.652   0.532  0.0325  0.1510  0.0658
 9326W        W27530   2.631  17.046  15.546  0.0594  0.2493  0.1125
 9327W        W27531   3.663   5.398   0.266 -0.4532 -0.4183  0.0297
 9328W        W27532   9.372  14.392   4.393  0.1044 -0.3446 -0.0797
 9329W        W27533  11.307   5.570  16.584  0.1382 -0.2391 -0.0535
 9330W        W27534   0.776   7.554   2.318  0.1043  0.3149  0.0496
 9331W        W27535   5.152   5.031   0.580  0.2159  0.2271 -0.2597
 9332W        W27536   4.382   7.291  16.900  0.0419  0.0868  0.0451
 9333W        W27537   5.165   7.636   3.098  0.0240 -0.0439 -0.2259
 9334W        W27538   2.302   4.925  16.390 -0.1817 -0.2553 -0.0178
 9335W        W27539  17.352  14.706  13.183 -0.2451  0.0780 -0.3611
 9336W        W27540  15.503   1.201   3.803  0.0760  0.0022  0.1906
 9337W        W27541   6.899   7.318   1.201 -0.0498  0.1687  0.2856
 9338W        W27542   9.019   1.098  14.605  0.0788 -0.3795  0.0555
 9339W        W27543   9.704  11.972   2.188 -0.1295  0.0424  0.0363
 9340W        W27544   0.917  10.854  13.519  0.2692  0.1483  0.0729
 9341W        W27545   2.977   2.191  12.510 -0.2518  0.0148 -0.4296
 9342W        W27546   9.349   5.813   3.573  0.0050  0.1432 -0.0992
 9343W        W27547   2.630  10.062  16.222 -0.2352  0.1852 -0.0362
 9344W        W27548   3.941   6.976  13.047  0.0357  0.0583  0.0363
 9345W        W27549   0.984   4.718   6.349  0.0149 -0.0404  0.1572
 9346W        W27550  16.819   1.411   0.703  0.0976 -0.1030 -0.2285
 9347W        W27551  13.463  12.735  14.456 -0.1122  0.0333 -0.0416
 9348W        W27552   4.745   0.387  12.897  0.0087  0.0742 -0.0226
 9349W        W27553  14.861   0.172   2.020  0.4629 -0.0389 -0.0386
 9350W        W27554  12.156   3.192  14.624  0.1693 -0.2812  0.0092
 9351W        W27555  11.779  13.960  16.768  0.0578  0.0864 -0.1072
 9352W        W27556  12.467  13.241  11.547 -0.0372 -0.0733  0.1122
 9353W        W27557   5.140   8.843  12.243  0.1665 -0.2141  0.1949
 9354W        W27558   9.340  14.452   2.947 -0.1251 -0.0119 -0.0815
 9355W        W27559   3.473  14.665  15.343  0.1290  0.0093 -0.1918
 9356W        W27560   4.158   6.734   0.479  0.0704  0.0293  0.1032
 9357W        W27561  12.377   8.599  15.724  0.0051 -0.2672  0.0716
 9358W        W27562   6.279   1.965   0.384  0.1939 -0.0120 -0.1476
 9359W        W27563  13.689   9.973  15.290 -0.0817 -0.0494 -0.0788
 9360W        W27564   9.298   4.648   3.487 -0.1094 -0.0593 -0.1213
 9361W        W27565   2.307  15.198  14.280  0.0088  0.0260 -0.0548
 9362W        W27566  13.854   4.817  14.488  0.0463  0.2780 -0.0115
 9363W        W27567   3.849   7.659   2.327  0.3596 -0.0077 -0.0199
 9364W        W27568  17.062   3.189   5.687 -0.4041  0.0473 -0.0722
 9365W        W27569  12.448   6.084   2.661  0.1432 -0.4046  0.1402
 9366W        W27570  17.191  14.625   4.237  0.4028  0.1073  0.0026
 9367W        W27571   7.517   7.929  16.184  0.1346  0.2639 -0.1428
 9368W        W27572   1.246   8.356  12.210 -0.2414 -0.0376 -0.1756
 9369W        W27573   5.545  14.947   1.854 -0.0974 -0.0189  0.0398
 9370W        W27574   2.272  13.089   1.865 -0.0892 -0.0104  0.1617
 9371W        W27575   4.604   3.334  16.012 -0.1205  0.0034 -0.2568
 9372W        W27576  10.340  15.789  12.726 -0.0420 -0.1207 -0.0230
 9373W        W27577   5.938  13.702   3.670 -0.1281  0.1209  0.2002
 9374W        W27578   5.621  14.545   3.074 -0.0580 -0.2014 -0.0795
 9375W        W27579  10.913  12.020   3.272 -0.1510 -0.3621 -0.0209
 9376W        W27580  15.945  10.151  13.109 -0.0278  0.0211  0.0191
 9377W        W27581   0.169   1.053   3.919 -0.0857  0.0988 -0.1814
 9378W        W27582  14.614   7.338  17.265 -0.2263  0.2622 -0.3270
 9379W        W27583  16.010  12.258  16.724 -0.0854 -0.1790  0.1975
 9380W        W27584   5.876   7.128  13.053  0.2871  0.0034 -0.2602
 9381W        W27585  14.650   6.981  13.974 -0.0432  0.1235 -0.1049
 9382W        W27586   1.205  15.159   0.410 -0.0466 -0.0937  0.0442
 9383W        W27587   7.941   5.394  14.868  0.2305  0.0966 -0.0132
 9384W        W27588   4.417  14.108   3.508 -0.1111 -0.4155  0.0364
 9385W        W27589   8.863  11.743   2.182  0.1656 -0.0516 -0.2918
 9386W        W27590  14.062   0.332   1.663 -0.0562  0.1404  0.3272
 9387W        W27591   7.848   7.349  13.054 -0.1296  0.1689  0.5034
 9388W        W27592   8.914   1.475   1.803  0.0923  0.0613 -0.2343
 9389W        W27593  14.897   4.971   0.668  0.4263  0.0261  0.1548
 9390W        W27594  11.798   3.640  12.488  0.1314  0.0753 -0.0902
 9391W        W27595  10.183  10.652  13.878  0.1193 -0.2231  0.2596
 9392W        W27596  12.571  14.062   3.457 -0.0510  0.4019  0.0317
 9393W        W27597   2.749   4.874   3.638  0.3774 -0.4781 -0.2290
 9394W        W27598  11.530  15.412  12.473  0.1189  0.4306 -0.0590
 9395W        W27599   7.255  16.423   1.967 -0.0422 -0.2570 -0.5006
 9396W        W27600  13.068   4.224  15.310  0.2613 -0.0576 -0.1603
 9397W        W27601  11.611  17.028   5.195 -0.0465 -0.3331 -0.0811
 9398W        W27602  15.268   9.361  14.641  0.1037  0.3446  0.1708
 9399W        W27603   4.215  15.965  13.537 -0.3413  0.2239  0.0552
 9400W        W27604  14.190   3.432  13.324 -0.2024  0.1398  0.0679
 9401W        W27605  14.128  15.541  16.140 -0.0589 -0.0632 -0.1981
 9402W        W27606   6.837   8.006   2.582  0.1676 -0.2330 -0.2229
 9403W        W27607  12.202  13.343   2.990 -0.0489  0.0209  0.0376
 9404W        W27608  15.276  15.661   2.543 -0.2305 -0.2226 -0.2525
 9405W        W27609  13.210   6.367  13.621  0.1652 -0.0725 -0.0170
 9406W        W27610   8.114   2.669  15.576 -0.2135 -0.0560 -0.3089
 9407W        W27611   3.511   2.885   4.965 -0.0182 -0.0222  0.0571
 9408W        W27612   7.561  11.193   3.921 -0.0232 -0.0408 -0.2217
 9409W        W27613  14.001   4.888   2.737 -0.0320  0.1956 -0.1086
 9410W        W27614   8.554  12.700  13.310 -0.3541 -0.0002  0.0526
 9411W        W27615  15.675   3.626   5.006  0.1196  0.1051 -0.3365
 9412W        W27616   3.351  14.946   2.700  0.0581 -0.3113  0.3178
 9413W        W27617   0.765  14.851   2.931  0.1848 -0.0646 -0.2171
 9414W        W27618  11.003   4.239  12.793  0.0858 -0.2537  0.0792
 9415W        W27619  13.276   0.643  13.323 -0.1338  0.1553 -0.0625
 9416W        W27620  16.388   8.759  14.905  0.1309  0.2526  0.2268
 9417W        W27621   3.199   6.311   2.908  0.0940  0.0967 -0.1570
 9418W        W27622  16.570  10.252   0.040  0.0938 -0.1524  0.3172
 9419W        W27623   3.961  15.467  14.464 -0.2159  0.5570  0.2260
 9420W        W27624   4.443  14.796   4.844 -0.1041  0.0946 -0.1190
 9421W        W27625   0.375   4.673   1.317  0.0428  0.0017 -0.1894
 9422W        W27626   8.405   5.575  13.178  0.1047  0.0798 -0.0176
 9423W        W27627   1.042  13.019   0.519  0.2028 -0.2752  0.1028
 9424W        W27628   0.564  14.063  15.237  0.2944 -0.0195 -0.0321
 9425W        W27629   1.434  10.960   3.862  0.3240  0.0149  0.0892
 9426W        W27630   7.370  13.217   4.633  0.2384  0.0653  0.0439
 9427W        W27631  13.472  14.204   3.550  0.0209  0.0400  0.1087
 9428W        W27632   2.803   0.600   0.189  0.1460  0.1461 -0.2506
 9429W        W27633  12.580  11.294  15.628 -0.3707  0.2828 -0.1917
 9430W        W27634   8.181  11.831   3.133 -0.1228  0.3856  0.1608
 9431W        W27635   9.596   5.326  14.839 -0.1095 -0.2085 -0.0147
 9432W        W27636   2.146   3.398  15.896 -0.1162  0.0991  0.0214
 9433W        W27637  15.748  16.712   3.432  0.1534 -0.1415 -0.3251
 9434W        W27638   4.829   9.932   2.434  0.1614 -0.0008 -0.0476
 9435W        W27639   7.952  10.952  17.075 -0.0511  0.0118 -0.2496
 9436W        W27640   8.197   0.081   3.305 -0.3051  0.1441 -0.0955
 9437W        W27641   5.391  13.684   2.647  0.3150  0.2371 -0.1541
 9438W        W27642   6.057  17.429  17.104 -0.2550 -0.0225 -0.0607
 9439W        W27643  11.387   1.778   2.230 -0.2731  0.1198 -0.0688
 9440W        W27644   3.332  12.912   5.408 -0.3034  0.0828  0.0848
 9441W        W27645   4.010   2.633   4.296 -0.1101  0.0608 -0.1032
 9442W        W27646   6.229   4.357  13.411 -0.1095 -0.1824 -0.1087
 9443W        W27647  12.776  16.456  14.772  0.2608  0.0105 -0.0008
 9444W        W27648   3.223   3.697  17.255 -0.0059 -0.2979 -0.0552
 9445W        W27649  10.271   2.178   4.047  0.3121  0.1056 -0.0774
 9446W        W27650   9.470   8.051   1.174 -0.2550 -0.0849 -0.1085
 9447W        W27651   9.408  13.123  13.129 -0.2051  0.3245 -0.0658
 9448W        W27652  10.644  12.562  17.198 -0.0286  0.0905  0.2166
 9449W        W27653  14.494  16.943  16.854  0.3117  0.1134  0.2511
 9450W        W27654  13.007  14.568  13.485  0.2015  0.0376 -0.0629
 9451W        W27655   3.285  12.210   3.639 -0.2162  0.1796  0.2960
 9452W        W27656  12.361   7.537   1.441 -0.1427  0.0749 -0.0801
 9453W        W27657   9.336  10.744  14.533  0.0383  0.0179 -0.2684
 9454W        W27658   4.105   2.565   3.086  0.0021  0.0119 -0.2271
 9455W        W27659  14.006   4.341  13.524 -0.2375 -0.0864  0.2135
 9456W        W27660   6.497   0.660  16.865 -0.0642 -0.1873  0.1029
 9457W        W27661   5.683   0.420   0.734  0.0145  0.1071 -0.0403
 9458W        W27662   2.113  13.415   0.136  0.3174  0.3329 -0.1520
 9459W        W27663   6.183  11.344  15.438 -0.0312  0.1353  0.2080
 9460W        W27664  17.100  13.790   4.903  0.2225 -0.0898  0.0625
 9461W        W27665  10.723   5.679  13.344 -0.1088 -0.1579 -0.1867
 9462W        W27666   7.764  13.886  12.057  0.0647  0.1234 -0.0671
 9463W        W27667  13.789   5.950  15.733 -0.1863  0.0078 -0.2002
 9464W        W27668  15.413  13.432   1.982 -0.1397  0.0900  0.0382
 9465W        W27669   0.265  12.105   4.185  0.3473 -0.1056 -0.2682
 9466W        W27670  10.485   7.295  12.158  0.1880  0.0480 -0.1470
 9467W        W27671   8.225  11.390  12.523  0.3272 -0.2580 -0.0373
 9468W        W27672   1.914   1.211   1.788 -0.0969  0.0535  0.1442
 9469W        W27673   1.052   3.593  13.272 -0.1848 -0.1038  0.2130
 9470W        W27674   1.164  15.148   3.146  0.1180 -0.2137  0.0129
 9471W        W27675   7.551  10.305   3.893  0.0599 -0.2281  0.2057
 9472W        W27676   8.116   7.709   5.011 -0.3329 -0.0111  0.0747
 9473W        W27677   3.761   6.010  15.398  0.2251 -0.0254 -0.2811
 9474W        W27678   2.787  14.493   4.103 -0.3090 -0.1092  0.2006
 9475W        W27679  17.008   6.207  16.642  0.1660  0.1905  0.1282
 9476W        W27680   3.781  13.678  13.164 -0.2064  0.0816 -0.1735
 9477W        W27681  16.740  11.214  11.782  0.1798  0.3216  0.1552
 9478W        W27682  17.354   4.027   2.897 -0.0941  0.1201 -0.0027
 9479W        W27683   4.659   7.731   1.290  0.2256 -0.0168 -0.1935
 9480W        W27684   8.220   3.314   4.890 -0.1867 -0.0360  0.1960
 9481W        W27685  10.895  16.546  14.924 -0.1296 -0.0819 -0.0858
 9482W        W27686   1.374  12.319   2.484 -0.2774 -0.3159  0.0475
 9483W        W27687   5.408   6.815   3.229 -0.3171  0.0279 -0.0016
 9484W        W27688  14.957   1.380  15.013  0.1631 -0.1739 -0.0254
 9485W        W27689   8.446   3.391   4.460 -0.2208  0.3208  0.2221
 9486W        W27690  16.739   5.263  14.531 -0.0786  0.0467  0.0499
 9487W        W27691  15.867   9.843   0.371  0.5719  0.1121 -0.2813
 9488W        W27692   8.062  11.295   0.475 -0.1971 -0.0732 -0.3337
 9489W        W27693  14.985   9.103   3.492  0.1812  0.2559  0.0991
 9490W        W27694   9.773   9.309   1.094 -0.0565 -0.0380 -0.1202
 9491W        W27695   2.678  13.609  12.048 -0.2575 -0.0712 -0.3760
 9492W        W27696   0.179   5.022   3.311 -0.0667 -0.1145  0.0320
 9493W        W27697  16.741   8.140  12.510 -0.1846  0.1201  0.0483
 9494W        W27698  10.500   2.403  14.867 -0.0119  0.0407  0.1319
 9495W        W27699  12.717   5.516   1.710  0.0010  0.0556 -0.0709
 9496W        W27700  11.909   1.523  12.551  0.1076 -0.0221  0.1486
 9497W        W27701   1.377   6.667   0.532 -0.0619  0.0121 -0.0728
 9498W        W27702   9.572   1.767  15.978 -0.2313  0.3803 -0.0109
 9499W        W27703  16.595   2.837  12.867 -0.1000  0.0907  0.0562
 9500W        W27704   1.860  11.298   4.564  0.1155 -0.1169  0.2456
 9501W        W27705   0.640   3.251  13.552  0.1106 -0.2461 -0.2275
 9502W        W27706  12.235   8.501   3.326 -0.0823 -0.0633 -0.1196
 9503W        W27707   0.668  12.892  14.545 -0.2085  0.0629  0.0251
 9504W        W27708   2.861  15.730   4.284  0.1773  0.0651 -0.0570
 9505W        W27709   2.549   0.497   2.054 -0.2581  0.2407  0.3532
 9506W        W27710  14.187   3.215  16.745 -0.4764  0.1917  0.1432
 9507W        W27711  10.524   5.867  16.319  0.1287 -0.0351 -0.2451
 9508W        W27712   7.171   0.475   5.156  0.3713  0.0465 -0.0214
 9509W        W27713   2.303   8.394  15.183 -0.0931  0.0180 -0.0244
 9510W        W27714  10.326  11.062  14.511  0.2388  0.0079 -0.0487
 9511W        W27715  12.914   4.989   4.448 -0.0553 -0.0484  0.1783
 9512W        W27716  12.739   6.585  12.573 -0.0032 -0.0340 -0.1244
 9513W        W27717  15.694  14.501   4.326 -0.0440  0.3118 -0.1189
 9514W        W27718   7.374   4.770  17.017  0.2800 -0.0608 -0.0866
 9515W        W27719   5.659   8.353  15.315 -0.3582  0.3542 -0.0593
 9516W        W27720   3.798   3.532  11.985  0.4559  0.3301  0.1671
 9517W        W27721  10.695   4.536   4.667 -0.1486  0.1552 -0.1461
 9518W        W27722  14.294   9.624   0.941 -0.1316 -0.2065  0.1381
 9519W        W27723   4.628  12.375   4.184 -0.1753 -0.1754  0.0573
 9520W        W27724  11.737  14.274   4.509  0.1831 -0.1594 -0.0897
 9521W        W27725   1.278  14.475  15.186  0.0827  0.0787  0.2185
 9522W        W27726   1.753   3.629  14.791  0.2532  0.1603  0.0454
 9523W        W27727   6.186  12.061   0.002 -0.1961  0.0033  0.1003
 9524W        W27728  10.930   7.081   3.925 -0.1604  0.2246  0.5663
 9525W        W27729   5.553   8.732  12.530 -0.3107 -0.2102 -0.2084
 9526W        W27730   5.981  15.461   1.695 -0.0586 -0.2841 -0.1467
 9527W        W27731  16.163  14.072   2.411 -0.1911  0.0397 -0.2665
 9528W        W27732   1.847   9.733  11.933  0.0577 -0.1950 -0.4919
 9529W        W27733   8.273  14.528   0.347 -0.1696  0.0098 -0.0042
 9530W        W27734   3.170   0.601  12.346  0.3656 -0.1096 -0.0093
 9531W        W27735   6.045  12.443  13.647  0.1507  0.1887  0.2202
 9532W        W27736  16.266  14.752  16.475  0.2023 -0.1903  0.1987
 9533W        W27737  10.422   5.393   2.150 -0.0213  0.0946 -0.2449
 9534W        W27738  16.102  16.926  14.555  0.2177 -0.0986 -0.1496
 9535W        W27739  15.532   4.356   0.457 -0.0905 -0.3236 -0.0191
 9536W        W27740  10.299   5.929   3.122 -0.5196 -0.1868 -0.0107
 9537W        W27741  10.383  12.019  14.820  0.1164  0.0322  0.1689
 9538W        W27742   7.221   8.202   4.980 -0.0572 -0.3451  0.0684
 9539W        W27743   1.219   0.268  16.181 -0.0559  0.0680  0.0699
 9540W        W27744  16.851  14.319  12.412  0.0786 -0.2074  0.1180
 9541W        W27745   4.413   2.029   3.704 -0.0752  0.0804 -0.1722
 9542W        W27746   7.499  17.515  15.548  0.0364  0.1754  0.0346
 9543W        W27747   3.194   8.384   3.439  0.2033  0.2215 -0.0742
 9544W        W27748   7.562   5.185  13.995  0.2517  0.2265  0.2928
 9545W        W27749  14.474   5.161  15.439 -0.0883  0.2250 -0.2163
 9546W        W27750   8.617  16.375  14.133  0.1139  0.1130  0.1751
 9547W        W27751   8.032   4.001  15.781 -0.4856  0.1013  0.4114
 9548W        W27752  14.541  11.905  16.121 -0.0227 -0.1908  0.3046
 9549W        W27753   2.233  16.885   0.218  0.0923 -0.2851 -0.1557
 9550W        W27754   6.263   5.198   2.428  0.1037  0.0797  0.2165
 9551W        W27755   5.420   9.195   4.031  0.0669 -0.0035 -0.3335
 9552W        W27756  17.061  11.314   0.683  0.0805 -0.0460 -0.1452
 9553W        W27757  11.723   2.517   2.899 -0.5231  0.1725 -0.0498
 9554W        W27758  10.717   4.290  15.038  0.1915  0.0837 -0.2338
 9555W        W27759  16.819   9.699  15.842 -0.0423  0.3556 -0.0661
 9556W        W27760  12.960   7.550   2.337  0.0588  0.4313 -0.1446
 9557W        W27761  11.438   1.719  13.808 -0.2812 -0.2498  0.0905
 9558W        W27762   9.967  11.414  14.334 -0.3974 -0.3335 -0.0412
 9559W        W27763  16.987   7.270   0.846 -0.2703  0.1547  0.0382
 9560W        W27764  15.576   0.668  13.585  0.1319  0.0949 -0.1823
 9561W        W27765   7.953  15.947  14.559 -0.0559 -0.3038 -0.2338
 9562W        W27766  10.673   1.927   0.785  0.1150 -0.0278 -0.0192
 9563W        W27767  12.810  13.421  12.561  0.1353  0.0976  0.0166
 9564W        W27768  14.194   2.580   0.798 -0.0287  0.1201  0.0089
 9565W        W27769   7.023   2.018  13.242  0.2253 -0.2018  0.5356
 9566W        W27770   7.562  16.913  16.957 -0.1862 -0.1647  0.1609
 9567W        W27771  10.118   6.935  12.019  0.2312 -0.2582  0.2570
 9568W        W27772   0.889  10.268   1.620 -0.0707 -0.0291 -0.0275
 9569W        W27773   0.816   8.948   2.232  0.1063 -0.1571 -0.2228
 9570W        W27774   3.188  12.471   4.524  0.2092 -0.0834 -0.1293
 9571W        W27775   7.885  16.898   1.902 -0.1308  0.0322 -0.2381
 9572W        W27776  13.207  11.538  13.283 -0.0167  0.0121  0.1930
 9573W        W27777   8.930   4.236  16.172 -0.1344 -0.0287  0.0388
 9574W        W27778   1.525   5.442  13.819  0.0319 -0.0452 -0.1058
 9575W        W27779  16.593   5.779  14.723 -0.0039  0.1559 -0.0232
 9576W        W27780   9.974   2.454  12.843 -0.4544 -0.1631  0.1097
 9577W        W27781  14.987   3.076   0.487 -0.1241  0.1793  0.3594
 9578W        W27782   7.518   3.456   4.140 -0.2025 -0.0141 -0.0009
 9579W        W27783  15.945   3.805   3.803  0.0043 -0.2151  0.0774
 9580W        W27784   5.025   4.287  13.189 -0.0317  0.0677  0.6881
 9581W        W27785  14.529   5.837   5.596 -0.0933  0.0600  0.0042
 9582W        W27786  15.386   9.352  11.582  0.1138  0.3440  0.0679
 9583W        W27787   2.767   0.800   4.255  0.0220 -0.1329 -0.2659
 9584W        W27788   6.513   8.540  15.206  0.1758 -0.0229  0.1923
 9585W        W27789  12.703   4.453   1.597  0.1792  0.2610 -0.0127
 9586W        W27790   4.993  14.444  14.269  0.0294 -0.2145  0.0214
 9587W        W27791   5.239   5.016   3.902 -0.0478  0.1999 -0.1434
 9588W        W27792   2.453  10.658  16.373 -0.1467  0.2768 -0.4376
 9589W        W27793  17.363   5.386   2.178 -0.0724 -0.1058  0.0678
 9590W        W27794   2.561   2.895  16.662 -0.5693  0.0644  0.1066
 9591W        W27795   0.675  15.696   6.763  0.1090 -0.0617  0.2298
 9592W        W27796   8.812   8.641  13.505 -0.3024 -0.0807 -0.0086
 9593W        W27797  17.245   3.321  16.896 -0.0678  0.1553  0.3266
 9594W        W27798   3.650  10.026  15.632 -0.0975  0.0853 -0.0425
 9595W        W27799   2.405   1.968   3.708  0.0109  0.0537  0.0592
 9596W        W27800   8.758   3.065  14.497 -0.1588  0.2139  0.2486
 9597W        W27801   3.832   0.620   0.495 -0.1562  0.1074 -0.2105
 9598W        W27802   8.780  13.059   3.054 -0.2994 -0.0212 -0.1042
 9599W        W27803  10.919  12.651   0.306 -0.1796  0.3035  0.2022
 9600W        W27804   8.356   8.710   1.129 -0.1716  0.3481  0.0236
 9601W        W27805   4.242  14.381  14.969  0.0828  0.1294 -0.3651
 9602W        W27806   0.744  15.154  12.902 -0.0226 -0.0868 -0.2601
 9603W        W27807   8.331   0.306   4.632 -0.1779 -0.2081  0.0039
 9604W        W27808   7.216  14.615   3.643 -0.1837 -0.1968  0.2299
 9605W        W27809  16.348   9.645  17.112 -0.2874  0.1745 -0.1164
 9606W        W27810   4.727  16.300   0.957 -0.1807  0.2289 -0.3414
 9607W        W27811  12.553  11.487  16.376 -0.1771  0.0100  0.1224
 9608W        W27812  10.137   0.796  16.582  0.0496  0.0944 -0.2129
 9609W        W27813   6.880  16.007   1.406 -0.0324  0.0918  0.0377
 9610W        W27814   4.213   8.003   0.220 -0.2939 -0.3181 -0.0374
 9611W        W27815  11.391   5.482   0.594 -0.2377 -0.1875  0.1088
 9612W        W27816  10.356  17.392  16.532 -0.0783  0.2043  0.0704
 9613W        W27817   3.838   9.564  11.862 -0.1604  0.0018  0.0408
 9614W        W27818   4.128  15.076  16.018 -0.0302 -0.2683  0.0244
 9615W        W27819   2.143  16.301   1.444 -0.0468 -0.1185  0.0280
 9616W        W27820   2.222  16.783  16.468 -0.2419 -0.0454  0.4165
 9617W        W27821   2.143  17.018  15.524  0.0820  0.0061 -0.2456
 9618W        W27822   6.834   6.437   0.054 -0.0504  0.1491  0.2158
 9619W        W27823  10.421   2.400  14.224 -0.2890 -0.0509 -0.2796
 9620W        W27824   3.088   5.718  16.210 -0.0482 -0.0979 -0.1500
 9621W        W27825  12.862   6.700   0.464 -0.0182 -0.0724 -0.1583
 9622W        W27826  13.105  12.177   4.694 -0.0413  0.1582 -0.0753
 9623W        W27827  11.879  12.477  16.713 -0.0228  0.0275  0.0282
 9624W        W27828   2.491   0.035   4.930  0.2468  0.1849 -0.1960
 9625W        W27829  16.807   4.932   4.334  0.2034  0.1801  0.1882
 9626W        W27830   4.993   3.697  14.784  0.2477 -0.0965 -0.1892
 9627W        W27831   3.698  17.241   3.877 -0.2132  0.1700 -0.2162
 9628W        W27832  15.157   4.127   3.858  0.0596 -0.1737 -0.0431
 9629W        W27833   3.539  16.882  15.020  0.2123  0.1379  0.0905
 9630W        W27834   6.265  11.871  14.422  0.2637 -0.0954 -0.0055
 9631W        W27835  15.690   9.473   2.759 -0.0516  0.3419  0.0215
 9632W        W27836  13.314   9.191  13.561  0.0810  0.0416  0.2876
 9633W        W27837  12.049  12.586   1.536 -0.0415 -0.0532 -0.0387
 9634W        W27838  12.190   6.837   5.158 -0.2172  0.2040  0.1447
 9635W        W27839  11.459   9.011  15.782  0.0681 -0.1966  0.1983
 9636W        W27840   9.708  13.498   3.023 -0.2617 -0.0688  0.0885
 9637W        W27841   1.514  10.881   3.355 -0.1729 -0.1932 -0.2065
 9638W        W27842  16.787  12.987  16.118  0.2672  0.0727 -0.2258
 9639W        W27843   8.379   9.301   1.629  0.0028  0.1174 -0.0996
 9640W        W27844   8.780  14.556   2.113  0.1754  0.0547  0.1910
 9641W        W27845   4.107   9.142   1.773 -0.0968 -0.0144 -0.3196
 9642W        W27846   3.514  11.771   3.564  0.1771 -0.0900  0.0827
 9643W        W27847   8.924  11.375   2.569 -0.1506  0.3033  0.1718
 9644W        W27848  10.645  13.616  16.632 -0.1572  0.2616  0.2477
 9645W        W27849   9.920   5.948   5.335 -0.1627 -0.1006 -0.2479
 9646W        W27850  13.968   2.747   4.995 -0.3918 -0.0305  0.0235
 9647W        W27851  12.156  14.202  13.633 -0.2431  0.2612  0.0369
 9648W        W27852   7.493  10.514   5.215  0.1434 -0.4599  0.2238
 9649W        W27853   6.730   4.002  12.962 -0.3958  0.0645  0.2679
 9650W        W27854   8.755  16.719  15.882 -0.0144  0.1791  0.1826
 9651W        W27855   7.554  16.450  15.327  0.0279 -0.1767 -0.4253
 9652W        W27856   3.493   3.183   0.541  0.1861 -0.2493  0.1493
 9653W        W27857   6.543   1.980  14.028  0.0704 -0.1727  0.4760
 9654W        W27858  16.516  14.830   2.413  0.0474  0.0522  0.0453
 9655W        W27859   4.577   2.331  12.401 -0.0090  0.1388 -0.1147
 9656W        W27860  11.333   4.673  16.900 -0.1601 -0.1254 -0.2447
 9657W        W27861  15.093  12.278  17.183 -0.2945 -0.0239 -0.4659
 9658W        W27862   6.476   5.653  15.736  0.0380  0.0987  0.4332
 9659W        W27863   1.425  17.301   1.897 -0.0239 -0.0913 -0.0434
 9660W        W27864   0.998  13.206   4.916 -0.0296  0.2617 -0.0098
 9661W        W27865   2.877  17.158   4.779  0.1788  0.4176  0.1264
 9662W        W27866  17.485   7.811  15.351  0.3563 -0.1519 -0.1138
 9663W        W27867  10.263   5.798  15.864  0.1434 -0.1883 -0.0505
 9664W        W27868  14.485  12.482   5.115  0.0447 -0.1730  0.0183
 9665W        W27869  10.197   0.620  15.018  0.3163 -0.1410 -0.4156
 9666W        W27870  13.905  14.319  16.846 -0.0021 -0.0600 -0.0211
 9667W        W27871  15.262   5.618  15.031 -0.0419 -0.0543  0.1378
 9668W        W27872   9.519  15.989  17.266 -0.0939  0.3373 -0.2625
 9669W        W27873  12.863   1.046   1.418  0.0198 -0.0590 -0.1238
 9670W        W27874  11.728   9.658   5.289 -0.0083 -0.2500 -0.0598
 9671W        W27875  10.118   0.327   0.056  0.1180 -0.2261 -0.2735
 9672W        W27876  12.169   5.642   2.880 -0.2855 -0.1850  0.1438
 9673W        W27877  14.844  14.996   6.026  0.2650 -0.0276  0.0435
 9674W        W27878  10.958   1.863  16.415 -0.1152  0.0399 -0.1298
 9675W        W27879  17.333  10.269  13.628  0.1403 -0.0249 -0.1226
 9676W        W27880  15.778   3.070   2.669 -0.2222 -0.1712  0.2135
 9677W        W27881  13.099  11.982  12.004  0.0613 -0.1107  0.0987
 9678W        W27882   0.141   1.656   2.476 -0.0305 -0.2881 -0.0579
 9679W        W27883   1.518  12.562   0.161 -0.2992 -0.0483 -0.0096
 9680W        W27884   5.511   9.819   3.286 -0.0744 -0.2672 -0.1946
 9681W        W27885   9.812   1.965   5.082 -0.2196 -0.2916  0.2112
 9682W        W27886   0.938  15.851   0.117 -0.0345 -0.0432 -0.0997
 9683W        W27887   7.261  13.673   4.276  0.1118 -0.0529 -0.0443
 9684W        W27888   1.457  11.432   4.233 -0.3572  0.1906 -0.1344
 9685W        W27889  11.464   7.663   4.394  0.0674 -0.0276  0.2763
 9686W        W27890  15.723   8.045  14.658  0.0115 -0.1182 -0.1118
 9687W        W27891  14.282  15.691   0.169 -0.0593  0.0598  0.0090
 9688W        W27892  16.946  10.368  17.027 -0.1306 -0.0692 -0.2813
 9689W        W27893   3.362   2.807   2.695 -0.0729  0.0714 -0.2030
 9690W        W27894   8.308   3.327  14.984  0.1694 -0.0762  0.4866
 9691W        W27895   1.983   9.953   0.551  0.2580 -0.5501  0.0533
 9692W        W27896   1.968  14.078  11.930  0.1870  0.2553  0.0088
 9693W        W27897  16.814  11.922  12.942  0.2152  0.2152 -0.0346
 9694W        W27898   3.416   6.794  17.270 -0.0417  0.0752  0.3763
 9695W        W27899   2.856   6.681   4.170  0.2398 -0.0224  0.0797
 9696W        W27900  13.875  15.424  16.745  0.1320  0.0539  0.1951
 9697W        W27901   3.917  14.699   3.490  0.0525 -0.1259 -0.0791
 9698W        W27902  10.083   6.863  14.859  0.1717  0.1922  0.1597
 9699W        W27903   4.731   0.891   3.683 -0.0068 -0.0591  0.2039
 9700W        W27904   4.808   1.307   2.938  0.3775 -0.3884  0.2015
 9701W        W27905   8.399  16.750   5.026 -0.1186 -0.3410  0.1694
 9702W        W27906   4.128   5.614   5.205  0.0759  0.1739  0.0166
 9703W        W27907   6.923   8.729  17.034 -0.1255  0.0092 -0.2216
 9704W        W27908  17.211  10.662  12.321  0.1884 -0.0197 -0.0299
 9705W        W27909   5.980  15.493   3.880 -0.2676 -0.0667  0.1313
 9706W        W27910  17.370   3.864   1.786 -0.2474 -0.2552  0.1252
 9707W        W27911   0.146  14.620  15.710 -0.1793 -0.0145 -0.4498
 9708W        W27912   1.550   4.005   1.927 -0.1025  0.1299  0.2937
 9709W        W27913  12.413  10.852  11.952 -0.0779  0.0679  0.0346
 9710W        W27914  17.429  14.679  14.033 -0.0171 -0.2109  0.3438
 9711W        W27915  14.398   5.905   1.834  0.0201 -0.1509 -0.1526
 9712W        W27916  14.079   8.580   3.451 -0.0226 -0.1751  0.0127
 9713W        W27917   8.802   6.295  13.750 -0.0050  0.0031  0.2403
 9714W        W27918   1.892  13.802  13.906 -0.0125  0.1094 -0.1102
 9715W        W27919  16.417   5.194  13.252 -0.1757  0.0133 -0.3050
 9716W        W27920  15.551  16.747   5.886  0.0427 -0.1405 -0.1861
 9717W        W27921   7.550  11.783   3.771 -0.0877 -0.1204 -0.1047
 9718W        W27922  12.785  10.039   3.782  0.1585 -0.1086  0.2188
 9719W        W27923  12.691   4.168  16.192 -0.0328  0.0138  0.1223
 9720W        W27924  16.320  13.759   5.715  0.1257  0.1178 -0.0999
 9721W        W27925  14.045  15.857   1.616 -0.4499  0.0892  0.0066
 9722W        W27926   3.265  14.348   4.315 -0.1038  0.2099 -0.3572
 9723W        W27927   4.742  12.118  14.442  0.2880 -0.2246  0.1161
 9724W        W27928  11.608  12.993   4.670  0.2314  0.0984  0.1846
 9725W        W27929  16.401   6.706   1.431  0.0005 -0.0996  0.3244
 9726W        W27930   2.594  16.868   3.241 -0.0458 -0.3336  0.1659
 9727W        W27931   1.611  17.068   4.784  0.2143 -0.3596 -0.1023
 9728W        W27932  16.638   2.699   2.180 -0.2480 -0.2143  0.2932
 9729W        W27933   8.458   4.854  16.918 -0.1073 -0.2131 -0.2947
 9730W        W27934   5.879  12.169   2.724 -0.3166 -0.1702  0.0237
 9731W        W27935   7.462   0.840   5.364 -0.0699 -0.0384 -0.1631
 9732W        W27936   2.362  13.450   0.599  0.0282  0.0160  0.3697
 9733W        W27937  13.392   8.942   3.969  0.2708  0.0230  0.2900
 9734W        W27938  11.223   0.298   3.429 -0.3043  0.1618  0.1035
 9735W        W27939  15.361  13.586   1.502 -0.3192 -0.1065  0.1194
 9736W        W27940   6.040  11.366   0.987 -0.2788  0.1828 -0.0843
 9737W        W27941   1.049  17.264  16.066  0.5446  0.1843  0.1672
 9738W        W27942  12.017  16.086  14.939  0.1853  0.0756 -0.3186
 9739W        W27943   0.318   4.990  16.102 -0.0406  0.1001  0.0658
 9740W        W27944  13.213   1.379   1.493  0.1735 -0.3010 -0.2235
 9741W        W27945  14.492   7.679  16.438 -0.2543  0.2098 -0.0614
 9742W        W27946  14.286  11.205   0.074  0.1435  0.1264  0.1099
 9743W        W27947   8.810   6.992   2.476 -0.2274  0.0430  0.1259
 9744W        W27948  11.987   1.762  13.474  0.0324 -0.1970 -0.1314
 9745W        W27949   5.619  13.124   0.378 -0.1019 -0.1830 -0.2396
 9746W        W27950  12.279   7.056  15.839  0.0107 -0.2178  0.1844
 9747W        W27951   2.440  11.740   3.602 -0.1810  0.0380 -0.0635
 9748W        W27952  13.049  17.166   2.812  0.2397  0.1124 -0.4029
 9749W        W27953  12.994   2.644  15.724  0.1075  0.2663  0.1163
 9750W        W27954   7.185  10.708   0.601  0.2364 -0.0248 -0.0870
 9751W        W27955   1.719   1.303  12.200 -0.4095 -0.3484 -0.2142
 9752W        W27956  11.936   8.759  16.943  0.3178 -0.0548 -0.1250
 9753W        W27957   4.941   7.122   2.410 -0.2624 -0.0606 -0.0163
 9754W        W27958   0.348  12.663  16.452 -0.3006  0.3860  0.0198
 9755W        W27959  11.793   9.806  14.656  0.1243 -0.0198  0.1216
 9756W        W27960   3.950   6.419  12.376  0.0980  0.0231 -0.0456
 9757W        W27961  13.725  15.240  13.809  0.4461  0.3812 -0.1917
 9758W        W27962  15.842   2.651   3.855 -0.1218  0.1893  0.0199
 9759W        W27963  12.760   3.363  16.471  0.0212  0.3675 -0.0607
 9760W        W27964  16.692  16.493   3.231  0.4399  0.0708  0.1940
 9761W        W27965   0.859   0.685   4.871 -0.5238 -0.0200 -0.0798
 9762W        W27966   4.046   9.731  13.727 -0.4229 -0.1205  0.4787
 9763W        W27967   8.418   6.066  15.968 -0.1593 -0.1003  0.3020
 9764W        W27968  16.215  16.968   3.640  0.0806 -0.0943 -0.1621
 9765W        W27969   8.513  15.440  11.987 -0.2696 -0.2508  0.1778
 9766W        W27970   1.370   4.066   5.044 -0.1362  0.1436  0.2676
 9767W        W27971   5.270   0.167   1.001  0.1756 -0.1602 -0.1473
 9768W        W27972   3.939   6.962  15.541 -0.0494  0.0930 -0.1184
 9769W        W27973   3.204  12.402   3.146  0.0869  0.0946  0.0434
 9770W        W27974   2.438  15.670  13.538  0.1151 -0.0100 -0.0519
 9771W        W27975  14.955   3.876  15.893 -0.1304  0.1966  0.2852
 9772W        W27976  14.011  15.800  14.222  0.1111 -0.0629 -0.2783
 9773W        W27977  10.125  12.363  15.214 -0.2722 -0.0553  0.1438
 9774W        W27978   2.180   0.513   1.636 -0.1118 -0.0031 -0.1643
 9775W        W27979   4.319  13.305   0.670 -0.1427  0.1527 -0.2156
 9776W        W27980   1.984   0.657  16.009 -0.0504 -0.2273 -0.0585
 9777W        W27981   9.738   7.915   0.781  0.0207  0.0250  0.2038
 9778W        W27982  11.521   9.814   3.665 -0.1701  0.1497 -0.1060
 9779W        W27983  13.290  14.504   2.134 -0.0254  0.2403  0.0151
 9780W        W27984   3.771  11.456  15.235 -0.1453 -0.0445 -0.0122
 9781W        W27985  12.833   0.772  16.512 -0.0673 -0.1469 -0.1600
 9782W        W27986   2.541   4.377  14.202 -0.3721  0.1249 -0.0096
 9783W        W27987   2.673  10.650   4.492 -0.0778 -0.0553 -0.1905
 9784W        W27988  10.913   4.667   1.094 -0.0219  0.0825  0.3418
 9785W        W27989  16.642   0.160   2.746 -0.0169  0.1235 -0.1539
 9786W        W27990   8.704  17.472   4.458  0.1096  0.0296 -0.1893
 9787W        W27991   8.074  14.922   1.287  0.1675 -0.0884 -0.2576
 9788W        W27992   8.111  10.084  12.803  0.3815 -0.0695  0.1578
 9789W        W27993  16.111  13.367   2.395  0.1503 -0.0751 -0.4690
 9790W        W27994  10.758  11.437   3.104 -0.3865  0.0794 -0.0907
 9791W        W27995   6.362   4.380  17.045 -0.3761  0.0386 -0.0936
 9792W        W27996  14.141   9.320   3.956  0.1001  0.2415 -0.0838
 9793W        W27997  10.699   7.982  16.316 -0.1162 -0.1437  0.0297
 9794W        W27998   1.137   2.914   4.135  0.0980  0.2303 -0.3231
 9795W        W27999  13.715   0.627   1.967 -0.0877 -0.1237 -0.0743
 9796W        W28000  10.263   0.443  12.940  0.0755  0.1427 -0.0672
 9797W        W28001   7.169   3.216   4.385 -0.0192  0.2501  0.1217
 9798W        W28002  14.330  13.142   4.668  0.1231  0.0290  0.0414
 9799W        W28003   6.513  15.530   1.954  0.1738 -0.2317  0.1850
 9800W        W28004   5.513   7.571   1.185 -0.1153 -0.0834  0.0032
 9801W        W28005   9.587   2.821   0.301 -0.1657 -0.0910  0.1747
 9802W        W28006  15.113   2.793  15.128 -0.3019 -0.0127  0.0256
 9803W        W28007   7.907  14.338   0.057  0.0230 -0.4078 -0.1942
 9804W        W28008  16.440   0.115   4.647  0.3632 -0.3046  0.0413
 9805W        W28009   0.979  12.045  14.323  0.0999  0.0184  0.4517
 9806W        W28010   1.648  11.163   1.010 -0.3234 -0.2171  0.1000
 9807W        W28011  14.810  15.628  15.228 -0.4271  0.0760  0.2851
 9808W        W28012   9.084  14.472  16.981 -0.0295 -0.2825  0.0563
 9809W        W28013   5.985  15.168  15.357  0.0979 -0.1134  0.0286
 9810W        W28014   3.845   7.329  12.213 -0.2491  0.2266  0.1478
 9811W        W28015   7.749  14.980   0.774  0.1435  0.1804 -0.0270
 9812W        W28016   2.745   8.970  12.855 -0.0921 -0.2628 -0.1397
 9813W        W28017   2.991   3.371  13.643  0.1588 -0.1283 -0.1369
 9814W        W28018   4.509   9.104   2.445  0.0228 -0.4167  0.1814
 9815W        W28019  16.958  13.491   2.426 -0.3404 -0.1707  0.5585
 9816W        W28020  16.658   1.133  13.538  0.0819 -0.1445  0.1355
 9817W        W28021  16.371  14.514  15.067  0.1626 -0.1571  0.1596
 9818W        W28022   7.833   8.596  14.065 -0.1586  0.3095  0.0721
 9819W        W28023  14.290   6.421   4.327 -0.0057  0.1158  0.0647
 9820W        W28024   5.436  16.679  14.501  0.1659  0.0725 -0.1484
 9821W        W28025   2.875  11.063   3.696 -0.1260  0.2017 -0.0896
 9822W        W28026   5.476  11.160  13.130  0.1165  0.0468  0.1493
 9823W        W28027   7.728   6.583  14.283 -0.2050 -0.4400  0.2653
 9824W        W28028  17.147   6.081  14.376 -0.0963  0.0791  0.1154
 9825W        W28029  15.584  10.379   4.338 -0.0928  0.0092 -0.0886
 9826W        W28030  15.728   0.291  17.218 -0.1804  0.0431  0.3389
 9827W        W28031  13.497   1.463   2.442  0.0037 -0.2183 -0.0195
 9828W        W28032   7.260  12.435  16.089  0.2014  0.0632 -0.2998
 9829W        W28033  11.126   2.489  15.785  0.1290  0.4464  0.0247
 9830W        W28034   0.924  15.689   5.050 -0.1970 -0.1979  0.0788
 9831W        W28035   9.833  11.430  12.299 -0.1850 -0.0914  0.1347
 9832W        W28036   3.940   5.253   5.647 -0.1614  0.1830  0.0380
 9833W        W28037   4.870   9.543  14.016  0.0621  0.2585 -0.0265
 9834W        W28038  15.908  17.236  16.206  0.1080  0.2078  0.0474
 9835W        W28039   7.322  16.748   3.854 -0.0310 -0.0099  0.1720
 9836W        W28040   2.845   7.318   1.479 -0.4405 -0.0300 -0.0603
 9837W        W28041  10.414   2.697  13.264  0.1326  0.1173  0.2078
 9838W        W28042   2.637   2.594   0.750 -0.0874  0.2540  0.2269
 9839W        W28043   6.727  13.572   4.409  0.1177 -0.0477  0.0623
 9840W        W28044  13.960   9.875   4.673 -0.4194  0.1347  0.1348
 9841W        W28045   9.303   9.742  13.620  0.2419  0.2922  0.1564
 9842W        W28046  10.296   5.878   0.836  0.1679  0.0485 -0.2991
 9843W        W28047   3.248  12.690  13.364 -0.0754 -0.0428  0.1809
 9844W        W28048   2.787   1.994   0.473 -0.0683  0.0032  0.0356
 9845W        W28049  17.255   6.196   3.519  0.0761  0.1213  0.0223
 9846W        W28050   6.282   5.550  17.242  0.2988 -0.1242 -0.0090
 9847W        W28051  11.985  15.155  15.745 -0.1752  0.1102  0.2990
 9848W        W28052   1.420   8.763   4.912 -0.0407 -0.4377 -0.2610
 9849W        W28053   5.821  13.558   1.979 -0.0148 -0.0623  0.1803
 9850W        W28054   7.911   1.959  12.261  0.1295 -0.1196  0.0185
 9851W        W28055   0.587   8.712   3.558  0.0674  0.1769  0.0166
 9852W        W28056  11.869   9.168  16.038  0.3387  0.0744  0.2025
 9853W        W28057  17.122   9.552  15.336  0.2314  0.2032 -0.1602
 9854W        W28058   4.299   8.576  13.514 -0.2042 -0.0274 -0.2296
 9855W        W28059   1.275   8.904   2.274 -0.0651 -0.2715 -0.1346
 9856W        W28060   2.696   2.207   4.757 -0.2494  0.2579  0.0835
 9857W        W28061   1.381  13.164  16.998  0.2601  0.0134  0.0113
 9858W        W28062   3.100   8.009   0.545 -0.1628  0.0803  0.0985
 9859W        W28063  16.704  15.851  12.282  0.2197  0.2999  0.0325
 9860W        W28064   1.151  11.750  15.068  0.0097 -0.0901 -0.2167
 9861W        W28065  13.384   9.186  15.314 -0.0109 -0.1905  0.2518
 9862W        W28066   4.008  16.834  16.124 -0.0370 -0.1570  0.2709
 9863W        W28067  15.268   1.262   3.246 -0.1021  0.0819  0.0548
 9864W        W28068  16.800  14.356   0.756 -0.0154 -0.1735  0.4742
 9865W        W28069   6.842  14.858  13.870  0.2411 -0.1311  0.0718
 9866W        W28070   5.798  12.903   3.588 -0.1784  0.0318 -0.0125
 9867W        W28071   1.716  12.447   2.807  0.3006 -0.0050 -0.0158
 9868W        W28072  11.900  16.072  16.143 -0.2105 -0.4558 -0.3956
 9869W        W28073   0.305   2.203   1.375 -0.2649  0.0830 -0.0477
 9870W        W28074   0.008   2.553   0.410 -0.2253  0.2453 -0.0520
 9871W        W28075   9.495   6.270   3.675  0.0047 -0.0225 -0.4025
 9872W        W28076  15.537  15.698  13.225  0.0539  0.2552  0.3857
 9873W        W28077   9.499   1.096   3.410 -0.0052 -0.1309 -0.0089
 9874W        W28078   2.292   7.647  14.216  0.0252 -0.2573 -0.1951
 9875W        W28079  17.259   8.194  13.631 -0.0447 -0.0182 -0.0384
 9876W        W28080  17.324  16.313   0.721  0.1578 -0.0727  0.4139
 9877W        W28081  10.572  16.957  14.078  0.0485 -0.0278 -0.3431
 9878W        W28082  13.252   6.388  12.751  0.0465 -0.1310 -0.1628
 9879W        W28083  14.722   4.830   4.203 -0.2593 -0.1353  0.0610
 9880W        W28084  14.142   8.447  14.458  0.0623  0.0394 -0.0330
 9881W        W28085   8.171   2.241  16.440 -0.0611 -0.3341 -0.1049
 9882W        W28086   0.197   7.911   0.162 -0.0787  0.2448 -0.4570
 9883W        W28087  11.159  10.260  16.766  0.0022  0.3157 -0.0314
 9884W        W28088  10.599  13.266  11.633  0.0351 -0.1226  0.2805
 9885W        W28089   7.207   3.787   5.010 -0.4502  0.0706  0.0947
 9886W        W28090   7.489   2.279  11.217 -0.1084  0.0215  0.0818
 9887W        W28091   6.942   5.146   3.616 -0.2243 -0.1849 -0.2402
 9888W        W28092   5.983  10.331  16.419 -0.0916  0.1203 -0.1309
 9889W        W28093  12.205   4.398   1.676 -0.1344  0.0596  0.1508
 9890W        W28094   6.239   2.754   2.058 -0.1541  0.3938  0.0992
 9891W        W28095  17.168   1.642  15.979 -0.2638 -0.2143  0.0505
 9892W        W28096   2.319   7.101   0.657 -0.3286 -0.1177 -0.1246
 9893W        W28097  16.784   1.237  13.038 -0.0720 -0.2179 -0.1351
 9894W        W28098   7.212  16.908   3.393 -0.1328 -0.0158 -0.1893
 9895W        W28099  15.453  16.901  16.155 -0.3235  0.1720 -0.3076
 9896W        W28100   6.113   4.880  16.959  0.3324 -0.2078  0.1125
 9897W        W28101   7.467  16.353   4.176  0.0349 -0.2267  0.2665
 9898W        W28102  15.251   4.024   1.668  0.0967  0.0355  0.2125
 9899W        W28103  11.688  12.260  11.754 -0.4053  0.0327 -0.0255
 9900W        W28104   1.730  14.553   5.485  0.0739 -0.0396 -0.2932
 9901W        W28105  15.863   9.040   1.004 -0.1069  0.0467  0.2807
 9902W        W28106  12.303   4.480  12.328 -0.2693  0.0606 -0.0885
 9903W        W28107   7.758  12.604  15.430  0.2796 -0.3117  0.0065
 9904W        W28108  11.593   2.501   0.749  0.1987 -0.1037  0.1722
 9905W        W28109   0.284  11.322  17.148 -0.0366  0.3044 -0.2486
 9906W        W28110   1.788   8.338   0.047 -0.0594 -0.3895  0.4076
 9907W        W28111   4.323   6.611  15.371 -0.1844  0.2155 -0.1652
 9908W        W28112  17.296   9.789   2.119  0.1574  0.0107 -0.2514
 9909W        W28113   7.805   3.044   1.707  0.2356  0.2665  0.2404
 9910W        W28114  15.410   5.224   5.308  0.1000 -0.2110 -0.2339
 9911W        W28115   7.926  14.039   1.182  0.0348  0.0761  0.2893
 9912W        W28116  12.282   0.614   4.365 -0.1775 -0.2371 -0.1854
 9913W        W28117  17.539  14.216  13.025 -0.0227 -0.0629 -0.0205
 9914W        W28118  17.464   6.855  15.836  0.0854  0.1253 -0.1708
 9915W        W28119   3.177  10.387  12.524  0.0956  0.0349  0.1370
 9916W        W28120   6.801  15.366   4.295 -0.0830 -0.0316 -0.0174
 9917W        W28121   0.213   3.979  15.223  0.1682  0.0848 -0.0502
 9918W        W28122  14.450  11.265   4.433 -0.2467 -0.0656 -0.1849
 9919W        W28123   0.157   6.843  13.623  0.1648 -0.0354 -0.1772
 9920W        W28124   3.413  16.818   3.994  0.1794 -0.0358  0.0354
 9921W        W28125   8.227  12.783   0.510  0.0655  0.1283  0.0126
 9922W        W28126   6.085  12.515  17.214 -0.2258  0.0001  0.0914
 9923W        W28127  11.149   0.581  14.267 -0.1332  0.0216 -0.3165
 9924W        W28128   4.178   3.876  15.036 -0.2513  0.0856 -0.1143
 9925W        W28129  15.255   8.479   2.358 -0.0827  0.0950  0.0271
 9926W        W28130   2.136  16.423  13.685  0.2504 -0.2658  0.0834
 9927W        W28131  14.412   8.725  16.254 -0.1000  0.0035 -0.0209
 9928W        W28132   2.893  10.199   0.694 -0.4659 -0.0624  0.6378
 9929W        W28133   2.994  14.539  13.804  0.1625  0.0860 -0.3114
 9930W        W28134  13.307   3.065   3.345  0.0775  0.3135 -0.0337
 9931W        W28135  10.387  13.893   2.925 -0.0482 -0.3569 -0.1189
 9932W        W28136  11.879  13.195  11.157 -0.1305 -0.0942  0.2289
 9933W        W28137   9.546  15.872  14.620  0.0134 -0.1942  0.2185
 9934W        W28138   4.258  12.711  15.538  0.2082  0.3125 -0.2771
 9935W        W28139  15.733   6.510   0.134 -0.2090  0.1820 -0.1861
 9936W        W28140  10.315   4.474   3.428 -0.2327 -0.1684  0.1728
 9937W        W28141   3.913   1.468  15.354 -0.0824  0.3091 -0.1552
 9938W        W28142   0.449   1.682   4.002  0.1730 -0.1172 -0.1306
 9939W        W28143  10.955  16.724  12.694  0.2891 -0.5016  0.1256
 9940W        W28144   5.439  15.276   1.451  0.0043 -0.0678  0.0995
 9941W        W28145   0.519   7.949   4.153 -0.2116  0.0595 -0.1444
 9942W        W28146   9.147  15.699   2.604  0.1160  0.0798 -0.2677
 9943W        W28147   1.808   4.763   4.758  0.2172  0.0579 -0.1509
 9944W        W28148   7.256   9.340  13.749 -0.2055  0.0989  0.3526
 9945W        W28149  14.874   9.133   5.327  0.1231  0.1435  0.2634
 9946W        W28150   9.316   0.901   0.260 -0.0266 -0.1641  0.0542
 9947W        W28151   9.416   8.020  12.349  0.0155 -0.4295 -0.1044
 9948W        W28152   3.113   1.090  14.335  0.2604 -0.4437  0.0920
 9949W        W28153  13.453  12.989  15.633 -0.0354 -0.0372 -0.0268
 9950W        W28154   7.751   4.694   0.157 -0.1312 -0.1789 -0.1483
 9951W        W28155  10.793   6.184  13.644 -0.2736 -0.0012  0.0403
 9952W        W28156   7.939  13.172  12.671  0.0184  0.1113 -0.2205
 9953W        W28157   8.280  10.539  12.131 -0.0289  0.1730 -0.0365
 9954W        W28158  11.255   4.175  16.980 -0.1692  0.1109 -0.1495
 9955W        W28159   5.104  12.171   4.108 -0.1269 -0.0324  0.1116
 9956W        W28160  17.296  16.968  16.535  0.1625 -0.1257  0.2454
 9957W        W28161   5.537  12.631  15.980 -0.3586  0.1106  0.0945
 9958W        W28162   6.072  14.110  12.334 -0.1995 -0.0680 -0.1139
 9959W        W28163   0.275   7.475   2.309  0.2670  0.2331  0.1094
 9960W        W28164  16.975  11.666   3.547 -0.1217 -0.4936 -0.0731
 9961W        W28165   4.921   5.936  13.686  0.4054  0.3890 -0.0501
 9962W        W28166   1.390   0.807   3.663 -0.0620  0.0650 -0.1538
 9963W        W28167  11.115   4.607   1.906 -0.2137 -0.1713 -0.0897
 9964W        W28168   3.743  13.830  15.386 -0.0681  0.0657  0.1712
 9965W        W28169  12.268   6.984   5.656 -0.0534 -0.1722  0.2942
 9966W        W28170  14.599  14.789  13.488 -0.0409 -0.1384  0.1757
 9967W        W28171  13.083  14.613  11.597  0.0681 -0.0709 -0.0955
 9968W        W28172  13.987   9.727  11.506 -0.0283  0.1222 -0.2643
 9969W        W28173   6.469  11.787   0.983 -0.1476  0.1515  0.0476
 9970W        W28174  12.232   0.134   4.963 -0.0237 -0.1933 -0.1597
 9971W        W28175  11.939  11.616   3.432 -0.0537 -0.0766 -0.3924
 9972W        W28176   8.111  11.188   4.830 -0.1667 -0.0643 -0.1187
 9973W        W28177   9.897   8.105  12.235 -0.1867  0.3646 -0.1275
 9974W        W28178  16.502   7.532  15.705 -0.0721  0.3117  0.0667
 9975W        W28179   0.191   4.077   0.149  0.2990  0.0033  0.1606
 9976W        W28180  17.071   8.919  17.195 -0.0847  0.0086 -0.1511
 9977W        W28181  11.331  13.435  14.444 -0.0887  0.2712  0.2018
 9978W        W28182  10.800   3.189  16.889 -0.2308 -0.1667 -0.0112
 9979W        W28183   2.154   0.946   0.524  0.0735  0.0409  0.2807
 9980W        W28184  12.798  15.517  15.855 -0.1399 -0.3116  0.0040
 9981W        W28185   8.211   7.248   4.768 -0.3716 -0.1334  0.0138
 9982W        W28186   1.688  10.854  12.303  0.1908 -0.1113  0.1313
 9983W        W28187   5.193   2.865  12.073  0.1101  0.0739 -0.1870
 9984W        W28188   0.744   0.320   3.997 -0.1225 -0.1238  0.2358
 9985W        W28189   6.787  14.798  12.137 -0.1268 -0.3071 -0.3821
 9986W        W28190  14.857   9.023  14.856  0.1524 -0.1240  0.0212
 9987W        W28191   9.235  13.176   2.758 -0.1872  0.3028  0.1282
 9988W        W28192   3.162  15.215   5.755  0.2033  0.0751  0.1117
 9989W        W28193   0.230   6.020   1.402  0.0870  0.1944 -0.0968
 9990W        W28194  13.655   0.805  13.699  0.1341  0.0453 -0.1436
 9991W        W28195   3.692   5.441   2.069 -0.2443  0.2273  0.0305
 9992W        W28196  10.785   1.321   3.891 -0.0322  0.1183 -0.1573
 9993W        W28197   7.432   2.480  12.813  0.0752  0.2130  0.0349
 9994W        W28198   4.438   5.190   4.425 -0.2121  0.0715  0.3071
 9995W        W28199   3.920  12.861  15.846  0.0197 -0.3556 -0.1561
 9996W        W28200   0.340   8.942   2.175 -0.0141  0.2052  0.3523
 9997W        W28201  16.035  14.952  12.792  0.0470 -0.0467 -0.0325
 9998W        W28202  17.419  12.174   5.136 -0.1834 -0.1757  0.2209
 9999W        W28203   6.783   5.807  14.444 -0.1850 -0.0377 -0.0629
10000W        W28204   0.565   9.265  14.211 -0.1767  0.1338 -0.3425
10001W        W28205  15.408   9.041   0.572 -0.3391  0.2574 -0.0233
10002W        W28206   3.531   2.899  12.844  0.1552  0.1479  0.0193
10003W        W28207   8.987  15.171  10.907 -0.0887  0.2706 -0.1490
10004W        W28208   3.995  12.019   1.686 -0.0037 -0.1624  0.0663
10005W        W28209  16.468  10.294   4.281 -0.2458  0.0643 -0.1589
10006W        W28210  12.190   7.735  15.303  0.0632 -0.1692 -0.2572
10007W        W28211   7.190   2.050   0.206 -0.1893  0.0668 -0.3172
10008W        W28212  15.755  17.405   3.008  0.0061 -0.1756  0.1174
10009W        W28213  16.760  15.145   2.068  0.0193  0.1630  0.0842
10010W        W28214   9.158  14.354  15.043  0.0993 -0.0381 -0.0571
10011W        W28215  12.005   6.439  12.309 -0.1815 -0.1761 -0.1184
10012W        W28216   0.263   9.483  12.010  0.0499  0.2476 -0.0403
10013W        W28217   6.922   7.090   4.144 -0.0832 -0.0754 -0.0638
10014W        W28218   3.182   8.446  15.698 -0.0716 -0.0442  0.3589
10015W        W28219   9.941   7.974  17.010 -0.0357 -0.0660 -0.0942
10016W        W28220  11.778   5.105  13.325 -0.1450 -0.1349  0.0318
10017W        W28221   1.268   5.498   5.256  0.1970  0.1251  0.3009
10018W        W28222  12.805  17.113   4.847 -0.1880 -0.0559 -0.0547
10019W        W28223  15.982   4.075   0.601 -0.1243  0.1033  0.1900
10020W        W28224  11.082  10.696  13.656  0.0586  0.1184  0.1719
10021W        W28225   5.581   1.966   4.411  0.4058 -0.2154 -0.0452
10022W        W28226   0.743   7.993   0.095  0.1960  0.1997 -0.1573
10023W        W28227   2.241   3.389  16.745 -0.0438 -0.0706 -0.0418
10024W        W28228   4.196   0.293  13.132  0.0673 -0.1356  0.2156
10025W        W28229   5.908   8.789   0.739 -0.1536 -0.2178 -0.0260
10026W        W28230  11.750  14.339   0.336 -0.0209 -0.3511 -0.1284
10027W        W28231   7.105  10.903  14.297 -0.0915 -0.0289 -0.1784
10028W        W28232  14.107   6.241   2.109  0.1584  0.3098  0.2188
10029W        W28233   3.125  14.130   0.815 -0.1109 -0.0833  0.1458
10030W        W28234  10.125   1.150  14.810 -0.0242 -0.4396 -0.0462
10031W        W28235   6.039  13.267  12.776 -0.0803  0.0512 -0.1028
10032W        W28236   5.101  10.337  14.411 -0.0585  0.0182  0.4150
10033W        W28237   6.314   3.510  16.680 -0.3284  0.0981 -0.0305
10034W        W28238  12.729  15.865   3.074 -0.0416 -0.1581 -0.0612
10035W        W28239   1.301  11.872  12.112 -0.1381 -0.0021 -0.0387
10036W        W28240  13.835   0.755  14.483  0.0729  0.2228 -0.4155
10037W        W28241  12.949   7.238  16.441  0.0620  0.1996  0.2890
10038W        W28242   5.371  12.886  13.238 -0.0850 -0.0686  0.0067
10039W        W28243  14.095  11.591   3.049  0.1232 -0.2127  0.0407
10040W        W28244  10.763   4.993  17.214 -0.3544  0.0818  0.0937
10041W        W28245  16.791  15.091   2.902  0.2587  0.4091  0.2082
10042W        W28246   4.424   9.607   2.624 -0.0333 -0.1232 -0.1428
10043W        W28247  12.486  17.156   3.976 -0.0345  0.2155  0.0729
10044W        W28248  12.447  16.387   3.028 -0.3562  0.1639  0.1443
10045W        W28249   5.835   3.915   0.075 -0.2906  0.0425 -0.0518
10046W        W28250   0.080   0.643  15.621  0.4988  0.2537  0.1102
10047W        W28251   5.775  16.780  13.126  0.0757 -0.2544 -0.0424
10048W        W28252   9.631   5.126   3.084 -0.3438 -0.0054 -0.2380
10049W        W28253  10.845  16.548   1.637 -0.0208 -0.1023 -0.1417
10050W        W28254  16.809   6.629  16.847 -0.3484  0.0215 -0.1831
10051W        W28255   3.487  16.801   2.645  0.2702  0.2661  0.3694
10052W        W28256  16.305   5.617   4.738 -0.2767  0.0525 -0.0828
10053W        W28257   2.921   5.100  16.368 -0.0597  0.2344  0.1639
10054W        W28258  10.221   7.932   0.978 -0.2127  0.1663  0.2675
10055W        W28259  11.372  16.895  13.505  0.0585 -0.0782 -0.0310
10056W        W28260  16.184   8.489  15.685  0.1449 -0.0181 -0.0010
10057W        W28261   3.939  12.884   0.394 -0.2661 -0.1119  0.0968
10058W        W28262  15.424   0.887   2.161  0.2338  0.1714  0.1243
10059W        W28263   3.856   0.702  13.364 -0.2600 -0.2230  0.2153
10060W        W28264  16.163   9.688  13.013  0.2025 -0.0447  0.1642
10061W        W28265   4.619   4.763  15.217  0.1192  0.2939  0.1428
10062W        W28266  14.612  12.660   0.107 -0.2120  0.1322 -0.4289
10063W        W28267   1.614   0.614   1.208 -0.3298 -0.1394  0.3269
10064W        W28268   7.420   2.836   0.299  0.1315  0.1690 -0.0956
10065W        W28269  12.158   7.308   3.787 -0.1717 -0.1916 -0.2580
10066W        W28270  15.754  13.717   2.224  0.2093  0.0351 -0.0830
10067W        W28271  14.269  16.314  16.574  0.1112 -0.1632 -0.0555
10068W        W28272   0.287   7.961   1.084  0.0451 -0.1498 -0.0182
10069W        W28273   0.919   5.320  12.353  0.2857 -0.1815  0.1273
10070W        W28274  12.394  12.996   1.914 -0.2625  0.0305  0.2254
10071W        W28275   0.930   6.180  12.159 -0.0198  0.1819 -0.1395
10072W        W28276   0.417   8.364   5.361  0.1139  0.0721 -0.1853
10073W        W28277   4.570   5.155   0.715  0.0865 -0.0464  0.0319
10074W        W28278  10.198  13.663   0.730 -0.1660 -0.0231 -0.0467
10075W        W28279   9.928   8.500   1.637 -0.1743  0.0266 -0.0805
10076W        W28280   4.950  11.124   2.502  0.0050  0.2349  0.1253
10077W        W28281  13.199  17.262  13.201  0.0239 -0.2430  0.0982
10078W        W28282   5.136  11.420  14.715  0.1028 -0.0658  0.1500
10079W        W28283   7.647  10.815  14.470 -0.2279  0.2013  0.1365
10080W        W28284   2.267   1.923   0.606 -0.0011  0.0830  0.0957
10081W        W28285  14.956   5.959   4.084  0.3092 -0.2190  0.2268
10082W        W28286   1.462   6.525  14.273  0.0507 -0.0507 -0.1432
10083W        W28287  16.054   9.477  14.073 -0.2919  0.0380  0.0830
10084W        W28288  13.091  12.976  14.952  0.0065 -0.2523 -0.0701
10085W        W28289  14.249  17.139  14.962 -0.0200 -0.0561 -0.0091
10086W        W28290  10.896  15.418  16.381 -0.1295 -0.1546 -0.1934
10087W        W28291  11.659  12.768  14.937 -0.0711 -0.0884 -0.2763
10088W        W28292   7.746   3.397  11.969 -0.0806 -0.4241 -0.0367
10089W        W28293  15.752   5.633  14.689 -0.3722 -0.0324  0.0951
10090W        W28294  16.612   4.656   2.898  0.0725  0.0758  0.1559
10091W        W28295  16.106  17.191  17.268 -0.2614 -0.1292 -0.0348
10092W        W28296   8.682  14.557   0.630  0.1766 -0.0661  0.1387
10093W        W28297   8.401  13.291   0.898 -0.0037 -0.0324  0.0790
10094W        W28298   3.698   6.530  15.457  0.0391 -0.4510 -0.1936
10095W        W28299   4.941  14.519   3.275  0.1491  0.1233 -0.1496
10096W        W28300   4.909  10.902  12.347 -0.1960  0.0069 -0.0785
10097W        W28301  11.486  13.295  16.798 -0.0375 -0.0566 -0.1711
10098W        W28302  16.796  13.727   4.475 -0.0014 -0.0629 -0.0394
10099W        W28303  13.721   9.526  12.450 -0.1065  0.1895  0.0834
10100W        W28304  11.262  12.837   1.573 -0.0244 -0.0379  0.0405
10101W        W28305   4.419  15.755   3.876  0.1463  0.0123  0.0439
10102W        W28306   7.922  12.408  13.782  0.0617 -0.0917  0.0134
10103W        W28307   1.384  10.100   2.792  0.0123 -0.4224 -0.2426
10104W        W28308   5.560   4.263  14.128  0.2153 -0.2171 -0.2557
10105W        W28309   7.412  15.309   3.017 -0.1440  0.0920  0.1312
10106W        W28310   9.822  11.077  11.057 -0.4147 -0.3576  0.1052
10107W        W28311  13.154  13.191  14.521 -0.1345  0.0500  0.3776
10108W        W28312   8.396  16.108  13.768  0.0556  0.1857  0.2357
10109W        W28313  14.448   7.144   1.561  0.0341  0.4398 -0.0455
10110W        W28314   0.306   3.821   3.647 -0.1570  0.2524 -0.0465
10111W        W28315   3.973   3.052  15.033 -0.2069  0.0586 -0.0592
10112W        W28316   0.469  11.206  15.729  0.1475 -0.0830 -0.0421
10113W        W28317   7.711   2.416  12.234  0.2130 -0.2517  0.1827
10114W        W28318   9.021   6.923   4.306 -0.0686  0.0613 -0.2410
10115W        W28319   9.521   9.751  17.257  0.2219 -0.0902  0.2766
10116W        W28320  15.457   8.078   4.557 -0.0199  0.0404  0.4307
10117W        W28321   7.833   7.535   3.970  0.1920 -0.0329  0.1286
10118W        W28322   4.191   3.129  14.192  0.2677 -0.0877 -0.1512
10119W        W28323  13.953   9.830  13.582 -0.2341 -0.0212  0.0600
10120W        W28324   3.040   2.425   3.873  0.0795 -0.0845  0.0278
10121W        W28325  12.181  12.679  17.138  0.1224  0.2897  0.1689
10122W        W28326  13.274  16.426   0.425  0.3420  0.0473 -0.1856
10123W        W28327  15.386  11.280   4.104  0.0657 -0.0251  0.1668
10124W        W28328  13.848  14.188  15.624 -0.1813  0.0298  0.2390
10125W        W28329   1.274  11.799  13.506  0.0355 -0.4543 -0.1458
10126W        W28330  10.034   7.504   1.682  0.1369  0.0473  0.3220
10127W        W28331   3.909   8.027   0.582 -0.1392  0.2186  0.2002
10128W        W28332   0.420  13.330   3.688  0.2310  0.0902  0.1569
10129W        W28333   1.742  10.331  16.667 -0.2520 -0.3191  0.1318
10130W        W28334  16.974  10.598  11.138  0.0783  0.1260 -0.0713
10131W        W28335  12.505   0.612   2.685  0.0463  0.0563 -0.0132
10132W        W28336   2.707   1.199  12.802  0.0849  0.0544  0.0553
10133W        W28337  14.739   3.936   0.707 -0.0132  0.1142 -0.0784
10134W        W28338  11.339  16.085  16.030  0.0833 -0.1371  0.2411
10135W        W28339   3.597   9.114  13.920  0.0165  0.0457  0.2884
10136W        W28340  15.045   7.820  15.444  0.1957 -0.0044  0.1051
10137W        W28341   1.992  15.847   0.504 -0.0249 -0.1225  0.0956
10138W        W28342   8.658   4.535  16.581  0.1828 -0.1775  0.2802
10139W        W28343   9.132  10.472   3.010 -0.0581  0.0194 -0.2131
10140W        W28344   7.045   9.669  15.784 -0.2582 -0.1582  0.0611
10141W        W28345  14.566   6.350   5.407  0.1287  0.0158 -0.1011
10142W        W28346   9.115   9.799   0.846  0.1339 -0.0466  0.0349
10143W        W28347   4.342  11.232   3.624 -0.0141  0.0532  0.0648
10144W        W28348  16.985   0.861   0.966 -0.0680 -0.1665  0.1080
10145W        W28349   9.456   7.002  16.117  0.2803  0.0084 -0.1380
10146W        W28350   8.121   1.620   1.346  0.1042  0.2844  0.0861
10147W        W28351  14.329  15.503   2.527 -0.0973  0.2111 -0.1944
10148W        W28352   5.208  13.354  13.128 -0.1691 -0.0468 -0.1021
10149W        W28353  17.355   0.345   4.531  0.1387 -0.1635 -0.0482
10150W        W28354   1.791   6.962  14.455 -0.0123 -0.2841  0.0690
10151W        W28355   9.908  12.574   1.384  0.0877 -0.0869 -0.2904
10152W        W28356   9.695   7.173   1.916  0.0355  0.0197 -0.1335
10153W        W28357  17.148   7.082  13.738 -0.1305  0.0434  0.0071
10154W        W28358   8.256   2.320   1.006  0.2202 -0.1427 -0.0271
10155W        W28359   7.112  14.633   2.251  0.2561 -0.0137 -0.0048
10156W        W28360   5.084  10.832  14.298  0.0151  0.1661 -0.0255
10157W        W28361   4.129   5.592   0.373  0.0074  0.1795 -0.1632
10158W        W28362   9.642  13.995  15.702 -0.0857  0.0592 -0.2545
10159W        W28363   9.892  11.076   1.906 -0.2053  0.1204 -0.0138
10160W        W28364   1.991  13.074  15.087 -0.0520  0.1705  0.1075
10161W        W28365   3.404  13.522   0.157  0.3020  0.1161  0.2117
10162W        W28366  17.350   5.961   1.146 -0.2470  0.1215 -0.0358
10163W        W28367  14.476  10.144  11.802  0.0025  0.1455  0.1878
10164W        W28368  12.015  12.221   0.505 -0.1985  0.0707  0.0646
10165W        W28369   3.378   8.371  14.546 -0.0583 -0.0346  0.1563
10166W        W28370   5.350   6.894  16.326  0.0540  0.0066 -0.3262
10167W        W28371  11.466   1.190  15.637 -0.1820  0.0131 -0.0506
10168W        W28372  15.349  16.863   0.018 -0.3655 -0.2456  0.1276
10169W        W28373   3.137  13.747  12.670 -0.1586 -0.0693  0.2115
10170W        W28374   4.839   8.576   4.276  0.2550  0.0683  0.1370
10171W        W28375   0.659   5.756  13.278 -0.2078 -0.0751  0.1153
10172W        W28376  14.996   7.633  13.613  0.1864  0.0635  0.1797
10173W        W28377   6.204  16.009   4.473  0.1902  0.3803  0.1752
10174W        W28378  15.602  10.150  13.464 -0.0737  0.4705 -0.3921
10175W        W28379   2.563   1.713   2.392  0.0807 -0.0314  0.0660
10176W        W28380   2.786   9.732  16.615 -0.0467 -0.4909 -0.3190
10177W        W28381   6.767  12.182   0.749 -0.0176 -0.3352 -0.0328
10178W        W28382  14.439   8.227   0.055 -0.0937 -0.1035 -0.0968
10179W        W28383   8.670  13.634   4.349 -0.0907  0.0452  0.2464
10180W        W28384   4.589  16.856   1.708  0.2089  0.0881 -0.1522
10181W        W28385  14.613  11.349   0.413  0.3367  0.0319 -0.0141
10182W        W28386   1.537  16.053   0.648  0.0541  0.0384  0.0630
10183W        W28387  14.993   3.879  16.392 -0.0645 -0.2417 -0.1678
10184W        W28388   2.942  14.014  15.710  0.0017 -0.0608  0.1576
10185W        W28389   6.465  10.083  11.900  0.1146  0.0142 -0.0140
10186W        W28390   8.543   7.924  12.554 -0.0420 -0.0508  0.2654
10187W        W28391  16.364   6.559  14.920  0.3341  0.0638  0.2370
10188W        W28392   3.063  15.350   4.512 -0.0776 -0.0967  0.0519
10189W        W28393   6.778   1.412  15.637  0.0929 -0.2925 -0.0671
10190W        W28394  10.343   8.072  12.000 -0.0056  0.1191 -0.2214
10191W        W28395   8.191  17.177   1.551 -0.0088 -0.1912  0.0605
10192W        W28396  10.410   9.088   5.862  0.2493  0.4574  0.1779
10193W        W28397   4.133  13.302   1.185  0.1591 -0.2687  0.2321
10194W        W28398   6.781  10.532  14.064  0.1491  0.0698  0.0179
10195W        W28399  14.387  12.088   0.921 -0.0851 -0.2276 -0.1370
10196W        W28400   8.128  15.743   3.455  0.1947 -0.0310  0.2339
10197W        W28401   0.415   7.610   4.982  0.2159 -0.3722 -0.0629
10198W        W28402  12.785  11.534   1.979 -0.2401  0.1137 -0.0672
10199W        W28403  14.774   2.499  15.486  0.2013 -0.3343 -0.0142
10200W        W28404  15.485   6.658   0.942  0.0061 -0.0190  0.2605
10201W        W28405  16.529  16.854   0.264 -0.1930  0.0565 -0.2115
10202W        W28406   9.428  15.001   6.010  0.1307 -0.1317 -0.0214
10203W        W28407  16.072  10.688  15.321 -0.1562 -0.1156 -0.3899
10204W        W28408   8.886   1.129   0.448 -0.0209 -0.1293  0.3885
10205W        W28409   0.341   7.968  15.669  0.2135 -0.1019  0.1180
10206W        W28410  12.446   2.308   4.312 -0.2775 -0.3031 -0.2515
10207W        W28411  13.729   3.098  14.319 -0.0395 -0.2126 -0.1224
10208W        W28412   6.663  17.147  16.043 -0.0334  0.3029 -0.4253
10209W        W28413   1.672   8.351   3.358 -0.0931 -0.1732  0.0833
10210W        W28414  16.197   7.518   4.240  0.0947  0.1823  0.0300
10211W        W28415   5.132   8.256   2.143 -0.2231 -0.1965  0.0403
10212W        W28416   9.449   2.870  17.125 -0.0381  0.3883 -0.0215
10213W        W28417  11.566  14.601   2.807  0.1702  0.3611 -0.0334
10214W        W28418  12.441  13.576   0.225 -0.0372 -0.1122 -0.3109
10215W        W28419   8.903  10.531  12.912  0.0412 -0.2631 -0.2456
10216W        W28420   8.237   8.543  11.986  0.1901 -0.1724 -0.1561
10217W        W28421   3.092  10.640   0.252  0.0871  0.1141  0.0390
10218W        W28422   6.301  10.147  13.248  0.1191 -0.0074  0.1207
10219W        W28423   4.004   6.953  16.938  0.1737  0.2633 -0.1939
10220W        W28424  14.841   6.374  15.334 -0.0213 -0.2698  0.1438
10221W        W28425   7.194   4.572  16.523  0.2181 -0.0897 -0.1702
10222W        W28426  16.277   9.339  14.966 -0.0446  0.2602  0.0605
10223W        W28427  13.237   8.190  13.831  0.1228  0.2517 -0.1989
10224W        W28428  15.388  14.188   4.169 -0.1366  0.3341 -0.1714
10225W        W28429   2.474  16.133   4.007 -0.0557  0.1351  0.2336
10226W        W28430  13.736  12.323  13.088  0.3815 -0.1983 -0.0258
10227W        W28431  13.607   7.571  14.934 -0.4523  0.1220 -0.0989
10228W        W28432   7.152   9.996   4.443  0.1892  0.0775 -0.0213
10229W        W28433   8.789  13.852   3.087 -0.1246 -0.2228  0.2600
10230W        W28434  15.070  11.155   3.635  0.0811  0.0220 -0.0117
10231W        W28435  16.120   0.017  12.800 -0.3504 -0.0246 -0.0329
10232W        W28436   8.735   0.105  15.961 -0.0619 -0.1581 -0.0029
10233W        W28437  10.726  14.312   2.430  0.0024  0.0069  0.1612
10234W        W28438  10.487   0.058  13.340  0.0530 -0.0759 -0.1261
10235W        W28439   0.875   2.824  14.557 -0.0313 -0.0552  0.1361
10236W        W28440   6.023   7.665  14.138  0.2391  0.1873  0.1039
10237W        W28441   1.889   5.667  12.210 -0.1918  0.0292  0.1201
10238W        W28442   6.516  11.740  17.023  0.1472 -0.0061 -0.1387
10239W        W28443   1.085   6.124   3.419 -0.0799 -0.0592  0.0536
10240W        W28444  11.534   5.639  13.456 -0.0182 -0.2355  0.2065
10241W        W28445  10.951   1.036   0.786  0.5322  0.1709  0.1282
10242W        W28446   0.165   9.779   1.774 -0.0018 -0.2572  0.4114
10243W        W28447  13.840  15.227  17.201 -0.0300  0.0369 -0.1456
10244W        W28448   3.226   9.675   4.111 -0.0481  0.0202  0.0103
10245W        W28449  10.622  16.067  12.196 -0.0822 -0.2862  0.0263
10246W        W28450  14.441   0.173  15.662  0.0169 -0.0518  0.0074
10247W        W28451   1.911   6.881   5.194 -0.0787 -0.2019  0.1926
10248W        W28452  16.640   6.288  16.322 -0.1014  0.0979  0.0766
10249W        W28453   7.677  16.221  13.297 -0.1537  0.0599  0.0550
10250W        W28454   4.116  10.549   4.569 -0.3229 -0.2796  0.2595
10251W        W28455  11.060   3.271   0.550  0.2468  0.2938 -0.0490
10252W        W28456  15.154   1.160  16.339 -0.2098  0.3237  0.0501
10253W        W28457   7.738   8.016   4.402  0.0185  0.0472  0.1132
10254W        W28458  14.756  16.812   0.704 -0.1328 -0.0455  0.2294
10255W        W28459   7.968  12.646   4.051 -0.0036 -0.6369 -0.1140
10256W        W28460   2.587   7.661  12.805 -0.0126  0.1437 -0.0410
10257W        W28461   6.278   7.201  12.658  0.0569  0.0723  0.0194
10258W        W28462   2.200   9.143  13.409 -0.1429 -0.0285  0.1263
10259W        W28463  11.546   2.596   2.037  0.2254 -0.0777  0.3165
10260W        W28464  16.746   7.688  16.161  0.1437  0.1316 -0.0331
10261W        W28465   5.690   1.652   3.205  0.0297  0.4219 -0.0804
10262W        W28466  16.284   3.864  12.951  0.1940 -0.3333 -0.1546
10263W        W28467  11.321   9.211   3.525 -0.0238  0.2464  0.1441
10264W        W28468   5.014  14.251   4.438  0.3255 -0.0132 -0.2197
10265W        W28469  13.155  11.530   1.127  0.5681  0.1472 -0.0471
10266W        W28470  11.730  13.295  12.069 -0.1503 -0.0333  0.0851
10267W        W28471  16.287  13.470   0.267 -0.0671  0.0007  0.3609
10268W        W28472   0.822   0.077  17.017 -0.0789  0.2979  0.0708
10269W        W28473   8.069   8.992   4.849 -0.1422  0.3480 -0.2255
10270W        W28474   8.720   8.400   1.109 -0.2600 -0.1903  0.1188
10271W        W28475   9.467   9.299  11.574 -0.0504  0.3109 -0.3536
10272W        W28476  13.655   0.842  16.314 -0.1339 -0.0371  0.1117
10273W        W28477  13.766   9.784   3.683 -0.0671 -0.0676 -0.1663
10274W        W28478  14.850   2.705  14.221 -0.2830 -0.0043 -0.2146
10275W        W28479   4.991  14.851  12.569 -0.0291  0.0236  0.0556
10276W        W28480   6.058  10.744   4.959 -0.0255  0.0407  0.0604
10277W        W28481   6.871   3.680  14.489  0.0562  0.2122 -0.0166
10278W        W28482   9.633  14.256  15.293  0.0208 -0.1127 -0.1330
10279W        W28483   3.038   5.052  16.824  0.1529  0.1176 -0.1211
10280W        W28484   9.244  11.925   4.184  0.1222  0.0002 -0.0592
10281W        W28485   3.876  14.208  13.912 -0.1401 -0.1182  0.1630
10282W        W28486  10.763   2.265   6.390  0.0746 -0.1587 -0.1201
10283W        W28487   5.201   9.049   4.422 -0.0211  0.0926 -0.1709
10284W        W28488   0.910  13.901   0.569  0.2317  0.0975  0.0942
10285W        W28489   7.935   7.323   1.498 -0.2634 -0.0689 -0.2418
10286W        W28490   2.620  15.967  16.118 -0.2122  0.1253 -0.2613
10287W        W28491  13.413  14.583   1.697 -0.2287 -0.0749 -0.4346
10288W        W28492   5.535   2.361   2.646  0.0839 -0.0453 -0.2074
10289W        W28493  16.851  16.674  15.447  0.0772 -0.0736 -0.0247
10290W        W28494   6.845  13.493   2.093  0.3979 -0.1136  0.1228
10291W        W28495   8.489   4.149  16.010  0.0394 -0.1262  0.0582
10292W        W28496   5.246  10.206  17.169  0.1349 -0.0970 -0.0901
10293W        W28497   2.634   4.193   4.966 -0.3275  0.1827 -0.1023
10294W        W28498   2.204   5.122   3.256 -0.2418  0.2023  0.0765
10295W        W28499   3.619  12.495  14.324 -0.0361 -0.1105  0.1636
10296W        W28500   0.179   6.291   4.941 -0.1674 -0.0875 -0.4365
10297W        W28501  10.120  14.976  15.379 -0.3281  0.0301 -0.3141
10298W        W28502   2.373   1.285   4.279 -0.2750  0.2586 -0.1520
10299W        W28503  12.400  10.948   2.993 -0.0541  0.0723 -0.0160
10300W        W28504   9.639  11.459   4.347 -0.0798  0.0794 -0.2782
10301W        W28505  10.260  16.709   2.898  0.1720  0.0110 -0.2116
10302W        W28506   9.216   5.256   5.276 -0.0053 -0.1176 -0.1263
10303W        W28507   6.833  12.621   0.098  0.2992 -0.1053  0.2913
10304W        W28508   7.769   7.954   2.720 -0.0079 -0.0854  0.0747
10305W        W28509   4.487  11.942   5.049  0.2319  0.1309  0.1719
10306W        W28510   1.674  17.399  17.201  0.0073  0.0112 -0.2537
10307W        W28511   4.254  15.911  14.559  0.1715  0.1872  0.3670
10308W        W28512   5.864  12.086  13.083  0.2175  0.0188  0.1730
10309W        W28513   6.834   2.751   2.519  0.0336 -0.0219  0.0476
10310W        W28514  14.111   4.425   0.369 -0.0615  0.0388  0.1547
10311W        W28515   9.176  16.326   4.824  0.0934 -0.2155  0.1291
10312W        W28516  15.031   5.239   1.096 -0.4148  0.2112 -0.0726
10313W        W28517  10.866   0.162  12.354  0.0202 -0.1990 -0.2390
10314W        W28518   3.913   9.405  12.360  0.2570 -0.1969  0.1785
10315W        W28519  16.904   4.954  13.051 -0.1435  0.2959 -0.0039
10316W        W28520   9.320   7.164   5.256  0.1003  0.0619 -0.3653
10317W        W28521  16.775  10.807  14.597  0.2251  0.0961 -0.2215
10318W        W28522  13.094   9.833  14.198  0.4638 -0.3644  0.2796
10319W        W28523  11.036  17.338   4.334 -0.2632  0.1603 -0.1561
10320W        W28524  15.167   3.204   3.715 -0.5245  0.0448 -0.0259
10321W        W28525   7.553   6.594   2.392  0.2248 -0.0828 -0.2262
10322W        W28526  17.413  16.697   0.267 -0.0300 -0.0439 -0.3305
10323W        W28527  16.695   5.359   3.278 -0.0773 -0.0560 -0.1774
10324W        W28528   2.804   3.541   2.667 -0.3704  0.0620 -0.2163
10325W        W28529   5.409   1.134   3.176 -0.1131  0.0199 -0.0712
10326W        W28530  17.004   9.809   3.148  0.0789 -0.1244  0.0070
10327W        W28531  13.746  16.083   3.269  0.3051  0.0029  0.0608
10328W        W28532  16.167   6.659  14.330 -0.0664  0.0199 -0.1032
10329W        W28533  16.656  12.674   0.809  0.2243 -0.1081  0.2668
10330W        W28534   0.059  13.488   2.935  0.0599  0.3290  0.0622
10331W        W28535   0.681   2.804   2.575  0.0468  0.1271  0.0981
10332W        W28536  14.185   4.209   3.534  0.0228  0.1908  0.1057
10333W        W28537   0.884  16.487  12.137 -0.0633  0.2000 -0.2313
10334W        W28538   3.891   3.334   2.588 -0.1098  0.0920  0.3660
10335W        W28539  11.408   3.891  16.518  0.3347 -0.1464  0.1750
10336W        W28540   9.074  11.823  13.441  0.0081 -0.1479 -0.4240
10337W        W28541  13.148   0.948  12.437  0.3611 -0.0762 -0.3438
10338W        W28542   1.689   3.019   0.508  0.3468 -0.0373  0.1334
10339W        W28543  17.506   5.224  16.406  0.3421  0.4227  0.1151
10340W        W28544   7.704  16.725   3.447  0.0560  0.0480 -0.2015
10341W        W28545   9.695   0.061  15.575 -0.0816  0.1117  0.2369
10342W        W28546   2.147  11.416   1.636  0.1951 -0.1374  0.0046
10343W        W28547   1.720   1.542  16.036  0.1060  0.1885 -0.0153
10344W        W28548   3.366   4.527  15.285  0.2709 -0.0523  0.4417
10345W        W28549  10.417   3.207  15.758  0.0196 -0.1776 -0.1806
10346W        W28550   8.213   1.452  13.987  0.0875  0.1186  0.1955
10347W        W28551   8.626   4.771  14.751  0.3711 -0.2361  0.3711
10348W        W28552   5.191  10.382   1.475 -0.1115 -0.1601  0.0406
10349W        W28553  12.619   3.198   0.255  0.3472 -0.0893  0.1729
10350W        W28554  16.700   4.324   1.208 -0.0198 -0.3223 -0.0089
10351W        W28555  15.743  14.074  15.565  0.0704 -0.0386  0.3201
10352W        W28556   0.375   0.418  16.020 -0.3543 -0.0807  0.2530
10353W        W28557   1.191   9.849   1.856 -0.1490  0.3087  0.0907
10354W        W28558   9.243   3.315   4.958 -0.0308  0.3469 -0.0674
10355W        W28559  12.373   1.110   1.281  0.0042  0.2177  0.1497
10356W        W28560  15.317  15.468   4.568  0.0028 -0.0598 -0.1061
10357W        W28561   5.400   2.243   1.612 -0.0617 -0.2896 -0.5154
10358W        W28562  14.151   4.347  14.380  0.2328 -0.1842 -0.3941
10359W        W28563   8.903   2.847  14.002 -0.1882 -0.1876 -0.2166
10360W        W28564  10.952   9.563   3.738 -0.1294 -0.0568 -0.0089
10361W        W28565   2.098  13.827  15.139 -0.1338 -0.0936  0.4073
10362W        W28566  10.925  12.901   2.602 -0.0082 -0.1873 -0.1540
10363W        W28567   6.868   2.818  13.677  0.0917  0.0445  0.0191
10364W        W28568   6.245  14.139  16.279 -0.2232  0.0642  0.0108
10365W        W28569  14.913   8.354  14.231 -0.2120 -0.1398 -0.1164
10366W        W28570  17.238   5.752  17.012  0.0393  0.2135  0.1764
10367W        W28571  13.935   5.939   1.432  0.2744  0.0381  0.1245
10368W        W28572   5.151   0.627   3.342 -0.0937 -0.2747  0.4609
10369W        W28573  11.381  13.221   0.558  0.2831  0.1010 -0.1223
10370W        W28574  14.987   6.630   2.268 -0.0499  0.3199  0.1351
10371W        W28575   0.294   3.037   0.501 -0.1291  0.0609 -0.0926
10372W        W28576   8.515  14.921  11.833 -0.0681  0.0025 -0.0993
10373W        W28577   4.198  11.856   0.549  0.3123 -0.0013  0.0586
10374W        W28578  11.185   8.608  16.633  0.0109 -0.4379 -0.0284
10375W        W28579  10.280   3.397   4.546  0.0646  0.2517 -0.0226
10376W        W28580  15.837  10.494   3.393 -0.2664 -0.0940  0.0113
10377W        W28581  10.123   5.927  14.605 -0.1145  0.2788 -0.0426
10378W        W28582  14.993  16.474   2.149 -0.1369  0.0039 -0.5206
10379W        W28583   0.776  11.262   4.591 -0.1199 -0.0318 -0.0252
10380W        W28584   2.911   7.562  14.923 -0.0745 -0.4422  0.4368
10381W        W28585   5.462   8.846   1.496 -0.1253  0.0884  0.0735
10382W        W28586  17.170   3.628   5.907 -0.0365  0.2572 -0.0316
10383W        W28587   6.733  16.544   1.267  0.1819  0.3043  0.0052
10384W        W28588   0.908  14.195  13.977  0.0927 -0.0614 -0.2792
10385W        W28589   0.013  10.597   4.305 -0.2308 -0.0447 -0.0614
10386W        W28590  14.319  10.312   4.038 -0.3982  0.4193 -0.1390
10387W        W28591   2.410   3.343   5.305  0.1549 -0.0630  0.1491
10388W        W28592  16.224   1.497  13.528  0.1985  0.3261  0.1905
10389W        W28593  12.058   0.662   2.925  0.0189 -0.1069  0.0281
10390W        W28594   2.230  10.867   1.052  0.0233  0.3145 -0.0958
10391W        W28595   9.991   7.307   4.786  0.1332 -0.2072 -0.1460
10392W        W28596  10.080  14.243  12.625 -0.2908 -0.3565 -0.4011
10393W        W28597   3.823   0.031  13.310 -0.0996  0.0658 -0.1549
10394W        W28598   8.839  16.859   3.100  0.1941  0.1303 -0.2971
10395W        W28599   7.368   3.799   0.169 -0.0407 -0.1143 -0.1863
10396W        W28600   6.076   5.106   4.031 -0.2170  0.4489 -0.2230
10397W        W28601   0.191   2.689   4.002 -0.1162  0.1918 -0.1672
10398W        W28602   2.762   9.267  16.423 -0.2137 -0.0843 -0.0648
10399W        W28603  13.536   0.041   3.950  0.0371 -0.3715 -0.2744
10400W        W28604   1.069  13.379  14.735  0.4441 -0.1713 -0.0897
10401W        W28605  16.115   2.949   4.922 -0.2306 -0.5976  0.0292
10402W        W28606   5.698   1.596  13.918  0.1040  0.0073  0.0521
10403W        W28607   1.344  13.057  13.019  0.3229  0.0714 -0.2359
10404W        W28608   8.246  10.533  13.637 -0.0131  0.2860  0.1431
10405W        W28609  16.938   9.189  15.804 -0.0075  0.2216 -0.1057
10406W        W28610  10.478  14.637   1.292 -0.0173 -0.1493  0.1257
10407W        W28611   9.476   2.562   1.056  0.1878  0.1196  0.1471
10408W        W28612   9.835   2.139  12.456 -0.2271 -0.2496 -0.1990
10409W        W28613  13.304  13.354   0.589 -0.0268 -0.2254  0.1129
10410W        W28614   3.312  13.295   3.481  0.0215 -0.0993  0.4173
10411W        W28615  12.043  10.646   4.771 -0.0067 -0.4302  0.0119
10412W        W28616   1.982  13.990   0.896  0.1027 -0.1679  0.0662
10413W        W28617   3.250  12.167  13.460 -0.2735 -0.2647 -0.0285
10414W        W28618  17.189   2.082  14.614 -0.1131 -0.0968 -0.3747
10415W        W28619  11.688   1.810   4.049 -0.0448 -0.1433  0.2280
10416W        W28620   4.536   4.663   2.333 -0.3155  0.0059  0.2423
10417W        W28621  16.167   2.159   3.149  0.0267 -0.0692  0.0376
10418W        W28622  16.845  10.677  12.690 -0.1120 -0.2353  0.0229
10419W        W28623   0.766   4.895  17.147 -0.1648 -0.1251 -0.2505
10420W        W28624   0.912  10.369  15.343 -0.1416 -0.0819 -0.1391
10421W        W28625  16.619   2.118   4.835 -0.0851 -0.3919 -0.2119
10422W        W28626  16.665  13.795  16.856  0.1785 -0.1403  0.0490
10423W        W28627   5.583  17.534  12.212  0.1933  0.1847 -0.0043
10424W        W28628  13.020   4.012   1.854  0.0006 -0.2938 -0.2076
10425W        W28629   3.229  15.080  15.663 -0.2061 -0.5490  0.0998
10426W        W28630   0.684   7.374   6.013  0.1900  0.1564 -0.0346
10427W        W28631   3.468   6.239  15.033 -0.2372  0.2258 -0.2117
10428W        W28632  15.345  16.481   3.338  0.0650 -0.2473  0.1679
10429W        W28633   5.094   7.674   0.824 -0.2417 -0.4453  0.0404
10430W        W28634   2.875   8.751  15.946 -0.0506  0.1307 -0.1880
10431W        W28635  13.858  10.814  15.202 -0.0953  0.1286 -0.0396
10432W        W28636  12.430   6.165  15.354 -0.1537  0.2067  0.0766
10433W        W28637  12.466   7.478   1.984 -0.2758  0.1097  0.1030
10434W        W28638   6.792  11.275  13.694 -0.0283  0.5303  0.2933
10435W        W28639  15.023   0.780  15.158  0.2870  0.0986 -0.1847
10436W        W28640  11.594   8.033  14.310 -0.0036  0.1325 -0.3737
10437W        W28641  12.914   2.130  15.993  0.2318 -0.1002 -0.1332
10438W        W28642   9.703  13.604   3.800 -0.4669 -0.1958  0.0370
10439W        W28643  14.816  13.831  14.458 -0.1329  0.1625 -0.1504
10440W        W28644   6.603   3.311  13.549 -0.2213  0.0990 -0.0887
10441W        W28645  16.888   8.036   0.286  0.1737 -0.2416  0.3288
10442W        W28646  14.868   2.349   3.831 -0.1876 -0.2331  0.2189
10443W        W28647   1.031  16.726  15.961 -0.2447 -0.2846 -0.0160
10444W        W28648  11.447  17.109   1.372 -0.0950  0.0457  0.0650
10445W        W28649  16.530   9.786   4.067 -0.0251 -0.0926 -0.2059
10446W        W28650   8.815   5.492  14.648 -0.2652 -0.4147  0.1040
10447W        W28651   7.632   0.387  16.814  0.1564  0.3382 -0.1133
10448W        W28652   3.459   4.407   3.061  0.1040  0.1668  0.2012
10449W        W28653  11.558  10.412  13.357  0.1887 -0.0165 -0.0175
10450W        W28654  15.574   3.923   0.245  0.0161 -0.2504 -0.1567
10451W        W28655   7.244  12.910  17.189  0.0768 -0.2188 -0.1726
10452W        W28656   8.219   7.917   2.539  0.1243 -0.1317  0.1091
10453W        W28657   5.728   6.797  14.008  0.1877  0.1693  0.3019
10454W        W28658   0.135   1.071  13.413 -0.0600  0.1201  0.1421
10455W        W28659   2.025  12.461   0.046  0.0784 -0.3078  0.1830
10456W        W28660   4.984   6.155  16.268  0.0397 -0.0741 -0.0169
10457W        W28661   7.857   8.941  17.050  0.0263 -0.0644  0.1257
10458W        W28662  17.373  14.927  16.748  0.2637 -0.1004  0.2963
10459W        W28663   4.005   0.181  16.051  0.1050 -0.0296  0.0123
10460W        W28664   1.653  14.947  13.074  0.1767  0.0530  0.0848
10461W        W28665   0.144   9.744  12.448 -0.1582  0.1516 -0.3363
10462W        W28666   1.154  10.204  14.950  0.2799  0.0219 -0.1837
10463W        W28667   9.663   6.853  13.637 -0.1484 -0.1664  0.0959
10464W        W28668   7.681   5.052  16.629  0.0358  0.0338 -0.2122
10465W        W28669  15.511   6.450  14.840  0.3172  0.0594  0.0799
10466W        W28670  12.540   1.371  16.425  0.0587 -0.1417 -0.3564
10467W        W28671   7.974   6.260  16.161 -0.0854  0.1518  0.1144
10468W        W28672   7.987   8.520   5.036  0.1615  0.0237  0.2208
10469W        W28673   9.496   3.591   2.951  0.1035  0.3267  0.0609
10470W        W28674  11.858  15.162   1.521 -0.1530  0.0960  0.1466
10471W        W28675  11.593   5.241  14.865  0.0382 -0.1892 -0.0839
10472W        W28676   8.883  12.162   3.707 -0.0011 -0.1691  0.0219
10473W        W28677  10.598  13.785  13.900 -0.0166 -0.2958 -0.0040
10474W        W28678  11.759  10.251   2.094  0.0669 -0.2332 -0.0555
10475W        W28679  15.582   6.294   4.299 -0.1037 -0.0581  0.1327
10476W        W28680   4.908  12.723  15.093 -0.1133  0.1716  0.1399
10477W        W28681   5.780   0.991  12.740  0.0270  0.2631  0.2090
10478W        W28682  15.478  11.917   1.357 -0.1501  0.0573 -0.0345
10479W        W28683   7.832  14.996  13.602 -0.4696 -0.3134  0.0587
10480W        W28684  12.761  14.624  14.813  0.0155 -0.1033 -0.2454
10481W        W28685   4.113   7.718  12.042  0.1948 -0.1654 -0.0141
10482W        W28686   7.304  13.858  16.795 -0.2577  0.2630  0.6106
10483W        W28687   5.002  12.660  12.920 -0.0936  0.0363  0.0583
10484W        W28688  17.193   7.972  12.672  0.0816  0.2331  0.1683
10485W        W28689   9.894   6.424  14.418 -0.0371  0.0392  0.1105
10486W        W28690   0.193  11.115  14.761 -0.1531 -0.0229 -0.0563
10487W        W28691   0.324   1.732   5.106  0.1869 -0.0192  0.2193
10488W        W28692   3.514  10.434  16.633 -0.0396  0.3844 -0.1825
10489W        W28693  12.353  12.812  15.308 -0.3553  0.0008  0.0780
10490W        W28694   9.535  13.952  11.851 -0.0554 -0.0981 -0.0145
10491W        W28695   7.816   4.531  15.842 -0.2429 -0.0889 -0.2206
10492W        W28696  11.579   4.159   4.817  0.0280  0.0698 -0.1268
10493W        W28697  10.143   1.381  12.914  0.0895  0.1773 -0.0362
10494W        W28698   2.503   6.085  14.688  0.0023 -0.0584 -0.0815
10495W        W28699  13.746  15.317  14.282 -0.1205  0.0403 -0.0821
10496W        W28700  13.663   9.530   4.428  0.0672 -0.0789 -0.1906
10497W        W28701   5.329  16.639   2.748  0.1533  0.0188 -0.1634
10498W        W28702  13.568   7.107   1.035  0.0468  0.0896 -0.0478
10499W        W28703  13.597   1.190   2.955 -0.3677  0.4430 -0.0331
10500W        W28704   0.013  15.312   1.064 -0.0257 -0.0121  0.0283
10501W        W28705  10.555   7.967  14.865 -0.0099  0.0905  0.1656
10502W        W28706  13.783   0.049   1.237  0.2123  0.2104 -0.1661
10503W        W28707   9.292   3.546  12.804 -0.1067  0.2402  0.2843
10504W        W28708  15.230   2.188  12.689  0.0533  0.0674 -0.4120
10505W        W28709  10.547  15.092  13.830 -0.1056  0.1339  0.0622
10506W        W28710  11.631   4.717  15.006  0.0018 -0.1381  0.0202
10507W        W28711   1.648   1.073  16.504 -0.0794 -0.2252 -0.1197
10508W        W28712  14.617  15.867  12.699  0.0165  0.2110 -0.2543
10509W        W28713   2.945   1.425   3.428 -0.2244  0.0860 -0.1732
10510W        W28714  10.984   0.030  17.025 -0.0309  0.0543  0.0796
10511W        W28715   5.206   2.485   0.571 -0.2172 -0.1180  0.3814
10512W        W28716  17.528   8.627   0.008  0.1828  0.0611 -0.1471
10513W        W28717   6.465  17.318   3.201  0.1868 -0.1694 -0.1848
10514W        W28718  17.075  15.309  15.310  0.0221 -0.0444 -0.0023
10515W        W28719   3.023   6.037   3.388  0.0310 -0.0136  0.0211
10516W        W28720  15.264   6.694  16.764 -0.0547  0.2204  0.0121
10517W        W28721   9.892   0.677  13.159 -0.1443 -0.1119  0.2185
10518W        W28722  11.187  10.837  14.911 -0.1236  0.3321 -0.2037
10519W        W28723  14.665  12.154   0.173 -0.0648  0.0185  0.3935
10520W        W28724   9.334   5.358   0.790  0.0966  0.2547  0.1713
10521W        W28725  12.120   7.166  14.060  0.0150  0.1080  0.0130
10522W        W28726  13.333   8.803  16.093  0.0814 -0.4509  0.0377
10523W        W28727   5.016   0.416  13.779 -0.0554  0.0030 -0.0094
10524W        W28728   4.506  13.946  14.957 -0.1032 -0.1928  0.0668
10525W        W28729   8.962   8.804  12.521 -0.2581 -0.0525 -0.2102
10526W        W28730  10.260   8.599   0.639  0.1774 -0.1715 -0.1598
10527W        W28731   8.955  12.576   0.916 -0.0894  0.0730  0.1737
10528W        W28732  17.166   5.058   0.696 -0.2117 -0.2022 -0.0071
10529W        W28733  15.175  14.682   0.981 -0.4377  0.0379  0.1000
10530W        W28734   8.919   4.268  14.845  0.3715  0.3849  0.0146
10531W        W28735  13.011  16.337  15.249  0.1398 -0.2748 -0.2048
10532W        W28736   0.684   8.495   3.016 -0.0172  0.2750 -0.1613
10533W        W28737   7.756   6.175   2.154 -0.0669 -0.1705 -0.3891
10534W        W28738  11.806   5.995  17.132  0.0158 -0.0403 -0.0694
10535W        W28739   2.834   4.259  16.497 -0.2657 -0.0759  0.3590
10536W        W28740  16.863  12.521  17.060  0.2277 -0.0538 -0.0510
10537W        W28741   1.369   6.272  16.697  0.1381 -0.1240  0.2228
10538W        W28742  16.089  16.938  12.647 -0.0211 -0.0725 -0.0887
10539W        W28743  11.732  11.260  12.884 -0.0403  0.2098 -0.0822
10540W        W28744   7.622  16.747  14.371 -0.2485  0.1372 -0.0194
10541W        W28745   4.787   8.594  16.744 -0.2102 -0.2661 -0.1022
10542W        W28746   4.968  15.493  16.643 -0.1765 -0.2186 -0.0888
10543W        W28747   9.266   4.821   3.055 -0.2509  0.1590  0.0756
10544W        W28748  10.475   0.275   5.209 -0.0859 -0.3574 -0.4536
10545W        W28749  15.700  12.899  16.121  0.4103  0.1872  0.3656
10546W        W28750   8.989   7.594  14.791 -0.4267 -0.1443  0.0476
10547W        W28751   1.245   9.933  12.171  0.0173 -0.2398  0.1718
10548W        W28752  14.535  15.746   1.327  0.1510 -0.1714  0.1452
10549W        W28753   0.860   3.761  14.326 -0.2503  0.1582 -0.0779
10550W        W28754   5.421  10.770  11.789 -0.3097  0.2124  0.0715
10551W        W28755   1.049  12.056  16.751  0.0132  0.0164  0.1865
10552W        W28756  11.463   3.835  15.982 -0.1124 -0.1834 -0.1215
10553W        W28757  10.880   5.473  16.312 -0.4212 -0.1223  0.3964
10554W        W28758   9.745  13.798   1.170 -0.3465  0.2385 -0.0964
10555W        W28759   7.428   6.794   1.884 -0.0744 -0.1040  0.2406
10556W        W28760   9.548  14.868   2.702 -0.0875 -0.0793  0.2693
10557W        W28761   3.433  15.154   0.781 -0.1941 -0.1232 -0.0880
10558W        W28762   1.905  10.489   4.382  0.1135  0.1405 -0.0907
10559W        W28763   4.403  11.221  12.994  0.1796 -0.0790 -0.0890
10560W        W28764  14.293  15.948   6.742  0.4581  0.1944 -0.0488
10561W        W28765   0.996  10.673  15.850  0.0482  0.1314 -0.0234
10562W        W28766  14.227   8.768  13.641  0.2006 -0.1049 -0.0257
10563W        W28767   8.258   4.406   0.932 -0.0989 -0.0587 -0.0643
10564W        W28768   6.974  10.422   1.744 -0.0606 -0.2975  0.0415
10565W        W28769  13.416  17.397   2.970 -0.0618  0.0778  0.0532
10566W        W28770   1.465   7.117   0.751  0.0504 -0.1418  0.0035
10567W        W28771  10.382   5.487   4.892  0.2101 -0.3762 -0.0072
10568W        W28772   4.343  14.447  15.487 -0.1615  0.1092 -0.1075
10569W        W28773  14.533   8.033   0.600 -0.0120  0.0858  0.0500
10570W        W28774   1.092   2.047  12.321  0.1865 -0.1579  0.0201
10571W        W28775   8.763   9.498   2.018 -0.1629  0.0579  0.2259
10572W        W28776  16.592   2.991   3.037 -0.0065  0.4555  0.0968
10573W        W28777   9.880  16.019  12.988 -0.0941 -0.0965 -0.1093
10574W        W28778  12.459   2.834  15.695  0.0250  0.1909  0.3328
10575W        W28779  14.089   7.316  13.326  0.2015  0.0752  0.1123
10576W        W28780   1.884   9.151   4.599 -0.0565 -0.4061  0.1236
10577W        W28781   7.440   3.804   0.800 -0.1465 -0.0116 -0.3060
10578W        W28782  12.743  17.159  13.772  0.0911  0.1135  0.0697
10579W        W28783   8.057   4.193   5.397  0.2227  0.0954  0.2137
10580W        W28784   4.768  12.517   3.404  0.0365 -0.3836 -0.0679
10581W        W28785   4.522  14.157  13.981 -0.1364  0.0304  0.2985
10582W        W28786  15.364   6.847   3.618  0.3647 -0.1627 -0.1370
10583W        W28787   6.735  16.062  12.422 -0.2518  0.0961  0.0885
10584W        W28788   0.266   3.982  16.867  0.1052  0.3675 -0.3079
10585W        W28789  13.400   9.013   0.501 -0.2938 -0.1272 -0.1484
10586W        W28790  10.375   8.256   4.171 -0.1272 -0.2510 -0.1353
10587W        W28791   0.031   6.202   6.310 -0.3240 -0.0935  0.2152
10588W        W28792   1.497   5.375   2.089  0.6867  0.0696  0.1218
10589W        W28793  14.433   9.952   4.514  0.0598 -0.1727 -0.2765
10590W        W28794   1.296   7.815   4.692 -0.0531  0.0405 -0.2110
10591W        W28795   1.331  17.394  16.782 -0.2270 -0.0697 -0.3516
10592W        W28796   7.849  11.517  14.733 -0.2596  0.0953  0.3187
10593W        W28797   8.544   6.042   0.374 -0.2030  0.3073 -0.1201
10594W        W28798  15.562   7.505   2.264 -0.0205  0.3344  0.1509
10595W        W28799   4.058   0.047  12.254  0.1299 -0.1029 -0.1910
10596W        W28800   0.996   5.189  14.403 -0.0190 -0.2415  0.3902
10597W        W28801   9.329  10.550  15.441 -0.1632 -0.1177  0.1841
10598W        W28802  11.957   5.640  13.322 -0.5687  0.2812  0.0761
10599W        W28803   0.387  14.377  16.135  0.0105  0.2925 -0.5546
10600W        W28804  12.677  10.081   3.208 -0.0494  0.1113  0.1767
10601W        W28805  11.864  14.440  15.063  0.0914  0.1927  0.2728
10602W        W28806  16.432  16.845  15.150 -0.6330  0.2506 -0.2306
10603W        W28807  16.100  14.956  12.268  0.1878  0.2989  0.0241
10604W        W28808  14.619   2.279   4.416  0.1796 -0.0148  0.3031
10605W        W28809   7.547   8.789   5.001 -0.0121  0.1781  0.0673
10606W        W28810  12.302  11.050   1.325 -0.0289  0.0358 -0.1396
10607W        W28811   6.357  16.761  15.828  0.3681  0.5128  0.0497
10608W        W28812   2.366  14.340   4.349 -0.0362 -0.0857  0.1530
10609W        W28813  11.545   5.472  16.168  0.1332 -0.2245 -0.1465
10610W        W28814   6.688  14.854   3.776 -0.4808  0.2825  0.1001
10611W        W28815  14.807  16.295   0.640  0.0360  0.1682 -0.1556
10612W        W28816  14.654   9.517   2.295 -0.0278 -0.0057  0.1200
10613W        W28817   9.822  16.574  14.078  0.1882 -0.0530 -0.2599
10614W        W28818   3.059  10.559   4.191 -0.0344  0.0178  0.0047
10615W        W28819  12.968   0.946   5.024 -0.1475 -0.0668  0.0235
10616W        W28820  15.875  16.704  15.364  0.2114  0.1134  0.0364
10617W        W28821  13.713   5.352   1.561  0.0117  0.0493  0.0371
10618W        W28822  15.252  10.926  13.320 -0.2229 -0.0764 -0.0545
10619W        W28823   1.660   4.537   1.863  0.0458  0.1938  0.1408
10620W        W28824  14.998   5.023   2.972  0.0284 -0.2157  0.2428
10621W        W28825   0.190   6.812  11.741  0.0704 -0.1047  0.1690
10622W        W28826  10.927   3.215   5.245  0.0750 -0.2194 -0.0529
10623W        W28827   4.309  16.551   0.592 -0.2454  0.1473  0.2027
10624W        W28828   2.921  13.079   3.715 -0.2303  0.0257 -0.0935
10625W        W28829   9.285   1.128  13.531  0.1016  0.2470 -0.0837
10626W        W28830   3.317   5.614  14.505  0.0223 -0.1056 -0.0524
10627W        W28831  10.389  14.315   5.319  0.0879 -0.1435  0.3246
10628W        W28832  11.346  11.791   4.374  0.3719  0.1553 -0.0817
10629W        W28833  14.060  13.548   4.524 -0.0573 -0.3855 -0.0520
10630W        W28834   8.697  17.269  12.832 -0.0389 -0.0813  0.0089
10631W        W28835   1.624   6.037   1.241  0.0235  0.2301  0.0794
10632W        W28836   3.829  10.028   0.156 -0.0589 -0.2894 -0.2176
10633W        W28837  17.111   2.562  16.338  0.2693 -0.0528 -0.2283
10634W        W28838   9.989   2.841   4.513  0.1766 -0.0372  0.1406
10635W        W28839   0.242  14.130   2.803 -0.0285  0.0132 -0.0027
10636W        W28840   8.134   7.081  14.054  0.2610  0.0237 -0.1559
10637W        W28841   4.710   0.886   0.901 -0.0279  0.1450  0.4605
10638W        W28842   5.695   7.023   5.127 -0.1055  0.0149 -0.0045
10639W        W28843  11.399   3.765  14.033  0.3115 -0.3173  0.1980
10640W        W28844   9.627  13.160  16.769  0.1018  0.1680  0.0054
10641W        W28845   1.153   3.601   4.800  0.1043  0.0333 -0.4255
10642W        W28846  15.162   6.007   4.564  0.0970 -0.1988  0.1876
10643W        W28847   2.506   3.041   2.867 -0.2792  0.0073 -0.0969
10644W        W28848  15.316  10.973  16.481  0.1272  0.0528 -0.1145
10645W        W28849  17.352   7.277  15.516  0.2433 -0.0810  0.0461
10646W        W28850   3.780   3.964   1.121 -0.2025  0.0595 -0.4630
10647W        W28851  12.412  14.077   0.108  0.0369  0.1225 -0.0582
10648W        W28852  14.518   2.472   0.078  0.0685 -0.0929  0.0104
10649W        W28853  11.499   4.101   0.493 -0.1768 -0.0068 -0.0404
10650W        W28854   9.515   5.022  12.599  0.1522  0.1423 -0.1240
10651W        W28855   1.368  12.055  16.265  0.2399 -0.1265  0.2234
10652W        W28856  10.258   1.451  11.499 -0.1078 -0.1157  0.0801
10653W        W28857   5.016   3.803  16.470  0.0374 -0.2565  0.1479
10654W        W28858   0.450  17.088  14.285  0.1069 -0.2329 -0.0614
10655W        W28859   8.652   8.272  16.065  0.2338 -0.2159  0.0809
10656W        W28860   0.098  16.954  16.081  0.1654 -0.2349 -0.1524
10657W        W28861  14.502  10.458   3.598  0.0829 -0.0799 -0.5170
10658W        W28862   5.753   1.547  15.227 -0.0717  0.0387 -0.0882
10659W        W28863   5.892   5.319   4.539  0.0303 -0.0087 -0.2021
10660W        W28864  13.937   0.722   3.203  0.0761  0.1134 -0.0979
10661W        W28865  14.748   2.254   1.068  0.2770 -0.1622 -0.2063
10662W        W28866  13.434   4.326  12.665 -0.0723  0.0771 -0.0264
10663W        W28867   3.429   6.446  12.196 -0.1763  0.1452  0.1633
10664W        W28868  16.314  11.120  12.251 -0.2502 -0.0047 -0.3801
10665W        W28869   6.730   0.209   3.280  0.0532  0.1530 -0.1086
10666W        W28870   6.727   2.496   3.929 -0.2980 -0.0899 -0.1267
10667W        W28871  11.682  15.421   4.698  0.0220  0.0217  0.0826
10668W        W28872  13.239  10.072  13.084 -0.2637 -0.0367  0.1569
10669W        W28873   8.892   1.527   0.002 -0.1416  0.0269 -0.2323
10670W        W28874   2.163   2.465  16.606 -0.1554  0.0644 -0.3103
10671W        W28875   7.196  15.091   3.494 -0.0047  0.1907 -0.0132
10672W        W28876  16.106  10.198  16.391 -0.1183  0.2854  0.1663
10673W        W28877   0.012   3.423   0.266 -0.1764 -0.2911 -0.0654
10674W        W28878  11.275  13.188   5.079  0.1747  0.3800 -0.2494
10675W        W28879   5.122   4.253   1.610 -0.0993  0.1983 -0.0339
10676W        W28880   0.596   4.378   3.893 -0.0433  0.1305 -0.2486
10677W        W28881   9.039   0.969   5.428  0.4440  0.0645  0.1846
10678W        W28882  14.222   9.928  16.734  0.3917  0.1385  0.2765
10679W        W28883  14.612   3.961  14.975  0.0679 -0.0440  0.0411
10680W        W28884  13.866  11.832  16.060  0.0076 -0.0290 -0.2234
10681W        W28885  15.766  12.425   2.242  0.3196  0.0011  0.1309
10682W        W28886  14.233  15.410   5.234 -0.0305  0.0584  0.3535
10683W        W28887   3.747  16.541   1.304  0.0534 -0.0942  0.4749
10684W        W28888   3.378  15.994  15.101 -0.0018 -0.1448  0.3609
10685W        W28889   8.295  11.208  16.760  0.0848  0.0439  0.4124
10686W        W28890   2.034   7.526   1.477 -0.3130 -0.0825 -0.2350
10687W        W28891   2.489   8.280   4.567 -0.0117 -0.1969 -0.0764
10688W        W28892   7.592  10.495  16.501 -0.2188  0.0365 -0.1076
10689W        W28893   5.482   3.783   2.250 -0.1168 -0.1683 -0.0836
10690W        W28894   7.985   7.739   0.615 -0.1744  0.0116 -0.5332
10691W        W28895   4.515  14.556   0.713 -0.0645  0.1214  0.1325
10692W        W28896   9.212  15.182   0.853  0.0272  0.0350  0.0673
10693W        W28897   1.720   3.976   1.004  0.0654 -0.1706 -0.1183
10694W        W28898   3.801   5.616  16.727 -0.0012 -0.0283  0.1238
10695W        W28899  13.558  10.134   2.056  0.1559 -0.1758  0.4115
10696W        W28900   1.189  10.807   2.235  0.1501 -0.0322 -0.0015
10697W        W28901   5.067   2.427  12.269 -0.0460  0.0114 -0.2861
10698W        W28902   1.966  15.710   4.715 -0.0413  0.0371  0.3250
10699W        W28903  17.456  14.196  16.160  0.1102  0.1403  0.0407
10700W        W28904  13.249   8.859   1.416  0.2505  0.0483  0.2733
10701W        W28905  13.318   6.844  13.336 -0.1183 -0.0735 -0.0569
10702W        W28906  12.463  13.820  12.451  0.0700  0.2335  0.0120
10703W        W28907  10.986   0.236  14.647 -0.0929 -0.0333 -0.0314
10704W        W28908  16.878   4.765  11.908 -0.2079 -0.0789 -0.0444
10705W        W28909  17.200   6.419   2.991  0.2776 -0.1106 -0.1028
10706W        W28910   0.004  13.823   5.263  0.2360  0.0365  0.1400
10707W        W28911  14.469   1.731   1.188 -0.0196 -0.1101  0.1371
10708W        W28912   0.558   6.754   2.862  0.2374  0.1299  0.1243
10709W        W28913   4.991  10.786   4.911 -0.4845 -0.0580  0.0235
10710W        W28914  12.765   5.185   6.026  0.1994  0.1201 -0.1183
10711W        W28915   0.636   6.293   2.768 -0.0412  0.0899 -0.1101
10712W        W28916   4.754  10.892   1.000 -0.2407  0.2716 -0.2034
10713W        W28917  12.834  13.385  13.223  0.2013 -0.1138 -0.2810
10714W        W28918  12.514   6.759   0.885 -0.1642  0.2868  0.3109
10715W        W28919  10.788  14.185   2.953 -0.3891 -0.4082 -0.1443
10716W        W28920   6.294  16.898   3.394  0.0006 -0.1084 -0.0304
10717W        W28921  11.677  17.174   2.615  0.0991  0.1282 -0.2563
10718W        W28922   7.003   6.078   4.498 -0.3594  0.0587 -0.1559
10719W        W28923  14.981   8.221  15.018  0.1998 -0.0453 -0.3692
10720W        W28924   5.629  12.785  13.728 -0.0924 -0.1541  0.0541
10721W        W28925   8.327   5.721  15.662 -0.1674 -0.1106  0.0420
10722W        W28926  15.692  16.244  15.260  0.0425  0.3256  0.1718
10723W        W28927  17.059  16.951   4.879  0.0884  0.1732 -0.4021
10724W        W28928  12.732   3.029   1.131 -0.2030  0.1019  0.1410
10725W        W28929  16.125   9.259  12.247 -0.1597 -0.0119  0.0587
10726W        W28930   0.439   7.728  16.070  0.0119  0.2311 -0.2317
10727W        W28931   0.466  13.942   0.437 -0.1060  0.0433  0.0753
10728W        W28932   1.783   1.432   3.078 -0.2829 -0.2032  0.2017
10729W        W28933   9.151  10.854   2.128  0.1623  0.1480  0.5123
10730W        W28934   4.876   5.631   2.323  0.1265 -0.0239 -0.0922
10731W        W28935   2.432  13.989   1.809 -0.1579  0.0126 -0.1460
10732W        W28936   5.568  10.476   3.710 -0.0017 -0.0310 -0.1045
10733W        W28937   1.809   3.487   3.185  0.3090  0.2227  0.2006
10734W        W28938  13.978  17.306  15.851  0.1369 -0.4149  0.1321
10735W        W28939   6.621   4.520   4.837 -0.1744 -0.1153 -0.3385
10736W        W28940   0.251   9.091   3.413 -0.0364 -0.1183  0.0490
10737W        W28941   8.699  15.638   3.456  0.0691 -0.3316  0.0793
10738W        W28942   2.921   7.545  15.939 -0.2369  0.0939  0.3718
10739W        W28943  15.970   2.869  16.019  0.0176 -0.1147 -0.1565
10740W        W28944  11.641   1.921  12.785  0.0584 -0.3031  0.0412
10741W        W28945   8.979   1.160   3.568  0.2277 -0.0195 -0.3034
10742W        W28946  13.440   1.427   5.550  0.3953 -0.0669  0.3888
10743W        W28947   2.808   3.416   4.914  0.1960 -0.1654  0.1990
10744W        W28948  10.553   7.563   0.078 -0.1794  0.1014 -0.0743
10745W        W28949  14.891   2.246   4.813  0.0536  0.3135 -0.1970
10746W        W28950   1.676  10.150  12.149 -0.1652 -0.1671 -0.2513
10747W        W28951   6.213  11.899  16.566 -0.0114  0.3276 -0.0051
10748W        W28952  10.802   6.918  12.168 -0.0616  0.0413  0.0610
10749W        W28953  15.636  16.187   0.439  0.0120 -0.1315 -0.2135
10750W        W28954  14.569  16.580  13.442  0.2638  0.1354  0.1338
10751W        W28955  10.688  10.408  13.873 -0.1665  0.0132 -0.0802
10752W        W28956   9.737  16.167  11.865  0.1227 -0.4588  0.0476
10753W        W28957   4.559  13.272   2.772  0.3889 -0.1094  0.0443
10754W        W28958  12.502  11.154   4.838  0.0599 -0.0688  0.2872
10755W        W28959   4.804  13.576  14.739  0.1800  0.1265 -0.0210
10756W        W28960   2.644   1.047  16.486  0.0840  0.2054  0.0580
10757W        W28961   2.228   9.237   2.441 -0.0428 -0.0974 -0.2404
10758W        W28962   9.959   6.079  16.765  0.0865  0.1036 -0.0518
10759W        W28963   5.681   4.035   3.894 -0.2246 -0.0067  0.0920
10760W        W28964   3.892   3.838  12.828  0.1378 -0.1098  0.3953
10761W        W28965  10.262   3.463  12.694  0.0887 -0.2034 -0.3528
10762W        W28966   8.430   3.915   3.645  0.2718 -0.0287 -0.1502
10763W        W28967   1.214  12.426  16.544 -0.0502  0.0479  0.0459
10764W        W28968  12.279  14.375  12.475  0.0340 -0.2108 -0.2073
10765W        W28969   1.335  12.527  14.329  0.2472  0.3123  0.0014
10766W        W28970  13.205   4.773  12.933 -0.0921  0.0916 -0.2051
10767W        W28971   3.862   5.804   0.030  0.0834  0.3916  0.0022
10768W        W28972  13.901  14.098  14.689  0.3657 -0.2822 -0.1879
10769W        W28973   5.818  12.638  14.158  0.2255  0.0018 -0.0920
10770W        W28974   4.467   7.467  13.762 -0.0207 -0.1398 -0.1733
10771W        W28975   1.131   7.733   2.624  0.0893 -0.1811  0.1129
10772W        W28976  14.756   1.114  15.431 -0.1183  0.0033  0.3005
10773W        W28977  11.990  12.019   5.451 -0.1650  0.1471 -0.2644
10774W        W28978  12.241   1.540   0.881  0.0355  0.3187  0.3550
10775W        W28979  10.907  12.942   3.556 -0.0762 -0.1102  0.1334
10776W        W28980   5.673  15.943  15.941  0.0870  0.0490  0.1346
10777W        W28981   8.338   4.018   2.849  0.1084 -0.1333 -0.1737
10778W        W28982  12.279  12.599  14.428  0.2021 -0.2156  0.1062
10779W        W28983   3.479   6.650   1.583 -0.0170 -0.0186  0.1779
10780W        W28984   7.257  15.643  10.788  0.1979 -0.0528 -0.2573
10781W        W28985   1.700  11.596  11.819  0.0799  0.1537 -0.3258
10782W        W28986   4.961   9.356  15.525 -0.0284 -0.0575  0.2109
10783W        W28987  10.641   7.684  11.865 -0.1224  0.1083 -0.2227
10784W        W28988  11.873   7.450   4.764 -0.2837 -0.2142 -0.2486
10785W        W28989  14.877   8.331   0.833 -0.5098  0.0689  0.1552
10786W        W28990   0.396  11.738  12.634  0.1769  0.2428  0.1608
10787W        W28991   9.067  16.215  14.304  0.1013  0.0966 -0.2155
10788W        W28992   8.776  14.336  15.671  0.0085 -0.0098  0.1290
10789W        W28993  10.347  12.808  16.342  0.0570 -0.1845  0.1309
10790W        W28994   0.286  16.662   3.307 -0.1468 -0.1516 -0.1529
10791W        W28995  16.028   2.960  16.575  0.0335 -0.2243 -0.1178
10792W        W28996   6.230   9.080  13.233  0.0455  0.0915  0.4375
10793W        W28997  13.612  11.509   0.443  0.0023  0.2438 -0.0352
10794W        W28998   7.823   7.173  12.508 -0.2438 -0.0983 -0.0493
10795W        W28999  11.567  15.798   5.068  0.1238  0.1215 -0.1824
10796W        W29000   9.709   2.818  16.583  0.0233  0.1544 -0.0296
10797W        W29001   0.709   5.044   1.147 -0.0026  0.1651 -0.0122
10798W        W29002  15.346   1.226   0.178  0.1515 -0.0450  0.0105
10799W        W29003   3.031  16.776  16.193 -0.0194  0.0219  0.1027
10800W        W29004  10.455   4.381  12.852  0.2568  0.2806  0.0559
10801W        W29005  11.455  12.528  16.335  0.2878 -0.1387 -0.0654
10802W        W29006  16.761  15.617   1.773 -0.2292  0.1282  0.0315
10803W        W29007   0.759  11.015   2.132  0.1792 -0.0493  0.0465
10804W        W29008  12.287   5.741  16.351 -0.0817 -0.2282 -0.2146
10805W        W29009   6.969   7.181  16.042  0.2500 -0.4236 -0.1824
10806W        W29010   2.929  11.465   2.886  0.1511  0.1579 -0.0044
10807W        W29011  16.996  14.677   1.079  0.1288 -0.2221 -0.1851
10808W        W29012   1.632   5.475  11.798  0.1059 -0.0312 -0.1961
10809W        W29013  14.031  14.653  15.984 -0.0530 -0.2143 -0.1857
10810W        W29014   7.070   9.692  13.473 -0.1959 -0.2059  0.0297
10811W        W29015  16.278   0.043   3.863 -0.1534  0.0520  0.0827
10812W        W29016  17.197   9.074  15.298  0.0048  0.1721 -0.1765
10813W        W29017   5.221   7.417  12.496  0.0967  0.1499 -0.2597
10814W        W29018   0.980  16.200   4.606  0.0020  0.1350 -0.3928
10815W        W29019   8.981   5.867  15.121 -0.1651  0.0314 -0.1622
10816W        W29020   4.278   9.410   5.034 -0.5501 -0.1194  0.6448
10817W        W29021  16.666  11.021  11.274  0.1243  0.1658  0.2091
10818W        W29022  10.632   8.535   5.014  0.2025  0.1001 -0.0267
10819W        W29023  17.063   6.242  13.740 -0.1320 -0.2101  0.4155
10820W        W29024  16.631  13.396  11.593 -0.0741  0.1306 -0.1304
10821W        W29025   3.510  15.721  16.691 -0.3736 -0.0626  0.1114
10822W        W29026   1.811   2.401   2.488  0.1988  0.0683 -0.2939
10823W        W29027  12.798   3.064   2.247  0.0695 -0.1820 -0.3169
10824W        W29028   3.346   4.807  13.934 -0.3551  0.1296 -0.0247
10825W        W29029   3.440   2.017  13.347 -0.0397  0.0977 -0.1529
10826W        W29030   9.132   5.918   1.539  0.0598 -0.3136  0.0530
10827W        W29031  17.109  14.676   5.272  0.1413 -0.1831  0.1018
10828W        W29032   1.209  17.149  13.512 -0.3340 -0.4013  0.1718
10829W        W29033   1.277  15.170   0.934  0.0409  0.2087 -0.1082
10830W        W29034   7.880   3.077   4.061  0.0360  0.1736  0.3110
10831W        W29035   0.431  11.459   1.992 -0.0929 -0.0621  0.0221
10832W        W29036   8.833  14.010   5.043  0.2163  0.1285 -0.2352
10833W        W29037   8.379   6.949  16.928 -0.0120 -0.1042 -0.0125
10834W        W29038  14.129   7.767   4.695 -0.2224 -0.0022  0.0879
10835W        W29039   0.162   2.440  15.835  0.0604  0.1220  0.1670
10836W        W29040   7.640  10.491  15.129  0.0245 -0.2496 -0.3375
10837W        W29041   9.949  13.699  12.057 -0.0115  0.0536 -0.0688
10838W        W29042  13.088  12.468   1.716  0.1662  0.0370 -0.0507
10839W        W29043   0.306  15.268   0.674 -0.1409  0.0288 -0.4422
10840W        W29044   8.828   2.233  16.948  0.1491  0.0774  0.0693
10841W        W29045   4.766  14.990  13.029  0.1101 -0.2425  0.0267
10842W        W29046   4.445   5.740  13.641  0.1670  0.1111  0.1506
10843W        W29047  13.785  14.998  13.256 -0.1212  0.0027  0.2811
10844W        W29048   6.953   7.335  16.587 -0.0632 -0.1129  0.0918
10845W        W29049   2.657   4.389   3.853 -0.0064  0.1321  0.3097
10846W        W29050   2.860   3.379   4.408 -0.1230  0.2300  0.2914
10847W        W29051   1.585   7.531   3.598  0.2785 -0.0000 -0.0733
10848W        W29052  10.859   7.471  14.994 -0.0306 -0.2458 -0.1896
10849W        W29053  12.788  15.229   0.867 -0.1682 -0.0358  0.0165
10850W        W29054  10.353   6.434   4.370 -0.0747 -0.1400  0.0122
10851W        W29055   9.585  12.704  15.877 -0.2539 -0.0958 -0.0191
10852W        W29056   3.752  15.846  15.779  0.1838 -0.1248  0.2379
10853W        W29057  12.158  14.419   5.362  0.1263  0.0777 -0.1065
10854W        W29058   6.928   5.421  12.598  0.2800  0.0909  0.3113
10855W        W29059   8.140   2.434  12.517  0.1294  0.1899  0.1049
10856W        W29060  12.278   0.502  15.043  0.0987  0.1541 -0.0034
10857W        W29061   1.961   5.666  12.756  0.0950 -0.1227 -0.1258
10858W        W29062  13.173  10.574   0.714  0.1868  0.1024  0.2934
10859W        W29063   4.894  11.191   3.414  0.3822 -0.0885 -0.0099
10860W        W29064   0.446   8.626   0.902 -0.0440  0.3001  0.1647
10861W        W29065   9.958  14.903   1.490 -0.0704 -0.1856 -0.2239
10862W        W29066   1.641   1.138   4.569  0.0668 -0.2107 -0.0326
10863W        W29067   7.685   9.878  11.776 -0.0447  0.1882 -0.1399
10864W        W29068   4.440  12.936   5.148 -0.3073  0.0790  0.0591
10865W        W29069  14.202   0.246  13.161 -0.0674  0.1088 -0.2228
10866W        W29070  16.128  10.512  14.893 -0.3535 -0.3839  0.4188
10867W        W29071  12.871   4.560   3.606  0.0305 -0.1158 -0.1418
10868W        W29072   0.904   3.001  13.922 -0.2014 -0.3733 -0.1522
10869W        W29073  10.342   0.976  15.848 -0.1738 -0.2670 -0.0788
10870W        W29074   0.697  16.928   1.541  0.1275  0.0349  0.2363
10871W        W29075   3.136  10.013   4.829 -0.4065  0.1572 -0.2208
10872W        W29076   7.567  16.484   5.019 -0.0144 -0.0271  0.4827
10873W        W29077   6.623  10.032  14.973 -0.0574  0.4642 -0.0271
10874W        W29078  17.113   8.479  12.726 -0.2013 -0.1428  0.1266
10875W        W29079  14.033  14.826   4.721 -0.1132  0.1097 -0.2576
10876W        W29080  10.520  12.859   5.281 -0.1681 -0.0264 -0.2915
10877W        W29081   4.324  10.408  15.142  0.1043  0.1687  0.0993
10878W        W29082   2.423   9.790   4.568 -0.0936 -0.3436  0.0609
10879W        W29083   0.036   8.364  15.343 -0.2558  0.2393  0.0951
10880W        W29084  13.110  16.024  12.638 -0.0773 -0.1728 -0.0605
10881W        W29085  17.048  13.020   0.093  0.2739 -0.3029 -0.1398
10882W        W29086  11.264   0.091  12.655  0.0910 -0.1596  0.0039
10883W        W29087  17.201   6.992  15.082  0.1336  0.3341  0.1612
10884W        W29088   0.650   3.759  13.529 -0.1407  0.5537 -0.2786
10885W        W29089   6.545  14.048  15.400 -0.2856 -0.0814  0.1138
10886W        W29090   1.145  10.741  14.932  0.1023 -0.0451  0.0740
10887W        W29091   2.230  10.033   1.084 -0.1812 -0.1592 -0.1985
10888W        W29092  15.130   0.056   0.957 -0.0634  0.2172 -0.2337
10889W        W29093   0.237   2.029  12.944 -0.2230  0.0497 -0.0484
10890W        W29094  17.171   3.475   4.903  0.0091  0.0948  0.2528
10891W        W29095   1.699   9.792   3.243 -0.1819 -0.0970  0.1125
10892W        W29096   2.688  12.985  14.306 -0.1680 -0.1693  0.0205
10893W        W29097   4.319   1.596  16.762  0.2933  0.2110 -0.0973
10894W        W29098  11.576   4.941   0.546  0.0764  0.0380  0.2698
10895W        W29099   7.724  15.185   1.770 -0.1662 -0.0260  0.0424
10896W        W29100  14.853   1.302  13.632 -0.0550 -0.1380  0.3537
10897W        W29101  11.128   5.270  14.622 -0.1124 -0.0304  0.2384
10898W        W29102  16.193   3.095  14.422  0.0287  0.0971  0.0443
10899W        W29103   3.445   8.464  13.630  0.2857 -0.0182 -0.1994
10900W        W29104   7.930  10.000   4.093 -0.1447  0.2016  0.1680
10901W        W29105   9.670  10.333   0.261  0.0573 -0.1234 -0.0739
10902W        W29106   3.543  13.220   1.902 -0.3174 -0.1149 -0.0563
10903W        W29107   9.066   8.272   3.945  0.0152  0.2048  0.1519
10904W        W29108  14.369   0.296   5.094 -0.1435 -0.1466 -0.5181
10905W        W29109   0.500   5.940  16.401  0.1501  0.1637  0.1504
10906W        W29110   6.209   5.257   3.112 -0.2293 -0.2016 -0.2131
10907W        W29111   3.466   4.311   4.221  0.2267 -0.1024  0.0582
10908W        W29112  16.389   6.867  17.082 -0.3453  0.0782  0.3712
10909W        W29113   1.909  12.887  16.433  0.3266  0.0073  0.2674
10910W        W29114  10.001   5.691   1.299 -0.0376  0.2334 -0.2102
10911W        W29115  11.773  17.508   1.212  0.0778 -0.1063 -0.0871
10912W        W29116  17.288   1.356   3.536  0.0387  0.0009  0.1114
10913W        W29117   4.657  11.295  15.486 -0.0821  0.1975  0.0226
10914W        W29118  15.553  15.001  17.049  0.1344  0.1818  0.2268
10915W        W29119  14.623   2.877  15.195 -0.0726 -0.0984 -0.0971
10916W        W29120  13.016  13.856  14.658 -0.1299  0.2047 -0.2407
10917W        W29121  10.365   9.067   0.214  0.0265  0.0652  0.1558
10918W        W29122  16.005   8.990   1.473 -0.2658 -0.0592  0.0623
10919W        W29123   0.025   4.327  16.665 -0.0925  0.0111 -0.1189
10920W        W29124  14.055   7.394  16.420 -0.1969 -0.0031 -0.2142
10921W        W29125  10.897  11.331   0.602  0.1090  0.0219 -0.1953
10922W        W29126  13.538  16.146  15.134  0.3322  0.3660  0.3035
10923W        W29127  10.513   7.891   0.486 -0.0504 -0.1914  0.0106
10924W        W29128   6.455   0.920   4.228 -0.3428 -0.3589 -0.2264
10925W        W29129   5.775  15.332  12.503 -0.0550 -0.0072 -0.1480
10926W        W29130  16.707   2.286  14.506 -0.0468  0.0117 -0.1164
10927W        W29131   1.865  12.955  17.190 -0.1551  0.2977  0.0599
10928W        W29132  14.854   5.495   5.387 -0.1641 -0.4789 -0.1651
10929W        W29133  12.740  11.144  14.381 -0.0725 -0.0328  0.0338
10930W        W29134   8.893   3.058   0.821 -0.3704 -0.2079  0.0100
10931W        W29135  13.124   2.576   3.116 -0.1338  0.0838  0.3478
10932W        W29136  14.013  10.095   0.946 -0.2609 -0.0283  0.0023
10933W        W29137   6.083   6.346  14.251  0.1398  0.0509 -0.1117
10934W        W29138  14.116   1.290   0.061  0.1341 -0.1759 -0.0408
10935W        W29139   8.925   6.282   0.032  0.0526  0.0431  0.0731
10936W        W29140  10.002  12.427  15.960 -0.0562 -0.1373  0.0098
10937W        W29141  15.079   0.862  12.636  0.3418  0.2248 -0.0966
10938W        W29142  11.301   7.895  13.027  0.1615  0.1791  0.2344
10939W        W29143   2.936  13.164   5.000 -0.0634  0.0630  0.1145
10940W        W29144   3.433  16.721  12.194 -0.0085  0.0271  0.0615
10941W        W29145  17.464  11.551   3.730  0.4203 -0.1302 -0.2492
10942W        W29146  11.211  11.610   2.220  0.1065 -0.1226 -0.0164
10943W        W29147   6.440  13.847   2.259  0.0026 -0.3731 -0.0226
10944W        W29148  16.517   3.771   2.818  0.2297  0.1716  0.0603
10945W        W29149   0.775  11.032  16.153 -0.1279 -0.0991 -0.0618
10946W        W29150  16.421  11.324   0.468 -0.0405  0.0714  0.2711
10947W        W29151  13.549   1.918  16.822 -0.0849  0.0930 -0.1967
10948W        W29152   2.832   3.945   3.494 -0.0487  0.0256  0.0224
10949W        W29153   8.567  10.674   1.091  0.0861  0.0825  0.0146
10950W        W29154   0.994  15.523  13.914 -0.0273  0.0860  0.0242
10951W        W29155   2.175  11.731   4.671  0.0808 -0.0785 -0.1102
10952W        W29156   9.258   5.229   3.376 -0.2319  0.0901 -0.0104
10953W        W29157  16.498  13.173  14.644  0.3056  0.0114  0.0722
10954W        W29158   3.286  10.654  15.203 -0.0457  0.1681  0.0573
10955W        W29159  15.917  16.712   3.956 -0.2251 -0.1347  0.0482
10956W        W29160   1.763  12.890   4.402 -0.0501 -0.0324  0.1855
10957W        W29161  12.182   4.789   0.888  0.3755  0.2207 -0.1265
10958W        W29162   0.745   2.404   3.866 -0.0618 -0.0402  0.2504
10959W        W29163   3.697  11.774   0.879 -0.5027  0.1902 -0.5440
10960W        W29164   2.295  16.226   2.695 -0.0228 -0.0600  0.3248
10961W        W29165  12.012   8.534   2.507 -0.0078 -0.0401 -0.3043
10962W        W29166  14.890   7.938  16.457  0.2179 -0.3801  0.0373
10963W        W29167   6.973   7.820  16.416  0.0535  0.2304  0.0444
10964W        W29168  12.413   7.282   0.223  0.0567 -0.0626  0.4047
10965W        W29169   0.172   8.913  14.002 -0.0357 -0.1452 -0.0561
10966W        W29170  12.969   4.963  15.073 -0.0556 -0.0943  0.0781
10967W        W29171   3.109  15.501  15.014  0.2190 -0.1394 -0.2449
10968W        W29172   6.376   4.184  12.587  0.1443 -0.2751  0.1758
10969W        W29173  10.936  15.152   1.936 -0.2305 -0.1081  0.0151
10970W        W29174   1.761   7.880   4.564 -0.0608  0.0980 -0.1328
10971W        W29175   7.751  14.009   2.803 -0.5387  0.1113 -0.0105
10972W        W29176   1.936   5.238  16.113  0.0123  0.0944 -0.0180
10973W        W29177   9.240   4.431  13.506  0.0371  0.0388  0.0476
10974W        W29178   6.617   0.899   0.351 -0.2901  0.2316  0.1183
10975W        W29179   9.412   9.316   4.892 -0.0798 -0.1004  0.0338
10976W        W29180   9.641   2.458  17.267 -0.0915  0.1194  0.3195
10977W        W29181   1.256   4.043  17.091 -0.0820 -0.0786  0.0682
10978W        W29182   3.409   2.368  12.970 -0.3142 -0.1904  0.1882
10979W        W29183  15.163  15.989   4.728 -0.0339  0.0087 -0.2222
10980W        W29184   8.074  10.831   1.202 -0.5638  0.0488  0.0844
10981W        W29185  10.833   3.475  14.098 -0.1672  0.2785  0.0660
10982W        W29186  13.938  11.022   1.330  0.0824 -0.2473 -0.2073
10983W        W29187  10.068  12.896  14.524  0.0394  0.2613 -0.0863
10984W        W29188   7.979  16.687  12.366  0.0373 -0.1561  0.0383
10985W        W29189   1.464  13.031  15.085 -0.0618  0.0557 -0.1602
10986W        W29190  12.010   8.740   0.816 -0.1630  0.4087 -0.2177
10987W        W29191  11.028   6.435   1.246 -0.0413  0.0065 -0.0851
10988W        W29192  17.507  13.755  16.373  0.1550  0.0619 -0.1299
10989W        W29193  17.216   1.624  14.287  0.1311  0.0390  0.0157
10990W        W29194   2.560   6.237   4.661  0.2066 -0.2002 -0.0675
10991W        W29195   7.361   9.004   0.347 -0.0312 -0.1314 -0.3128
10992W        W29196  16.668   0.217   1.734  0.1884  0.0870  0.0300
10993W        W29197  16.327   0.769  16.082 -0.1832 -0.0971 -0.2744
10994W        W29198   8.258   9.630  12.650 -0.2851  0.3442  0.1368
10995W        W29199   0.031  17.181  15.170  0.0377 -0.2386 -0.1863
10996W        W29200  10.470  10.505   3.615  0.1885  0.1220  0.2276
10997W        W29201   9.453  11.725   4.723 -0.1649 -0.1592  0.4462
10998W        W29202  12.545  15.461  14.477 -0.0198 -0.2452  0.1309
10999W        W29203  13.563  14.305  15.199  0.0443  0.1096 -0.2876
11000W        W29204  13.541  10.534  17.288  0.0537 -0.0781  0.0788
11001W        W29205  12.542   8.552  12.153 -0.0348 -0.1718 -0.2278
11002W        W29206   1.717   9.951   1.096 -0.1340  0.1609  0.0866
11003W        W29207   2.281   4.277  15.687  0.1702 -0.0548  0.3913
11004W        W29208  12.489   0.337  13.121  0.1408  0.0665 -0.1568
11005W        W29209   9.337   9.963   0.400 -0.2797 -0.0219  0.1041
11006W        W29210   3.969   2.948   5.298 -0.1243  0.1797  0.2013
11007W        W29211  10.559   3.741   5.203 -0.1027  0.2191 -0.2342
11008W        W29212   6.125  13.920   3.031 -0.2064 -0.0398 -0.2926
11009W        W29213  10.036  13.212   3.980 -0.2046  0.0093 -0.2051
11010W        W29214  15.274  14.877   1.524 -0.1437  0.2411  0.0042
11011W        W29215   5.641  13.549  12.988  0.1062 -0.4893  0.1599
11012W        W29216  16.132   8.316  17.062  0.3538  0.3000  0.0578
11013W        W29217   1.887   0.679   4.942  0.0052 -0.0539 -0.1835
11014W        W29218  12.861  10.922   4.238 -0.2079  0.1427  0.5540
11015W        W29219  12.441  15.622  14.991  0.0254  0.3833  0.2481
11016W        W29220  10.895   9.826   1.338 -0.0668 -0.0924 -0.1057
11017W        W29221   7.649   3.226  15.212 -0.2288  0.0353 -0.0132
11018W        W29222   4.733   7.538   2.691 -0.0232  0.5290 -0.1407
11019W        W29223   8.725  12.052  16.969 -0.2477 -0.1464  0.1457
11020W        W29224  11.371   8.084  13.477 -0.0586 -0.1351 -0.1500
11021W        W29225   0.543   7.514   0.061 -0.1933 -0.3440  0.1910
11022W        W29226  10.036  10.936   3.683 -0.2808 -0.1294 -0.3620
11023W        W29227  16.264   3.675  12.419  0.3705 -0.0911  0.0223
11024W        W29228   3.565   7.079   0.639  0.0675 -0.2547  0.0024
11025W        W29229   1.645  16.479   0.918 -0.0382  0.1861 -0.1223
11026W        W29230   0.641   3.979   1.311  0.0937 -0.0785  0.2581
11027W        W29231   1.143   4.621  13.520  0.1289 -0.2053 -0.0780
11028W        W29232  12.861  14.491  15.897  0.1550  0.0827 -0.1369
11029W        W29233   3.305   4.562   1.234 -0.0066 -0.1125  0.2644
11030W        W29234  13.849   1.836   4.538 -0.1024  0.3527  0.4324
11031W        W29235  14.155  12.095  12.140 -0.0017  0.1763  0.4227
11032W        W29236   5.916   1.335  14.711 -0.0077 -0.1288 -0.0471
11033W        W29237  16.493   3.941  13.464 -0.0184 -0.0688 -0.0484
11034W        W29238   9.543  14.815   0.597  0.0746 -0.2977  0.0223
11035W        W29239   9.029   7.851   4.491 -0.2170  0.0821  0.0889
11036W        W29240   3.403  10.329  12.091  0.1719  0.1326 -0.0716
11037W        W29241   1.083   6.680   0.964 -0.3660  0.1409  0.1511
11038W        W29242   0.769   2.983   0.396 -0.0365  0.0952 -0.1418
11039W        W29243   4.549  12.962   1.122 -0.1530  0.2149 -0.2188
11040W        W29244  15.214   0.520  14.737  0.1175  0.3344  0.0835
11041W        W29245  15.752   0.223  13.091 -0.0519  0.0252  0.0285
11042W        W29246  13.575  17.372  16.109  0.0913 -0.0424  0.0512
11043W        W29247  10.217  16.366   0.185 -0.1842 -0.2144 -0.2349
11044W        W29248   7.500   1.033   3.141  0.2318  0.2040  0.2521
11045W        W29249  10.641  14.952   0.533  0.3111  0.0847 -0.1502
11046W        W29250  15.849   5.127  16.148  0.1685 -0.1864 -0.2150
11047W        W29251   0.189   2.031  11.750  0.0120  0.0639 -0.3080
11048W        W29252  12.107  12.522  14.902  0.2309  0.1316 -0.1684
11049W        W29253   2.820   4.940   0.090  0.4263  0.0455 -0.0747
11050W        W29254  15.009  16.441  15.571 -0.1149  0.0375 -0.2046
11051W        W29255   8.159   2.140   0.490  0.0953 -0.0785 -0.3165
11052W        W29256   5.969   3.131  16.534 -0.1942 -0.3857 -0.0649
11053W        W29257   3.981  12.766  14.004  0.0544  0.1420  0.0319
11054W        W29258  12.614  15.134   4.339  0.3867 -0.1694 -0.2988
11055W        W29259   9.226   1.096   0.774 -0.0485 -0.0304 -0.1599
11056W        W29260   0.418  14.453  11.970 -0.0397  0.0953 -0.2601
11057W        W29261  16.043  11.724   3.189 -0.1788  0.0332  0.0630
11058W        W29262   6.265  16.265   1.313  0.4421  0.2218  0.0941
11059W        W29263   8.408   3.968   1.612 -0.0421 -0.1986 -0.0525
11060W        W29264   7.572   6.563  16.286 -0.2018  0.3353  0.0750
11061W        W29265   0.630  14.174  12.368 -0.2888 -0.1041  0.0117
11062W        W29266  17.287  13.679   4.389  0.4200 -0.2196  0.0283
11063W        W29267   8.756  15.581  16.995  0.3615 -0.2016  0.1708
11064W        W29268  16.253   6.531  16.085  0.4369 -0.0456  0.0765
11065W        W29269   9.706  12.800   4.054 -0.0248 -0.1263  0.0702
11066W        W29270   8.799   9.270   2.580 -0.2131 -0.0432  0.0399
11067W        W29271  12.672   1.079   0.724 -0.1198 -0.1213  0.0224
11068W        W29272  12.182  13.798   0.636  0.2445  0.1702  0.1497
11069W        W29273   8.687   8.778   0.720  0.0420  0.3531 -0.1000
11070W        W29274  14.242   6.357   0.712  0.3742  0.4968 -0.2799
11071W        W29275  13.154  14.990   3.134  0.2513 -0.2230  0.2159
11072W        W29276   7.131   1.724   4.957 -0.0347  0.4520 -0.0761
11073W        W29277   4.528   5.970  16.593 -0.1128 -0.0614 -0.1093
11074W        W29278  17.188   1.857   1.239 -0.2590 -0.3105 -0.0205
11075W        W29279  15.126  16.514   4.841  0.1232  0.0847  0.1731
11076W        W29280  14.507   2.531  16.813 -0.1484 -0.3035 -0.2711
11077W        W29281  14.523   8.600  14.158  0.1355  0.1208 -0.1562
11078W        W29282   2.874  11.978   3.657 -0.0169  0.0272 -0.2932
11079W        W29283   6.403  11.380   0.619  0.0684  0.4562  0.1889
11080W        W29284   7.211  15.161   4.503 -0.1004  0.1786 -0.0702
11081W        W29285  13.701  12.679  13.538 -0.3018 -0.0002 -0.0450
11082W        W29286   9.373  16.792   4.963 -0.1460 -0.0223 -0.0723
11083W        W29287   3.322   0.596   0.148 -0.1414  0.1855 -0.0331
11084W        W29288   8.236  11.551  14.333  0.0540  0.1807 -0.1339
11085W        W29289  16.763  14.656   3.961  0.0618  0.1361  0.1664
11086W        W29290   1.731   7.453  12.083 -0.1770  0.0473 -0.3768
11087W        W29291  15.824   5.780  13.018  0.0897 -0.4236 -0.0978
11088W        W29292  13.523   4.174  13.520  0.0842 -0.1577 -0.5362
11089W        W29293   8.779   9.563  12.880  0.2265 -0.1854 -0.5387
11090W        W29294   6.056  16.303  15.815  0.2183 -0.3339  0.0034
11091W        W29295   4.557  10.362   4.022 -0.1435 -0.2181  0.4316
11092W        W29296  12.629   3.058  14.766  0.0029 -0.0532  0.1719
11093W        W29297  13.630  16.991  16.605 -0.1513 -0.1362  0.0084
11094W        W29298   1.697   3.113   0.010 -0.4051  0.1755  0.0607
11095W        W29299  14.072   7.189  15.534 -0.0544  0.0639  0.2752
11096W        W29300  12.618  14.833   1.184 -0.0020  0.0314 -0.0812
11097W        W29301  15.871   5.799   2.074 -0.0427  0.0480 -0.1645
11098W        W29302   5.598  15.944   1.022  0.1452  0.1390  0.1933
11099W        W29303   1.143   4.697   1.114 -0.2376  0.2143  0.1153
11100W        W29304   0.275  13.303  12.721  0.3860 -0.0702  0.3778
11101W        W29305   8.789   9.481   1.376 -0.0153 -0.1072 -0.2135
11102W        W29306  12.144   1.015   0.816 -0.3289 -0.2661 -0.3085
11103W        W29307   3.100  16.215  16.249 -0.2888 -0.0350 -0.3787
11104W        W29308  12.395  11.749   0.546  0.1931  0.1490 -0.0016
11105W        W29309   6.185  10.411  15.932  0.0534 -0.2462 -0.1579
11106W        W29310  13.941  11.788   0.861  0.0152  0.2019  0.1887
11107W        W29311  16.404  16.234  13.452  0.2497 -0.0318  0.3382
11108W        W29312   4.857  11.685   3.410  0.3351 -0.0156  0.2429
11109W        W29313   5.551   3.718   1.777  0.1582  0.1548 -0.0031
11110W        W29314   8.223   1.282   4.657  0.4479  0.0573  0.0137
11111W        W29315  14.393  12.881   0.574  0.1050  0.0915  0.3768
11112W        W29316  11.116  11.351   6.310 -0.2325  0.0595  0.0719
11113W        W29317  11.501   9.153   2.411  0.1676  0.1275 -0.0174
11114W        W29318  14.144   5.014  16.437 -0.0537  0.2418  0.1677
11115W        W29319  15.788  13.888   4.467  0.0436  0.3031  0.2321
11116W        W29320  13.847   8.778  16.948  0.0006  0.1040  0.0790
11117W        W29321  10.442   7.110  16.592  0.1273 -0.2984  0.0623
11118W        W29322   9.956  10.351  16.625  0.2134  0.0177 -0.1438
11119W        W29323  11.452  11.420   3.712  0.1079 -0.2936 -0.0136
11120W        W29324   2.820   6.074   5.484  0.1791 -0.0717 -0.0220
11121W        W29325  12.229   5.033  15.619 -0.1601 -0.3120 -0.1481
11122W        W29326  12.687   8.414  16.941  0.1844  0.0132  0.1650
11123W        W29327   2.376  15.258   1.913  0.0392  0.0868 -0.1247
11124W        W29328   4.293   4.207   1.097  0.0037 -0.1015  0.1302
11125W        W29329   6.263   4.862  15.302 -0.0149  0.0458 -0.0567
11126W        W29330   3.762   6.305   1.384 -0.1529 -0.4199 -0.1376
11127W        W29331  14.638   6.364   3.926  0.1015 -0.1381 -0.2155
11128W        W29332   9.073   1.728  16.873 -0.1657 -0.1288 -0.1905
11129W        W29333   4.695   2.500  16.058 -0.0303  0.1348 -0.0955
11130W        W29334  17.100   7.729  14.596  0.1639  0.1134  0.0805
11131W        W29335   6.717   2.730  16.047 -0.2264 -0.1651 -0.6263
11132W        W29336  16.676   8.921  12.780 -0.1288  0.0159 -0.1946
11133W        W29337   5.093   5.135   2.421 -0.2640 -0.0021 -0.0581
11134W        W29338  11.064   0.210   0.353  0.2061 -0.2742  0.3351
11135W        W29339   7.087  12.947  16.046 -0.0242 -0.1362 -0.1183
11136W        W29340   9.732   0.804  15.013 -0.1392  0.0123 -0.1078
11137W        W29341   1.745   3.977   3.574  0.2049  0.0833 -0.0337
11138W        W29342   8.610  10.660  15.218 -0.2559  0.1704 -0.2069
11139W        W29343  14.815   5.305  11.842 -0.0027 -0.1232 -0.0576
11140W        W29344   4.287  13.878  15.430 -0.0067  0.1483  0.0844
11141W        W29345   9.079   8.841  13.957  0.4986 -0.1603 -0.2026
11142W        W29346  15.359  11.683   3.494 -0.0782  0.1294 -0.1068
11143W        W29347  15.918  14.872   5.374 -0.1624 -0.0493 -0.0717
11144W        W29348  11.842   1.270  16.202  0.1643  0.2990  0.2156
11145W        W29349  12.055  10.962  16.953  0.0960 -0.0056  0.1760
11146W        W29350   1.245  16.027   4.199 -0.2051  0.0537  0.1268
11147W        W29351  10.300   8.156   3.293 -0.0908 -0.0378  0.3267
11148W        W29352   7.221   1.643   1.378  0.2227  0.0506 -0.2325
11149W        W29353   2.177  12.967  13.380  0.2170  0.0107  0.0206
11150W        W29354  13.361   3.303  15.915 -0.0147  0.0356  0.0302
11151W        W29355   7.891   5.663  12.656 -0.0918  0.2825 -0.1765
11152W        W29356   1.607   3.624  12.076  0.0621 -0.0641  0.0069
11153W        W29357  16.557   8.848   3.690 -0.2968 -0.1134 -0.1467
11154W        W29358   7.856  10.097   6.051 -0.0943  0.0301  0.0683
11155W        W29359   9.502   3.453  13.934 -0.1298 -0.2509 -0.0638
11156W        W29360   0.748  12.005   5.010  0.1399  0.0355  0.4281
11157W        W29361   4.023   6.721   3.661 -0.0272  0.1632 -0.1082
11158W        W29362  10.272   1.277  16.447  0.2820 -0.0578 -0.0588
11159W        W29363   6.372  17.431  16.380  0.3033 -0.0305  0.0781
11160W        W29364   1.542   4.794  14.673 -0.0849  0.0004 -0.1443
11161W        W29365   5.392   8.020  13.132  0.2459 -0.2247  0.4295
11162W        W29366  12.890  14.203  15.332 -0.1013  0.0535 -0.1025
11163W        W29367   0.841  12.232  16.240 -0.1361 -0.0769  0.1323
11164W        W29368   4.852   4.689   0.854 -0.0930  0.0446 -0.3199
11165W        W29369   1.582   8.718  12.040 -0.3058  0.0035 -0.1052
11166W        W29370  10.445   6.515   5.018 -0.0434 -0.0318 -0.0442
11167W        W29371  15.671  16.081  16.613  0.3343 -0.3316 -0.1285
11168W        W29372  11.217  13.940   2.914 -0.0970 -0.1659 -0.2040
11169W        W29373   2.122  15.153   4.706 -0.1164 -0.3946 -0.1545
11170W        W29374  15.380   1.648  13.586 -0.2073  0.1074  0.1110
11171W        W29375  13.432   5.048   1.864 -0.1768  0.0265 -0.2790
11172W        W29376  13.959  10.218  11.799 -0.1025 -0.0154  0.0183
11173W        W29377   4.525   9.417   1.868 -0.1258 -0.2375  0.3975
11174W        W29378  13.321   5.071  12.535 -0.0710  0.0320 -0.1829
11175W        W29379  11.163  14.473  13.498  0.2365  0.0500  0.2063
11176W        W29380   7.870   2.663   0.207 -0.1917 -0.0025 -0.3035
11177W        W29381  17.474   8.569  14.510 -0.0966 -0.2613  0.1900
11178W        W29382  11.255   7.535   2.752 -0.0219  0.1864  0.3159
11179W        W29383   7.213   3.620   2.897 -0.0232  0.2741 -0.0388
11180W        W29384  10.703  15.537   4.519 -0.2625 -0.1749  0.0036
11181W        W29385   6.682   9.636  15.369 -0.2479  0.2064  0.0425
11182W        W29386  10.984   4.284   2.991  0.2159 -0.0956  0.0912
11183W        W29387   1.488  16.083   2.132  0.0521 -0.1803  0.0306
11184W        W29388  12.466   4.628  15.803 -0.3009  0.1122  0.0478
11185W        W29389   0.666   6.248  13.569  0.1040 -0.0760 -0.2942
11186W        W29390  16.131   4.820  15.864  0.1499 -0.2369 -0.0480
11187W        W29391  10.202  17.437   4.863  0.1448  0.0648 -0.4395
11188W        W29392  13.495   4.935   2.902 -0.0952  0.0858  0.1796
11189W        W29393   0.915  11.570  12.775 -0.1999  0.0960  0.0763
11190W        W29394  17.285   0.630   0.354  0.0306 -0.1486  0.1179
11191W        W29395   9.249  10.330  17.279  0.1039  0.1699  0.1251
11192W        W29396  12.404  10.020   4.559 -0.0861 -0.2004 -0.1811
11193W        W29397  12.537   7.870   2.485 -0.0194 -0.1839 -0.1977
11194W        W29398   4.784  15.089  16.524  0.2656 -0.2139  0.0320
11195W        W29399  16.441   9.341  15.657  0.0218  0.0934  0.0418
11196W        W29400  10.679  10.526   0.273  0.2507 -0.0047  0.1462
11197W        W29401  15.121   5.905   1.485 -0.0581 -0.4051  0.0372
11198W        W29402   3.764   4.969   1.677  0.0120 -0.0571 -0.2563
11199W        W29403  16.045  15.518   2.530 -0.1901  0.0637  0.1154
11200W        W29404   9.997  15.704  14.410  0.0728  0.0091 -0.1878
11201W        W29405  11.997  13.018   4.235 -0.3948 -0.1043  0.2366
11202W        W29406  14.563   0.788   4.920  0.1247 -0.1863  0.1986
11203W        W29407  13.919   2.075  13.338 -0.1536  0.5547 -0.1241
11204W        W29408   8.361   3.416  17.277 -0.0869 -0.1359  0.0358
11205W        W29409   5.304   8.913  17.081  0.0637 -0.1857 -0.0110
11206W        W29410   3.120  16.721   1.215  0.0306  0.0325 -0.0515
11207W        W29411  15.941  15.483   4.455 -0.0918  0.4265 -0.0174
11208W        W29412  10.289  16.680  15.969 -0.1971 -0.0599  0.1090
11209W        W29413   7.985   0.438  13.342  0.0246  0.2847 -0.0674
11210W        W29414   3.653  17.085  13.379 -0.3018 -0.0707 -0.1738
11211W        W29415   1.218   6.800  16.824  0.0266 -0.0443  0.2666
11212W        W29416   2.209   2.879   5.594 -0.4670  0.1760  0.1031
11213W        W29417   9.099   2.900   1.193 -0.4189 -0.2420  0.0340
11214W        W29418   5.029  16.288  14.419 -0.1551  0.1163  0.2761
11215W        W29419   0.512  11.484  16.171  0.3314  0.2813  0.1126
11216W        W29420  14.947   6.929   4.070  0.1113  0.0264 -0.0740
11217W        W29421  16.075   6.536  15.636  0.1950 -0.1446 -0.0979
11218W        W29422   9.380  10.728  16.822 -0.0740 -0.1964 -0.3867
11219W        W29423  14.299  13.306   3.307 -0.1372  0.0759  0.0284
11220W        W29424  13.141  16.122   6.665 -0.1246 -0.0316  0.0664
11221W        W29425  13.949   3.316  14.878 -0.0889 -0.2916  0.0890
11222W        W29426   9.661  13.671   5.140  0.0491 -0.1127  0.0616
11223W        W29427   6.236   7.080   3.666 -0.1213  0.3196  0.0331
11224W        W29428   5.060  12.151   3.181 -0.0700 -0.0026  0.2211
11225W        W29429  11.895   8.754  15.773  0.0902  0.1416 -0.1365
11226W        W29430   3.135   8.228   3.932 -0.1965  0.0441  0.3132
11227W        W29431   0.988  16.083  16.407 -0.0842  0.4184  0.0435
11228W        W29432   0.964   2.739   2.989 -0.1678  0.1910  0.0350
11229W        W29433  15.471   5.385  15.770 -0.0419  0.1292 -0.0205
11230W        W29434  16.453   2.150  13.069 -0.0203  0.2603 -0.4185
11231W        W29435   9.507   1.095   4.945  0.3951  0.1542  0.2512
11232W        W29436   6.246   5.057   0.607 -0.1151 -0.0380  0.0741
11233W        W29437  13.112   2.074  16.660 -0.0110  0.3139 -0.1109
11234W        W29438  17.462   6.514  13.885  0.3515 -0.0393 -0.0497
11235W        W29439   7.341  11.524  14.930 -0.0126  0.1678  0.2731
11236W        W29440  14.774  13.697   0.498 -0.0900 -0.1620  0.1967
11237W        W29441  11.781   4.831  13.753 -0.1633 -0.1510 -0.3285
11238W        W29442   8.323   9.130   4.454 -0.2421  0.0312  0.1368
11239W        W29443  13.439  13.663  14.448  0.3465 -0.1770  0.1770
11240W        W29444  16.945  14.587   2.682 -0.0814  0.0606 -0.0122
11241W        W29445   9.889  14.827  11.911  0.0451 -0.3389  0.2479
11242W        W29446  12.487  16.898   5.523 -0.1141 -0.4326 -0.2161
11243W        W29447  10.925   2.129   1.253  0.0661  0.2325  0.0893
11244W        W29448  13.311   1.804  15.820 -0.0985 -0.1766 -0.2370
11245W        W29449   5.899   9.319   2.775 -0.1424 -0.0252  0.6167
11246W        W29450   4.450  12.866   3.097 -0.2876  0.2232  0.0688
11247W        W29451  11.272  17.091  16.253  0.1453  0.2196  0.3246
11248W        W29452   4.663   1.710  12.852  0.0708 -0.1850  0.3256
11249W        W29453   9.358   0.328  13.995 -0.1834 -0.1016  0.1368
11250W        W29454  17.188  11.657  14.228 -0.0464 -0.1865  0.0936
11251W        W29455   7.571   9.707  14.785 -0.1245 -0.0965 -0.2203
11252W        W29456   3.752  17.024   4.352 -0.0024 -0.4537  0.1036
11253W        W29457  10.643   8.544  13.915 -0.1132  0.0394 -0.0747
11254W        W29458   9.226   2.579   2.815 -0.1025 -0.1214 -0.2268
11255W        W29459  13.164   1.149  16.467  0.1517 -0.0529 -0.0027
11256W        W29460  12.693   0.047   3.587  0.1146 -0.1123 -0.0953
11257W        W29461   2.925   5.054  15.862  0.0797 -0.0345  0.2697
11258W        W29462   2.226   5.781   2.117 -0.0597 -0.2650  0.1351
11259W        W29463  11.451  13.005   1.122 -0.0268  0.3479  0.0815
11260W        W29464   2.582   1.288  17.214  0.0665 -0.1628 -0.4319
11261W        W29465   0.560   7.245  16.873 -0.2382 -0.1298  0.1511
11262W        W29466  13.166   2.161   4.435 -0.0844  0.1674 -0.0632
11263W        W29467  17.071  12.593  15.994 -0.1127  0.0742 -0.2153
11264W        W29468   7.067   8.581  12.916 -0.2518 -0.1858 -0.1049
11265W        W29469  14.575  14.955  14.013  0.2217 -0.0305 -0.1085
11266W        W29470   7.619  11.970  12.877  0.1142 -0.0669 -0.2022
11267W        W29471  10.508   1.523  11.957  0.0365  0.0325  0.1108
11268W        W29472   6.181   8.665   3.508 -0.0678 -0.2177 -0.0684
11269W        W29473   7.433   0.529   2.844 -0.0075  0.1937  0.3253
11270W        W29474  13.208   1.571  12.033 -0.0857  0.0338  0.0281
11271W        W29475   3.940  15.489  12.709  0.2791  0.0805 -0.0583
11272W        W29476  17.407   7.496   5.015 -0.1821  0.1436 -0.0616
11273W        W29477  12.659   6.754   4.341 -0.4095 -0.3262 -0.0604
11274W        W29478   4.639  11.569  15.874  0.2300  0.1723  0.1717
11275W        W29479   7.915  13.222   0.503  0.1560  0.1158  0.1595
11276W        W29480   4.243   0.650  12.170  0.0328 -0.2754  0.1963
11277W        W29481   7.457   5.316  15.040 -0.2892 -0.0743 -0.1504
11278W        W29482   7.346   6.535   0.902 -0.1443 -0.3915 -0.2501
11279W        W29483   3.938  10.520   2.901  0.0247 -0.0531 -0.1266
11280W        W29484  17.375  17.138   0.402 -0.0681 -0.2041  0.2449
11281W        W29485   3.921  16.306  15.361  0.0705 -0.0364  0.2721
11282W        W29486   7.783   0.894  16.270  0.1445 -0.0176  0.0838
11283W        W29487   2.203  11.600  14.778 -0.3993 -0.1160  0.0299
11284W        W29488   3.315   3.342   4.238 -0.1883 -0.1102  0.1562
11285W        W29489   5.906   3.740   1.078  0.1729  0.0307  0.0439
11286W        W29490  11.454  13.575  13.847 -0.0456  0.1731 -0.0906
11287W        W29491   7.599  11.438   1.256 -0.3169 -0.0089 -0.4333
11288W        W29492   5.439  17.144  14.146  0.0883  0.1796  0.0416
11289W        W29493   0.206   9.729  15.828 -0.1870  0.1465 -0.0645
11290W        W29494  14.528  10.040   2.360  0.0855 -0.2647 -0.4391
11291W        W29495  14.782   1.060   3.180  0.3175  0.0480 -0.0741
11292W        W29496   4.345  17.284   1.721 -0.2440  0.3242 -0.2095
11293W        W29497   0.560   8.447  15.476 -0.3000 -0.2803  0.1798
11294W        W29498  10.675  16.297  13.965 -0.0074  0.1646  0.0285
11295W        W29499   1.701  16.644   4.405 -0.0540 -0.0615  0.0776
11296W        W29500  17.461   8.063  14.408  0.3579  0.0735 -0.3201
11297W        W29501   1.493   4.081   0.261  0.2834  0.0089 -0.0313
11298W        W29502   6.119  15.068  17.085 -0.1120 -0.0431 -0.1489
11299W        W29503   3.840   5.212  14.909  0.1069 -0.2742 -0.0468
11300W        W29504   6.168   7.538   2.913 -0.0468 -0.2368 -0.1012
11301W        W29505   9.271   8.310  12.754  0.1704  0.1370 -0.3497
11302W        W29506   6.842  14.233   5.101 -0.2520 -0.1805  0.0412
11303W        W29507   3.040   0.505  17.009 -0.1730 -0.0006 -0.1853
11304W        W29508   0.180   7.226   5.902  0.2221 -0.0025 -0.1988
11305W        W29509   6.427  12.708  14.924 -0.1113  0.3243  0.0340
11306W        W29510   9.859  17.472  14.342  0.2318  0.1576 -0.0902
11307W        W29511   0.954   9.006  17.230 -0.2621  0.1437  0.0197
11308W        W29512   4.463  12.015  14.897 -0.1798  0.1295  0.2748
11309W        W29513   8.408  16.770  13.907 -0.0431  0.3271  0.0032
11310W        W29514  11.839   8.208   0.388 -0.4448 -0.0884  0.4980
11311W        W29515  11.982  12.046  12.599  0.1053  0.1073 -0.1755
11312W        W29516   4.835   3.974   0.312  0.1111 -0.0155  0.2115
11313W        W29517  15.339   7.150  12.487 -0.1256  0.0017  0.0631
11314W        W29518  15.779   3.782  17.054 -0.0059  0.1711 -0.3071
11315W        W29519   4.772   0.550   5.305 -0.0828  0.2727 -0.1997
11316W        W29520   2.229   8.007  13.848  0.0753  0.3136  0.0819
11317W        W29521   9.063   4.500   0.690 -0.0372  0.2159 -0.0679
11318W        W29522   4.031   5.356   4.756  0.0163 -0.2473 -0.0102
11319W        W29523  15.192  17.166  14.912 -0.5838 -0.0367  0.2947
11320W        W29524   1.349  17.495  13.139  0.0528 -0.0785 -0.0813
11321W        W29525   4.085   3.520   4.654 -0.1663 -0.2454  0.2061
11322W        W29526  17.304   3.121  12.329  0.1971  0.0248 -0.3427
11323W        W29527  15.673  15.308  14.085  0.0633 -0.1162  0.1694
11324W        W29528   5.479   3.959   1.344  0.1468  0.1802 -0.0488
11325W        W29529   7.142   0.130   3.029 -0.3206 -0.2088  0.0604
11326W        W29530  11.977   9.308   2.133  0.4173  0.0675 -0.2544
11327W        W29531  16.167  11.744   2.656  0.3537  0.0306  0.0354
11328W        W29532  14.357  15.881  15.693  0.0700 -0.2898 -0.4187
11329W        W29533   2.775  14.064   2.858  0.0414  0.3112  0.0396
11330W        W29534   1.525   6.863   2.763  0.2588  0.0511 -0.1497
11331W        W29535   0.503  11.677   4.713  0.1486 -0.1941 -0.1506
11332W        W29536   5.872  12.064   4.675 -0.2678  0.4911 -0.0596
11333W        W29537   8.825   9.115   0.339 -0.0192 -0.0248 -0.2540
11334W        W29538   4.292   4.678   0.512 -0.1576  0.2271 -0.1182
11335W        W29539  13.397   0.583   0.212  0.2997 -0.2042 -0.1275
11336W        W29540   4.837  14.074   2.070  0.1401 -0.1696  0.0277
11337W        W29541   9.537   4.212   1.181  0.0189 -0.2628 -0.1397
11338W        W29542   4.309  16.361  12.683 -0.1240  0.1237 -0.0804
11339W        W29543  16.208   5.768   1.432 -0.0748 -0.0589 -0.1799
11340W        W29544  12.616   0.071  15.885 -0.0594  0.1908 -0.0733
11341W        W29545   1.054  13.536   0.864  0.0416  0.2666  0.2723
11342W        W29546  10.174  17.155  16.111  0.2063  0.1787 -0.3836
11343W        W29547  14.244   8.823  12.225 -0.1369 -0.1598  0.0335
11344W        W29548  13.929   5.356  13.236 -0.3042 -0.2958  0.0072
11345W        W29549  14.220  12.388  12.955 -0.1895 -0.0939 -0.0247
11346W        W29550  12.192   2.775   4.274 -0.1647  0.0704 -0.0690
11347W        W29551  16.524   3.000  13.393  0.1234  0.4628  0.1194
11348W        W29552   4.739  10.702  15.392 -0.0323  0.2122 -0.0609
11349W        W29553  11.620  12.801  17.021  0.0533 -0.0164  0.0567
11350W        W29554  16.006   5.350  13.153  0.3169  0.0050  0.2067
11351W        W29555  11.369  10.056  12.105 -0.2522  0.2923 -0.2312
11352W        W29556  14.371   4.562   1.501  0.0007 -0.1739  0.1765
11353W        W29557   7.959   7.298   2.501 -0.3079 -0.2675 -0.1454
11354W        W29558   7.426   7.585  16.712 -0.0540 -0.5042  0.0862
11355W        W29559   1.574   8.896  16.480  0.1264 -0.1773  0.0723
11356W        W29560  11.627   9.289   4.912 -0.0402 -0.0242 -0.0072
11357W        W29561  11.232  10.040   4.615 -0.2472 -0.3938 -0.0456
11358W        W29562  15.971   2.311  13.264 -0.1014 -0.0200 -0.0563
11359W        W29563   0.526   6.422  16.365  0.2221 -0.1537 -0.0746
11360W        W29564   4.264   1.178   4.507 -0.0493  0.3572  0.2999
11361W        W29565  14.658   1.036   1.834  0.2215 -0.0892 -0.0254
11362W        W29566   4.588   2.091  15.039  0.0604 -0.1304 -0.0425
11363W        W29567   0.974  16.540   3.814 -0.1196  0.1390 -0.1008
11364W        W29568   7.676   8.445   2.584  0.0482  0.2811 -0.1388
11365W        W29569   9.969   5.526  13.791  0.0808 -0.1801 -0.1442
11366W        W29570  13.558   1.516   0.788 -0.0492 -0.1423 -0.0233
11367W        W29571  16.160   5.928   3.045  0.2215  0.1723 -0.2041
11368W        W29572   7.306  15.936  12.758  0.1213  0.1576  0.1688
11369W        W29573   5.657  11.057   3.778 -0.1176  0.3059 -0.0990
11370W        W29574   0.372  10.539  15.381 -0.1728  0.2335 -0.1235
11371W        W29575  14.362  11.085   1.130 -0.0451  0.0008 -0.3720
11372W        W29576   3.746   5.407  13.569  0.0657 -0.2032 -0.1088
11373W        W29577   8.234   5.724   2.708  0.0044 -0.1011 -0.3589
11374W        W29578   0.038  16.859   4.724  0.4245 -0.3834 -0.0464
11375W        W29579  14.326  12.667   4.392  0.0408 -0.0509 -0.0192
11376W        W29580  16.161   4.342  12.938 -0.1070  0.0931  0.0726
11377W        W29581   9.547   1.211   1.198 -0.0404 -0.0322  0.2222
11378W        W29582   2.515  14.872   4.536  0.1194  0.1908  0.1273
11379W        W29583  12.948   1.647  16.198 -0.1415 -0.2079  0.1288
11380W        W29584  15.511   8.275   5.022 -0.0440  0.3270 -0.2515
11381W        W29585   8.223   8.052   0.290 -0.0654  0.1289 -0.0561
11382W        W29586   0.413  16.051  12.869 -0.2114 -0.1985  0.1337
11383W        W29587   0.907   4.557   2.640  0.0436 -0.1700  0.4232
11384W        W29588  16.281  11.363  13.216  0.4476  0.0808 -0.2293
11385W        W29589  10.601   2.489  16.222  0.4152 -0.1211 -0.0309
11386W        W29590   3.698  10.173  12.476 -0.1608 -0.3005 -0.0576
11387W        W29591   2.611  15.541  12.454  0.0528 -0.2796 -0.4006
11388W        W29592  16.819   0.713   0.518  0.2085 -0.1807  0.0078
11389W        W29593   3.911  10.308  14.788 -0.2389 -0.1557  0.2730
11390W        W29594   3.240  10.943   4.477 -0.2730  0.0139 -0.1870
11391W        W29595   4.482   8.989   3.052  0.0711 -0.1354 -0.2442
11392W        W29596  13.924  12.453   3.121  0.1732 -0.1524 -0.0204
11393W        W29597   6.462  14.573  14.582 -0.0125  0.1590  0.0056
11394W        W29598   7.849  13.169   2.616  0.0529 -0.4379 -0.1313
11395W        W29599  13.476  10.786   1.063  0.0975  0.0884 -0.0894
11396W        W29600   7.803   6.004  15.739  0.2243  0.2196  0.4823
11397W        W29601  15.955   0.429   1.503  0.0492 -0.2242 -0.2936
11398W        W29602  13.248  12.491  13.205  0.0029 -0.1797  0.1343
11399W        W29603   1.709   9.599   2.169  0.1339 -0.0199 -0.0958
11400W        W29604  10.179   1.211  13.506 -0.0459 -0.0208  0.2858
11401W        W29605  13.262   4.764  16.396  0.1784  0.1111  0.1859
11402W        W29606   7.717  11.483  12.789  0.1447  0.0674  0.1765
11403W        W29607  14.316   7.131   2.044 -0.1175  0.3609  0.0842
11404W        W29608   2.808  11.705  15.509  0.2376 -0.2965  0.0077
11405W        W29609   8.016   8.139  15.296  0.1036 -0.0836 -0.3425
11406W        W29610   0.342   8.396   0.210 -0.2630  0.2566 -0.0392
11407W        W29611   7.996   6.771  16.081  0.0144  0.3960 -0.0736
11408W        W29612   6.608   5.354   1.500 -0.1340 -0.0246 -0.0225
11409W        W29613  14.695   0.417  13.472 -0.1647  0.0962  0.1306
11410W        W29614  11.992  12.748   6.725 -0.0240  0.2694 -0.0734
11411W        W29615  12.020  11.867   0.101  0.1073 -0.1455 -0.0399
11412W        W29616   7.412  17.172  13.597  0.0760 -0.5103  0.3414
11413W        W29617   5.676   5.472  13.642 -0.0961  0.1100 -0.0865
11414W        W29618   2.034   4.386  13.869 -0.4425 -0.0037  0.1930
11415W        W29619  10.394  16.725   4.358  0.0434  0.1344  0.4707
11416W        W29620   7.585  16.892   0.332 -0.1560 -0.1396  0.0705
11417W        W29621   7.368   0.084  16.468  0.0788  0.0118 -0.1210
11418W        W29622  13.212  13.350  13.993  0.1450  0.1565 -0.0046
11419W        W29623   2.034  12.224   4.225  0.0950  0.3962 -0.2288
11420W        W29624  17.046   0.482  13.719 -0.0746 -0.0935 -0.0751
11421W        W29625  13.717   8.646   4.673 -0.2580 -0.1344 -0.0244
11422W        W29626  12.490   5.948   3.198 -0.1286 -0.1022  0.0947
11423W        W29627   6.253  14.725   1.208 -0.0021  0.0761 -0.0124
11424W        W29628   4.780  13.594  16.312  0.1327  0.3606 -0.1666
11425W        W29629   5.474  15.306  16.661 -0.1822 -0.2431 -0.0462
11426W        W29630   1.427  15.833   4.689 -0.0550 -0.0110 -0.0758
11427W        W29631  11.147   1.388  13.170 -0.0750  0.0032 -0.3291
11428W        W29632   0.076   3.582   2.464 -0.2786 -0.3175 -0.1337
11429W        W29633   4.583  11.617  14.227  0.1226 -0.3793  0.1566
11430W        W29634   7.752   6.630   4.133  0.0207  0.0505  0.1841
11431W        W29635   4.953   4.435   2.573  0.1093  0.0972  0.0300
11432W        W29636   4.250  14.385   4.663  0.2762 -0.1447  0.2910
11433W        W29637  13.569   8.469   1.293 -0.2040 -0.2738 -0.3732
11434W        W29638  14.306   1.242  16.856  0.0882  0.3796  0.1047
11435W        W29639   0.853   6.478  13.169 -0.0730  0.2598  0.2829
11436W        W29640  12.624  12.374  13.167  0.2582 -0.2891  0.1114
11437W        W29641   8.415  11.778   3.866 -0.0116 -0.1428  0.1309
11438W        W29642   1.348   8.368  16.431 -0.0528 -0.0879  0.0257
11439W        W29643   3.207   9.496   0.708 -0.1121 -0.2044  0.0572
11440W        W29644   4.897  13.130   3.238 -0.0923 -0.0973 -0.4151
11441W        W29645   0.971  15.159   1.399 -0.0410  0.0988 -0.1583
11442W        W29646  15.041  12.826  14.587 -0.0442  0.0702  0.0029
11443W        W29647  10.670   0.887  16.305  0.1433 -0.1952  0.0060
11444W        W29648   2.187  11.755   2.448 -0.1627  0.3677  0.1654
11445W        W29649  11.844   0.571   5.304 -0.0941  0.1852  0.5760
11446W        W29650   2.759   5.809  14.362  0.1942 -0.1967 -0.0186
11447W        W29651  11.482  12.906   3.382 -0.0973  0.1187 -0.4963
11448W        W29652  16.437   7.440   2.296  0.1457 -0.0374 -0.2516
11449W        W29653   0.886   3.724  16.982 -0.1693 -0.0201 -0.1611
11450W        W29654   5.998   3.831  12.770 -0.1186  0.0473 -0.0772
11451W        W29655   0.255   4.540   3.398  0.0098 -0.0044  0.2705
11452W        W29656   0.692  14.379   0.266 -0.2026  0.0760  0.2973
11453W        W29657   5.227   0.827   2.200 -0.2977 -0.1630 -0.1703
11454W        W29658   0.249   5.550  15.651  0.2047  0.2972  0.0501
11455W        W29659   1.522  14.694  13.610  0.0368  0.3355 -0.0494
11456W        W29660   1.823   3.919  13.919  0.2971 -0.1325  0.2283
11457W        W29661   3.594  12.072   3.173 -0.1549  0.1962 -0.1032
11458W        W29662   0.592  11.229   0.279 -0.1063  0.0996  0.1341
11459W        W29663   3.895   7.449  15.731 -0.0404 -0.0866 -0.0476
11460W        W29664   5.829  12.949   2.199  0.2500  0.2773  0.0857
11461W        W29665   0.437   0.247  11.151  0.0706 -0.0875 -0.0703
11462W        W29666   1.815  13.000  12.899 -0.1918 -0.2559 -0.0614
11463W        W29667  12.486   8.289  14.792 -0.2856  0.1004  0.3406
11464W        W29668  13.427   6.169   1.410 -0.2387 -0.0018 -0.0342
11465W        W29669  15.178   8.126  12.837 -0.0856 -0.2996  0.0241
11466W        W29670   1.019  13.485   6.295  0.0399 -0.3358  0.2208
11467W        W29671  13.222   9.349   3.642 -0.2609 -0.2894 -0.1103
11468W        W29672  15.208   3.597  15.026 -0.1296  0.0977 -0.0218
11469W        W29673  14.838  17.013  16.253 -0.1858 -0.4201 -0.1957
11470W        W29674  15.779  13.984   3.494 -0.1730  0.1005 -0.0961
11471W        W29675   2.439   4.759  17.131  0.1426 -0.1882  0.0643
11472W        W29676  11.828  10.284  14.571 -0.0930 -0.2792  0.0477
11473W        W29677   0.686   6.847   3.714  0.0812 -0.2370  0.0282
11474W        W29678   3.243   8.621  16.367 -0.2229 -0.3269  0.1952
11475W        W29679   5.453  14.243  16.714  0.2853 -0.2406 -0.0827
11476W        W29680  12.694   3.222  14.211  0.1756 -0.1755  0.2098
11477W        W29681   8.741   9.199  16.799 -0.1633  0.3004 -0.2002
11478W        W29682   0.993  16.111   0.609 -0.0315 -0.0703  0.1320
11479W        W29683   3.098  16.829  14.465  0.1757  0.1777 -0.1473
11480W        W29684  11.492   9.459  16.291 -0.0807  0.1098 -0.0012
11481W        W29685  11.101  13.694   5.018 -0.1439 -0.2260  0.0718
11482W        W29686  13.072  14.504  16.856 -0.3100  0.0046  0.2098
11483W        W29687  11.540   7.613   1.582 -0.0054  0.1335 -0.0027
11484W        W29688  14.426  11.707   4.643 -0.2398  0.1626 -0.0511
11485W        W29689   7.096  11.245   0.059 -0.1229 -0.4965 -0.1428
11486W        W29690  13.672  11.913   2.984 -0.0192  0.3827 -0.1590
11487W        W29691  16.591  14.332  14.250 -0.1157  0.0166 -0.4749
11488W        W29692  14.096   8.550   1.407  0.1363 -0.1001  0.1985
11489W        W29693  14.489   2.978  12.365  0.1795  0.0198  0.0327
11490W        W29694   5.409   6.388   2.928 -0.1722 -0.0779  0.1206
11491W        W29695   5.876   6.235  15.910 -0.2398  0.1992  0.0070
11492W        W29696  14.895   5.162   4.994  0.0326 -0.1065 -0.0441
11493W        W29697  17.170  11.936   4.828  0.2460 -0.0052 -0.1569
11494W        W29698  12.190   5.456  12.371  0.1510  0.1918  0.0446
11495W        W29699   8.641   9.190   3.977  0.1724  0.1819  0.1595
11496W        W29700   7.660  16.247   2.746  0.1020  0.0940  0.1093
11497W        W29701  11.126   5.038  15.045  0.3189  0.0302 -0.1246
11498W        W29702  12.864   1.719   1.897  0.0637  0.1416 -0.0129
11499W        W29703  14.258   1.272  12.761  0.1203  0.3585  0.0290
11500W        W29704   0.487   8.070  16.495  0.1866  0.3467 -0.2206
11501W        W29705   6.633   8.967  14.625  0.2683 -0.0355  0.1235
11502W        W29706   6.827  14.728   3.305 -0.0239  0.2318  0.1004
11503W        W29707  12.693  11.917   2.875  0.2433 -0.0018 -0.0438
11504W        W29708  10.064  15.933   1.350 -0.0899  0.1524  0.3207
11505W        W29709   1.787   4.285  12.767 -0.3346  0.1510 -0.0589
11506W        W29710  15.097   5.635   2.657 -0.1760  0.0962  0.0728
11507W        W29711  16.158  13.784  16.897  0.0209 -0.1331 -0.3489
11508W        W29712   9.757  11.966   4.354  0.0146 -0.5956 -0.1963
11509W        W29713  12.937   5.077   3.208  0.1234 -0.0968  0.0103
11510W        W29714   1.506   5.070   5.197  0.3816  0.5019  0.0818
11511W        W29715   5.898   0.652  14.044  0.3189  0.1530 -0.0882
11512W        W29716  13.756  12.763   1.146 -0.1675  0.2459 -0.1907
11513W        W29717   3.766   2.351  14.641 -0.0530 -0.1234  0.1977
11514W        W29718  13.101   9.600  13.721  0.1553 -0.2360 -0.0847
11515W        W29719   8.769   7.237  12.363 -0.4405 -0.0215  0.0270
11516W        W29720  13.961   4.479  14.886  0.0379 -0.1193 -0.1881
11517W        W29721  11.707   5.930  14.764  0.0589 -0.1869 -0.1412
11518W        W29722  10.826  12.386  12.301 -0.2883 -0.1115  0.1380
11519W        W29723  13.037   1.822   4.883  0.0790 -0.0829  0.1479
11520W        W29724  10.099   1.002   3.484 -0.0244  0.0724 -0.1446
11521W        W29725   4.342  17.228  15.872  0.0613 -0.1440  0.0940
11522W        W29726   9.970   6.429   5.100 -0.3000 -0.0688 -0.0613
11523W        W29727  15.849   5.065   4.901  0.3719 -0.1181  0.1179
11524W        W29728   7.626  11.984  13.767 -0.3045 -0.4098  0.1851
11525W        W29729   4.767   2.017   2.306  0.1613 -0.0515  0.0601
11526W        W29730  11.004   3.774  13.117 -0.1343 -0.0588  0.1771
11527W        W29731   2.593   0.382  16.120 -0.2644  0.1194 -0.0113
11528W        W29732   4.240   1.305  15.744 -0.2163  0.0665  0.4081
11529W        W29733   3.470  13.023   0.371  0.2769  0.1655 -0.0837
11530W        W29734   4.827  12.290  12.608  0.0489 -0.0522  0.0059
11531W        W29735   4.378  10.855   1.897 -0.1914  0.1844  0.0331
11532W        W29736   3.719   2.839  16.846  0.1502  0.1242  0.1819
11533W        W29737  10.705   1.687   2.448 -0.0577  0.0826 -0.0840
11534W        W29738  13.873   8.874   0.608  0.1193 -0.1678 -0.3198
11535W        W29739  13.164   2.502  15.258  0.2341  0.1291 -0.0660
11536W        W29740   7.207   8.626   1.583 -0.1823 -0.0917 -0.0427
11537W        W29741   2.987  11.581  15.014  0.1680 -0.1720  0.0902
11538W        W29742  16.518   1.067   0.843  0.1334 -0.3194  0.1477
11539W        W29743   1.770   1.083   2.636 -0.2284  0.0769  0.2384
11540W        W29744   8.661   8.646   0.196 -0.0116  0.0723 -0.1396
11541W        W29745   4.438  11.911  17.016 -0.4645  0.3426  0.2347
11542W        W29746  10.822  13.584  13.494 -0.1797  0.0353  0.3274
11543W        W29747  16.742   8.832   2.183  0.2217  0.0423  0.2087
11544W        W29748   3.482   1.412   2.435 -0.0093  0.2015 -0.1621
11545W        W29749  11.963  17.459  15.108 -0.2397  0.2153 -0.0634
11546W        W29750   7.170  11.469   4.932  0.0301 -0.0690  0.2023
11547W        W29751   2.979  12.851   0.173 -0.0281 -0.0405  0.2206
11548W        W29752  10.012  13.045   0.343 -0.2165 -0.1726  0.1148
11549W        W29753   0.309  16.563   0.505  0.0303 -0.3364  0.0384
11550W        W29754   3.403  13.998  13.022  0.2192 -0.1568 -0.0768
11551W        W29755  15.113  13.366   4.829  0.0278  0.1629 -0.0313
11552W        W29756  14.457  10.541  12.965  0.0033  0.1445 -0.2739
11553W        W29757  15.520   0.852  15.487  0.0728  0.0890 -0.1093
11554W        W29758  16.540  15.719  16.370  0.0072 -0.0265  0.0858
11555W        W29759   6.704   3.070   4.615  0.1776  0.3898 -0.0647
11556W        W29760   9.632   9.461  16.037 -0.1513 -0.2252  0.1171
11557W        W29761  13.827  14.900   0.428 -0.3842 -0.1559  0.1446
11558W        W29762  14.919   3.855  15.383  0.2613  0.2234  0.1744
11559W        W29763   5.894   5.126  15.091 -0.0815  0.2577  0.1060
11560W        W29764   0.470  16.301   5.467 -0.2946  0.2146  0.0504
11561W        W29765   8.035   5.150  13.622  0.1605 -0.1415  0.0928
11562W        W29766  15.614   1.342   1.947 -0.1336 -0.1399  0.2158
11563W        W29767   2.439   9.267   0.145  0.0728 -0.0525  0.0421
11564W        W29768   3.594  12.899   4.260  0.1532 -0.1435 -0.0798
11565W        W29769  14.007   0.155   4.838  0.2502  0.0518  0.1245
11566W        W29770  12.910   4.427   2.219 -0.2479 -0.1182  0.0049
11567W        W29771   8.848  15.274   2.939 -0.0648  0.2800  0.2355
11568W        W29772  16.200   2.987   3.924 -0.2151  0.1653 -0.1050
11569W        W29773   5.841  13.398   4.914  0.0679 -0.0273 -0.0031
11570W        W29774   9.154  13.333   2.277  0.1173 -0.1986 -0.0395
11571W        W29775   7.562   2.672   1.357  0.0046 -0.1897 -0.2442
11572W        W29776   3.075  15.878  12.458  0.0244 -0.2167  0.3148
11573W        W29777  16.316   3.258  16.041  0.0037 -0.2604 -0.0825
11574W        W29778   8.572  17.544   1.664  0.0841 -0.4389  0.1054
11575W        W29779  17.508   5.302  16.918 -0.0997  0.0667  0.2074
11576W        W29780  16.109  15.713   2.045  0.3505 -0.1097  0.2263
11577W        W29781   0.099   1.839  14.483  0.1149  0.0421 -0.0545
11578W        W29782  16.919  13.573   0.820 -0.0727 -0.2069  0.0254
11579W        W29783  15.705   8.970  13.316 -0.1322 -0.0675 -0.3820
11580W        W29784  12.469  11.397   4.386 -0.2770  0.1993  0.0552
11581W        W29785   1.014   9.869  12.606  0.0393  0.3238  0.0625
11582W        W29786  16.486   8.968   2.797 -0.0941 -0.1510  0.0675
11583W        W29787   7.665   7.981  14.994  0.0941  0.2831 -0.0508
11584W        W29788   2.997   6.165   4.243 -0.0467  0.2368  0.0013
11585W        W29789  14.115   4.109   1.318  0.1666 -0.1522 -0.1463
11586W        W29790   5.561   9.793   1.055  0.1140  0.2480  0.0749
11587W        W29791  13.755   7.267   2.698  0.2525 -0.3015 -0.1451
11588W        W29792  15.546  15.741   0.227 -0.1121  0.0009 -0.1022
11589W        W29793   0.843   6.310  16.008  0.2853  0.2522  0.0729
11590W        W29794   8.057  10.390   3.795 -0.2133 -0.1972  0.1689
11591W        W29795   4.871  12.153   3.701  0.4437 -0.0003 -0.3175
11592W        W29796  16.168   7.619  12.932  0.0282  0.1967 -0.0510
11593W        W29797   6.773   0.062   3.806 -0.0980 -0.1148 -0.0915
11594W        W29798   0.612   3.744   2.880  0.1257 -0.3033 -0.0665
11595W        W29799  12.949  16.251   5.242 -0.0727 -0.1451 -0.0924
11596W        W29800  10.326   2.747   3.442 -0.1355 -0.0065 -0.0125
11597W        W29801   6.415  13.368   1.268  0.1293  0.0079  0.0763
11598W        W29802   1.712  11.604   3.247 -0.1662  0.1455 -0.2439
11599W        W29803   2.427   5.137  13.535  0.0288  0.2363 -0.0973
11600W        W29804   5.570  16.211  14.717 -0.1133 -0.1412 -0.2192
11601W        W29805  16.836  13.999   1.891 -0.2161 -0.1813 -0.1608
11602W        W29806  12.707   8.172   4.016  0.1988  0.4350 -0.1513
11603W        W29807   9.507   1.281  16.027 -0.1589  0.2830  0.0299
11604W        W29808  14.532   3.504   0.507  0.1243 -0.0536 -0.3592
11605W        W29809  13.734  11.426  13.723 -0.1727  0.2302 -0.1535
11606W        W29810  17.519   0.884   1.014 -0.0021 -0.0450  0.0036
11607W        W29811   1.683  12.165   4.815 -0.1041 -0.0815 -0.2677
11608W        W29812   5.494   0.202  15.995 -0.3085 -0.1935 -0.0950
11609W        W29813  14.675  10.556  13.716  0.1717 -0.0514 -0.1535
11610W        W29814  10.949   6.366   2.620 -0.1898  0.1346 -0.1875
11611W        W29815  12.547  16.591   3.842  0.1365 -0.0094 -0.0453
11612W        W29816   3.953   9.970  14.390 -0.1880 -0.0348 -0.2477
11613W        W29817  17.483  15.571   1.464  0.3796 -0.0325 -0.0714
11614W        W29818  12.004   3.216   0.432  0.1571 -0.2922 -0.1174
11615W        W29819   9.216  14.350  11.871 -0.1651  0.2195  0.1775
11616W        W29820  12.585  16.034  14.446 -0.2478  0.0874  0.0698
11617W        W29821  16.604  13.627  14.914  0.1259  0.0830 -0.0979
11618W        W29822  11.513   3.161  15.204 -0.1727  0.1062  0.0823
11619W        W29823  17.048   5.157  13.967 -0.1093 -0.0205 -0.0713
11620W        W29824   6.286   7.147   0.007 -0.1528  0.0768 -0.1339
11621W        W29825  15.040   6.243   1.983 -0.0249 -0.1231  0.0949
11622W        W29826  15.643   9.909  12.242  0.4410 -0.3383 -0.0583
11623W        W29827  14.196   9.478   4.453  0.1405 -0.2024  0.4393
11624W        W29828   9.983  13.976   3.933 -0.0626 -0.1242  0.3192
11625W        W29829  10.985  12.374   1.604 -0.0828 -0.0200 -0.1499
11626W        W29830  11.388   7.253   4.663  0.0511  0.0060  0.0688
11627W        W29831   0.866  10.729  11.769 -0.0593  0.2171 -0.2669
11628W        W29832  10.092   2.528   0.190  0.0198  0.2397 -0.2404
11629W        W29833   1.854   5.900   3.377  0.0011 -0.3405  0.0860
11630W        W29834   3.884   0.855  16.797 -0.0380 -0.1701  0.4037
11631W        W29835   0.105   8.223  12.056 -0.2166 -0.1544  0.4480
11632W        W29836   1.352   3.082  13.042  0.1234  0.3926 -0.0218
11633W        W29837  14.574  16.894   1.265 -0.2032  0.2582 -0.0452
11634W        W29838   3.738  13.579  16.565  0.0949  0.1724  0.0479
11635W        W29839   4.785  12.345  16.784  0.0141 -0.0933 -0.0838
11636W        W29840   3.995  10.757  16.873  0.1835  0.1310 -0.0577
11637W        W29841   1.367  12.873  16.369  0.1730  0.2879 -0.1299
11638W        W29842  16.668   0.831   4.048 -0.1235 -0.0847  0.3579
11639W        W29843   4.684   9.017  14.391  0.0439 -0.1585 -0.1340
11640W        W29844   8.680   6.696  15.217 -0.2447  0.0706 -0.1869
11641W        W29845   2.006   0.711   2.952  0.2317 -0.0221 -0.2861
11642W        W29846  16.973   7.310   0.291  0.1676  0.3834 -0.0316
11643W        W29847   1.302   3.162   5.344 -0.4911  0.2426 -0.1576
11644W        W29848   3.363   4.549  14.340 -0.0216 -0.0740 -0.0314
11645W        W29849   5.541   1.054   3.987  0.1409  0.1079  0.1578
11646W        W29850   4.678   0.082  16.982 -0.1528  0.1064  0.0074
11647W        W29851   3.065   0.169   3.577 -0.1194 -0.3108  0.0304
11648W        W29852  14.533  11.699   4.110 -0.2826  0.2182  0.0806
11649W        W29853   7.690  14.116  16.523  0.1266 -0.1749 -0.1956
11650W        W29854  16.933   7.794  17.095 -0.2861 -0.0862  0.0485
11651W        W29855   4.805  10.732   2.140  0.1004 -0.2525 -0.2264
11652W        W29856   3.737   7.132  14.774 -0.0999 -0.3521  0.0689
11653W        W29857  13.854   2.248   1.955 -0.2263 -0.0061  0.1485
11654W        W29858  12.036  12.123   4.675  0.0133 -0.1892  0.1112
11655W        W29859   6.407  15.967   2.877 -0.2927  0.2971 -0.1002
11656W        W29860  10.805   5.001  11.311 -0.0974 -0.4844 -0.0586
11657W        W29861  15.517   8.456  14.925  0.1518  0.0213 -0.5518
11658W        W29862  15.715  17.160   0.251 -0.0478 -0.1803  0.1031
11659W        W29863  11.403   7.478  13.297  0.2759 -0.1855 -0.3093
11660W        W29864  11.003   3.593   4.077  0.0911  0.0555  0.2875
11661W        W29865   2.493   3.289   4.028 -0.1128 -0.0224 -0.0299
11662W        W29866  15.611  12.423  17.000  0.1455 -0.3202  0.0109
11663W        W29867   3.430  14.615  15.856  0.2706  0.1614  0.0599
11664W        W29868  16.444  17.334   0.346 -0.2207 -0.0421 -0.2135
11665W        W29869   0.884   9.149   2.697 -0.2482  0.1756  0.1373
11666W        W29870  11.365  12.133   0.859  0.0653  0.0972 -0.1502
11667W        W29871   9.237   1.504   5.459 -0.2833 -0.1072 -0.1347
11668W        W29872  11.389  12.715   2.912  0.3690 -0.1775 -0.0627
11669W        W29873   5.438  16.167  13.665  0.1359 -0.0839 -0.2025
11670W        W29874   2.491   1.330  16.086 -0.1079 -0.0929  0.1004
11671W        W29875   7.729   3.702  14.996  0.5208 -0.0993  0.2990
11672W        W29876  13.715   3.191   3.124 -0.0206  0.3599  0.1441
11673W        W29877  13.870  17.525  15.204 -0.3018  0.1712  0.2430
11674W        W29878   2.288   5.456   1.379 -0.3652 -0.1452 -0.0981
11675W        W29879   3.307   3.051  15.327 -0.0647  0.1797 -0.1200
11676W        W29880  12.097  13.517   5.593  0.3070 -0.1127 -0.0449
11677W        W29881  16.168  13.649  14.648 -0.0141 -0.1039 -0.0655
11678W        W29882   1.484   9.128   0.220 -0.2030  0.0322 -0.1748
11679W        W29883  15.736  12.003   2.558 -0.0044  0.2073  0.1452
11680W        W29884  15.253  11.190   1.676 -0.0325 -0.0740 -0.0506
11681W        W29885  12.303   0.712  13.498  0.1312 -0.0628  0.2054
11682W        W29886   0.344   2.278  14.382 -0.0221  0.2189  0.3932
11683W        W29887   9.847   9.077  13.879 -0.0634 -0.0933  0.0884
11684W        W29888   1.675  16.071   1.559 -0.0904 -0.0471  0.0589
11685W        W29889  11.205  13.443  11.840  0.1989  0.0889 -0.2114
11686W        W29890  16.661   5.042   1.674  0.1005 -0.2657  0.0874
11687W        W29891   8.234   7.944   3.781  0.0730  0.0937  0.0344
11688W        W29892  17.113   0.261  12.750 -0.0685  0.0032  0.2046
11689W        W29893   0.079   7.032   2.991  0.0213 -0.2067 -0.2101
11690W        W29894   6.942   0.945  14.885 -0.0752 -0.3086  0.2259
11691W        W29895  17.066   2.948   2.766 -0.0823  0.2221 -0.0534
11692W        W29896  10.966  13.721  15.537 -0.1178  0.1672 -0.1882
11693W        W29897  17.487  12.477   4.207  0.3232  0.0516  0.0877
11694W        W29898   4.265   4.963   2.577  0.1629  0.1982  0.0525
11695W        W29899  15.276  12.362  14.455  0.1381 -0.1242  0.3694
11696W        W29900   5.509  13.292   6.165  0.1862  0.1061 -0.0326
11697W        W29901   7.762   7.097   4.965 -0.1191 -0.0086 -0.0598
11698W        W29902  15.218  15.739   5.458  0.0405  0.2083  0.1628
11699W        W29903   9.853   4.716   0.185  0.3424  0.0494  0.2998
11700W        W29904  11.210   1.320   3.628 -0.0734 -0.1454 -0.0829
11701W        W29905  16.891   2.880  17.137  0.0002 -0.2694  0.3485
11702W        W29906  14.628   8.399   1.690  0.2198  0.1287  0.2032
11703W        W29907   5.330   5.688   1.773  0.0188 -0.1109  0.2846
11704W        W29908   4.663  12.775  15.852  0.2552 -0.0780  0.0612
11705W        W29909   7.095  16.419  12.581 -0.2076 -0.4873 -0.0021
11706W        W29910   4.098   7.177  13.508  0.2242 -0.0068  0.2770
11707W        W29911  12.467   9.257   1.049 -0.3520 -0.1136 -0.1964
11708W        W29912   6.486  17.116   4.564 -0.0529 -0.2386  0.2559
11709W        W29913   6.956  11.245   0.533 -0.3717  0.1791 -0.1290
11710W        W29914  12.037  15.104  12.539  0.1682 -0.1487  0.0583
11711W        W29915   0.587   0.787  13.538 -0.1091  0.0900  0.2962
11712W        W29916   3.660   2.696  12.370  0.1774  0.1417  0.0870
11713W        W29917   3.570  12.451   2.815  0.0024  0.2926  0.1985
11714W        W29918   8.495   0.581   0.647 -0.2539  0.3453  0.2136
11715W        W29919  10.051   8.538  12.397 -0.0867 -0.3526 -0.0866
11716W        W29920   1.660  13.116  14.600  0.1344  0.1581  0.0668
11717W        W29921   4.253   4.213  15.935  0.1917  0.1152  0.2749
11718W        W29922   3.579   4.014  17.092  0.3302 -0.2553 -0.2019
11719W        W29923  17.301   6.727  16.997 -0.0892 -0.1205 -0.1757
11720W        W29924  10.675  14.819  12.916  0.0405 -0.0029 -0.0983
11721W        W29925  16.536   2.888  16.715  0.0749 -0.0379 -0.0348
11722W        W29926   1.652   2.142  15.325 -0.0573  0.0249  0.2335
11723W        W29927   4.653   2.084  15.732 -0.0509 -0.3023 -0.3121
11724W        W29928  10.147   7.279  12.564 -0.2741 -0.1066  0.1677
11725W        W29929  13.661   7.653   4.847  0.2790 -0.0478 -0.2257
11726W        W29930  15.633  14.795   1.846  0.1188 -0.2032  0.1708
11727W        W29931  10.583  15.476   0.990  0.0028 -0.0716  0.4510
11728W        W29932  14.693   7.634   4.654 -0.2301  0.1483 -0.0753
11729W        W29933  15.757  16.199  13.058  0.3624 -0.1003 -0.1717
11730W        W29934   4.673  14.241  15.856  0.1752  0.2868 -0.0621
11731W        W29935   7.292  10.731   1.345  0.0261 -0.4216 -0.2811
11732W        W29936   3.754  10.540  11.689  0.0823  0.0126 -0.1227
11733W        W29937   7.307   8.995  12.901  0.0925 -0.1793  0.1849
11734W        W29938  10.468   6.624   2.643 -0.1909 -0.3089 -0.1694
11735W        W29939   0.330   6.258   0.978  0.0680  0.1804 -0.1076
11736W        W29940   5.096   8.637   6.037 -0.3242  0.0151  0.3593
11737W        W29941   2.447   4.833  14.501 -0.3713  0.1193 -0.2984
11738W        W29942   6.480  10.421   1.494 -0.0566  0.3297 -0.0605
11739W        W29943   1.521  14.134   1.280  0.1026 -0.4006 -0.1473
11740W        W29944  10.043  16.901  13.187  0.1743 -0.0002 -0.1674
11741W        W29945   9.840  15.418  13.167 -0.0641 -0.1743 -0.0053
11742W        W29946  13.039   1.982  12.661  0.0128  0.2709 -0.3015
11743W        W29947  11.152  12.274   5.225  0.0735 -0.1929  0.3619
11744W        W29948  11.667   8.899  14.634 -0.2951 -0.2624 -0.0027
11745W        W29949  13.370   0.848   1.292  0.2174 -0.0656  0.1143
11746W        W29950   2.978  15.965  15.456 -0.2468 -0.0744  0.0220
11747W        W29951   4.811  16.824   2.555 -0.0709  0.1166  0.0572
11748W        W29952   8.726  11.992   4.271 -0.2459 -0.0191  0.2005
11749W        W29953   2.445   4.529   0.977 -0.0694 -0.1551  0.3079
11750W        W29954   6.149  17.291  15.901  0.0862 -0.1176 -0.1056
11751W        W29955   1.187   9.884   4.103 -0.1342 -0.2779  0.0186
11752W        W29956   2.132   8.442   4.138  0.2513 -0.0192 -0.1530
11753W        W29957   1.311   4.841  16.408  0.0039  0.0030 -0.2033
11754W        W29958   3.986   9.001  14.742  0.0941 -0.0415 -0.1152
11755W        W29959  13.623   9.067  13.896  0.1049  0.1127 -0.2720
11756W        W29960   1.529   4.660   4.356  0.1394 -0.0054  0.1683
11757W        W29961   3.188  13.294   0.813  0.4433 -0.0992  0.0304
11758W        W29962  14.212  11.209  16.864  0.3320  0.0075 -0.2633
11759W        W29963   9.660   7.636   1.384 -0.2200  0.2517  0.2866
11760W        W29964  15.575  14.592   2.827 -0.1126 -0.4343 -0.0724
11761W        W29965  13.209  12.442  15.654  0.1302 -0.1417  0.1687
11762W        W29966   9.804  10.578  15.176  0.0940  0.0036 -0.1226
11763W        W29967   0.799   0.283  15.186  0.1053 -0.0156 -0.1179
11764W        W29968   3.205   4.906   1.702 -0.1730  0.2175  0.0177
11765W        W29969  15.689   5.725   3.070  0.2743 -0.1591 -0.1335
11766W        W29970  11.794   6.604   3.358 -0.0028 -0.0663  0.0810
11767W        W29971   6.786  12.089  16.687 -0.0692 -0.1803 -0.0489
11768W        W29972   9.387  11.098   2.544 -0.0969  0.2846 -0.0455
11769W        W29973   5.047  16.918  16.169  0.2134 -0.2471 -0.2534
11770W        W29974  14.490  13.670  14.137 -0.2880  0.0799  0.1812
11771W        W29975  13.632   9.690   2.830 -0.1043  0.1127  0.0815
11772W        W29976  10.802  14.763  15.670  0.0903 -0.1963 -0.1027
11773W        W29977  16.502  10.099  16.048 -0.3134 -0.0553 -0.1606
11774W        W29978  13.944  14.125  13.299 -0.1599  0.1335 -0.0030
11775W        W29979   2.936   6.261  13.519 -0.4278  0.1089  0.0055
11776W        W29980   2.374  16.898  15.039  0.1435 -0.1420  0.0037
11777W        W29981   7.116   9.319  15.333 -0.2636  0.2833 -0.0140
11778W        W29982  15.545   2.183   1.286 -0.0642  0.0759 -0.2227
11779W        W29983   0.745  12.443   3.170  0.3009  0.0027 -0.2096
11780W        W29984   1.459   9.728   0.588  0.1354 -0.1873  0.2110
11781W        W29985   4.860  14.779   5.202  0.1582 -0.3298 -0.0887
11782W        W29986  12.527  15.490   0.363 -0.2178 -0.0727 -0.0247
11783W        W29987   8.938  12.976   4.394  0.0186  0.0459 -0.2222
11784W        W29988   5.250  11.783  13.854 -0.2242 -0.3925  0.0556
11785W        W29989   9.885   7.801   2.559 -0.3670  0.0905 -0.1235
11786W        W29990   8.217  10.967  11.842 -0.3179  0.0775  0.0034
11787W        W29991   7.689   2.342   0.954 -0.2523 -0.1386 -0.0009
11788W        W29992  10.603   6.455   2.181 -0.0254 -0.1085 -0.0506
11789W        W29993   1.996  13.499   5.214 -0.4455  0.0687  0.1488
11790W        W29994   5.227   9.205   4.906 -0.0102  0.0679 -0.2419
11791W        W29995   3.271   4.353   0.062 -0.0545  0.1725 -0.0865
11792W        W29996  11.691   5.981  12.967 -0.4199  0.4490 -0.0041
11793W        W29997  10.557  10.777  16.661 -0.0199  0.3013  0.3562
11794W        W29998   7.535   5.569   0.657  0.0817 -0.0897  0.2266
11795W        W29999  12.304  17.239  13.453  0.1513  0.0120  0.2702
11796W        W30000   3.372   9.038   1.650  0.0844 -0.2288 -0.1266
11797W        W30001  15.045   9.424  15.756  0.2545  0.0522  0.2751
11798W        W30002   0.233   2.983  16.808  0.2934  0.0579 -0.2563
11799W        W30003  16.527   3.303  12.791  0.1846  0.0488  0.0114
11800W        W30004   6.578  10.723  17.066 -0.1512 -0.3782  0.0855
11801W        W30005   7.922  11.703  12.217  0.2420  0.2745 -0.0633
11802W        W30006   4.109   7.770   4.160  0.2485  0.1888 -0.0304
11803W        W30007   1.328   7.575   2.091  0.2635  0.1334  0.4048
11804W        W30008   5.763   0.380   5.447 -0.0118  0.0317  0.1540
11805W        W30009   2.031  14.929   2.762  0.3195 -0.1402  0.1113
11806W        W30010   5.004  13.856   3.989  0.0764 -0.0908 -0.1411
11807W        W30011   9.516   8.199  16.480  0.2591 -0.0542 -0.0169
11808W        W30012   3.737   4.139   3.814 -0.1953  0.0075  0.2122
11809W        W30013  16.728  13.701  12.602 -0.1780  0.0270 -0.3888
11810W        W30014   5.369  15.058   4.396 -0.2330 -0.2095  0.1485
11811W        W30015  16.019   0.198   3.368  0.2478 -0.1552  0.0795
11812W        W30016  15.618  13.291  15.089  0.1323  0.2686  0.2272
11813W        W30017   1.722   3.238   1.867  0.0136  0.3047 -0.0554
11814W        W30018   9.077   6.358  15.184 -0.2466 -0.3313 -0.1555
11815W        W30019   0.577   8.219  12.770  0.1296  0.2637  0.0181
11816W        W30020  13.539   9.187   2.874 -0.1217  0.0524 -0.1740
11817W        W30021   6.584   9.898   1.698 -0.3014 -0.0621  0.3215
11818W        W30022   0.383  10.846  13.362 -0.0340  0.0510 -0.0469
11819W        W30023  10.170  10.503  13.045 -0.3567  0.0132  0.0044
11820W        W30024  11.487  12.838  13.627  0.2688  0.2155  0.0773
11821W        W30025  12.170   9.126   0.091  0.1726  0.0025  0.1614
11822W        W30026  16.148  16.665   4.438  0.1738  0.3312  0.0691
11823W        W30027   7.641  12.539  16.368 -0.1651 -0.1664  0.0143
11824W        W30028  17.061  10.201  14.020  0.2034 -0.0074 -0.0882
11825W        W30029  17.201  13.898  12.181  0.0206 -0.1259  0.2854
11826W        W30030  14.350   8.947  17.251 -0.0508  0.1466 -0.0392
11827W        W30031   2.043   0.466  14.680 -0.1935 -0.2277 -0.1366
11828W        W30032   7.493   5.958   0.342 -0.2556 -0.0338 -0.1652
11829W        W30033  15.911   8.673   5.106  0.1040 -0.1694  0.1970
11830W        W30034   8.053   3.284   2.988  0.1833  0.0955 -0.0306
11831W        W30035  16.078  16.706  14.000  0.2448 -0.0789  0.1026
11832W        W30036   2.408  17.411  15.998 -0.2064  0.1413 -0.0965
11833W        W30037   7.767  11.849   0.240 -0.0362  0.1055  0.0579
11834W        W30038   5.365   4.467   3.789 -0.1348 -0.3524  0.2151
11835W        W30039  14.334  11.298  15.963 -0.2840  0.0014  0.1889
11836W        W30040  14.681   1.361  14.180  0.0959 -0.2321  0.0318
11837W        W30041  12.211   3.022   1.204 -0.0234 -0.1802 -0.1556
11838W        W30042  10.246   5.124  13.459  0.2814  0.0558  0.0272
11839W        W30043   7.883   3.769  13.489 -0.0049 -0.3593  0.0524
11840W        W30044   5.337   2.872   0.095 -0.0303 -0.2097 -0.3277
11841W        W30045   6.185   9.570  13.499  0.0559 -0.2821  0.0740
11842W        W30046   7.721   9.268   5.012  0.2697 -0.1284 -0.2423
11843W        W30047   4.089   7.691  14.869 -0.0152  0.0212  0.0804
11844W        W30048   5.714  16.386   1.174 -0.3000 -0.1024  0.0846
11845W        W30049  15.451   1.733   0.062 -0.0639 -0.2505  0.2532
11846W        W30050  10.972   0.947  15.392  0.0186 -0.0950  0.1787
11847W        W30051  14.989   1.810  12.795  0.1444  0.2233 -0.1627
11848W        W30052  17.242  16.272   1.200 -0.0392 -0.1663 -0.1917
11849W        W30053  10.425   2.988   4.113 -0.0665 -0.0801  0.0214
11850W        W30054   2.325   4.314  13.187 -0.0103  0.1254  0.3698
11851W        W30055   1.583   3.367   0.840  0.0666 -0.1775 -0.0631
11852W        W30056  14.779   7.690  15.991 -0.1566 -0.1790 -0.1156
11853W        W30057   2.987   0.167   4.081 -0.1499  0.0563 -0.1405
11854W        W30058   8.968   5.844  14.252  0.0618 -0.2801 -0.0708
11855W        W30059   4.495  12.803  14.220  0.0234  0.0556  0.0789
11856W        W30060   8.192   6.815   4.010  0.1511 -0.1372 -0.1755
11857W        W30061   4.964  13.373  17.026  0.0448  0.1909  0.0647
11858W        W30062  17.487   9.058  16.973  0.0374 -0.2481 -0.2542
11859W        W30063  10.023   0.726  13.659 -0.2509  0.0293  0.1834
11860W        W30064   4.281  10.156   4.830  0.0056 -0.1106 -0.1137
11861W        W30065   0.896  17.349  12.073  0.2197 -0.0482  0.2311
11862W        W30066  11.318  17.409  14.480  0.0548 -0.0048  0.0269
11863W        W30067  14.773   4.765  12.292  0.0882  0.1643 -0.0775
11864W        W30068  11.739   8.985  13.362  0.5483 -0.2997 -0.3678
11865W        W30069   5.472   5.384   0.964  0.1136  0.1344  0.4133
11866W        W30070   2.441   0.498   0.577 -0.1108  0.0596 -0.0924
11867W        W30071   8.049  15.973  16.526 -0.0436 -0.1102 -0.4091
11868W        W30072   1.991   6.694   1.986  0.1127 -0.1856  0.4496
11869W        W30073   8.529   0.431  14.721 -0.2690 -0.1080 -0.0301
11870W        W30074  10.522  13.333   1.735  0.0497 -0.0410  0.0189
11871W        W30075   4.455   8.000  15.104 -0.0136  0.1151  0.0951
11872W        W30076  15.516   6.903   1.364 -0.0617  0.1993  0.0950
11873W        W30077  11.016  11.764  17.011  0.0079  0.3918 -0.2304
11874W        W30078  12.804   9.167  13.490 -0.1558 -0.1360 -0.1123
11875W        W30079  16.522   3.722   3.966  0.3476 -0.2098  0.0030
11876W        W30080   7.681  12.269  14.223  0.3557 -0.3747 -0.0081
11877W        W30081  11.702   7.635   3.026 -0.0322 -0.1480 -0.0527
11878W        W30082   8.553  16.123   4.304 -0.3996  0.0671 -0.2774
11879W        W30083  12.702   1.075   2.754 -0.0149 -0.0827 -0.2479
11880W        W30084   5.320   1.516   1.023 -0.2945  0.1021 -0.2079
11881W        W30085  12.455  14.407  15.623 -0.3272 -0.0738 -0.0867
11882W        W30086   0.109   8.498   2.289 -0.2493  0.0549  0.2319
11883W        W30087  10.345  11.147   4.758 -0.1663 -0.0134 -0.0483
11884W        W30088   3.271   2.115  13.813 -0.3954  0.0370  0.0990
11885W        W30089  16.516   5.071  14.071  0.0771 -0.2562  0.1324
11886W        W30090   7.725   5.940   3.262  0.2014  0.0366 -0.1364
11887W        W30091   9.627   3.477   1.633  0.0424  0.0650  0.2485
11888W        W30092  13.130   8.127   3.635  0.1180 -0.0152  0.0657
11889W        W30093  16.791  12.161   0.622  0.1675  0.2292  0.1165
11890W        W30094  11.112   6.968   1.939 -0.0518 -0.2520  0.0084
11891W        W30095   5.657  10.803  16.478  0.1316 -0.2773  0.0042
11892W        W30096  12.693   8.593   3.683  0.2493  0.0024 -0.2575
11893W        W30097   1.840  17.331   3.314 -0.1410  0.0620  0.2417
11894W        W30098   6.359  15.824   1.454  0.0358 -0.2716 -0.2167
11895W        W30099   3.457   6.687  13.191 -0.0716 -0.0476 -0.1670
11896W        W30100   5.124  10.730   3.413 -0.3405 -0.3047  0.1817
11897W        W30101  14.124   3.924  14.801  0.0060 -0.0498 -0.3239
11898W        W30102  15.194   2.034  15.653 -0.3281  0.2036 -0.3149
11899W        W30103  11.788   3.355  16.813  0.3077 -0.2584  0.2186
11900W        W30104  11.095   0.809   3.633 -0.3412  0.1399 -0.0323
11901W        W30105   8.956   0.934   6.217  0.0298  0.0532  0.1943
11902W        W30106  13.103   0.786  15.606  0.2897  0.1890  0.0785
11903W        W30107  10.363  15.115   3.625  0.3745  0.0395  0.0709
11904W        W30108  16.064   7.275  17.004  0.1611 -0.0330 -0.1135
11905W        W30109   8.245   6.391   0.491  0.1088 -0.0485 -0.1091
11906W        W30110  11.942  16.882  13.516 -0.0895 -0.0113  0.5190
11907W        W30111   1.416  13.906  16.475 -0.1334 -0.0282  0.0508
11908W        W30112  14.864  16.097   1.554 -0.2614  0.0969  0.3444
11909W        W30113   9.021  11.688   3.840 -0.1498  0.0126 -0.1405
11910W        W30114  13.394  10.043  13.652 -0.0471 -0.1901  0.4328
11911W        W30115   5.833   8.506   4.512 -0.0605  0.2109  0.0851
11912W        W30116  12.687   5.206   5.518  0.3389  0.1979  0.1672
11913W        W30117   2.601   4.816  12.454  0.2122 -0.2821 -0.0455
11914W        W30118   6.954   7.067  13.639  0.0425  0.1646  0.3948
11915W        W30119   8.870   8.427  14.152  0.3061  0.0558 -0.2510
11916W        W30120  11.275  11.462  12.574  0.3788  0.0165 -0.0415
11917W        W30121   9.289  16.962  12.173 -0.1776 -0.0878 -0.1999
11918W        W30122   5.835  17.001   5.308  0.2838 -0.0567 -0.1762
11919W        W30123   2.343   4.335   1.422 -0.0972 -0.3423  0.0642
11920W        W30124   1.307   1.745   0.550 -0.2944  0.3156  0.1479
11921W        W30125   0.870   1.723  13.216 -0.0605  0.0293  0.1806
11922W        W30126   5.585   0.697   3.081 -0.1287  0.1583  0.1372
11923W        W30127   7.546  17.088   3.067 -0.0465 -0.1353 -0.1407
11924W        W30128  12.542   1.391  16.932  0.1353 -0.1031 -0.0513
11925W        W30129  13.384  17.084   3.835  0.1641 -0.0031 -0.0380
11926W        W30130   0.929   1.458   0.364  0.1116  0.2396  0.1490
11927W        W30131   7.151   0.832   4.250 -0.2073  0.1894 -0.0799
11928W        W30132  13.810  13.412  17.056 -0.0536 -0.3376 -0.0376
11929W        W30133  13.112  14.090   4.212 -0.0369 -0.1101 -0.2239
11930W        W30134   5.980  13.120   1.682 -0.2671  0.1927  0.0577
11931W        W30135   5.766  14.571  17.090  0.0752  0.1201  0.1151
11932W        W30136  11.569   5.724   0.176  0.4177  0.0638 -0.4850
11933W        W30137  10.570  16.136  17.135  0.0478 -0.1042  0.0007
11934W        W30138  15.944   1.796   0.200 -0.2141 -0.0511 -0.0763
11935W        W30139   5.286  16.788   0.586  0.2256  0.1171  0.3998
11936W        W30140  14.397  15.077   4.293  0.1049 -0.1644  0.2802
11937W        W30141   1.181  14.583   2.619  0.4651 -0.0740  0.0760
11938W        W30142   1.812  16.603  14.338  0.0484 -0.1402  0.1401
11939W        W30143  12.660  14.037   0.567 -0.0040 -0.0896 -0.3244
11940W        W30144  12.674   9.885  17.059  0.4210  0.1567 -0.1762
11941W        W30145  10.979  12.584   3.204  0.0034  0.2072  0.1454
11942W        W30146   4.675   0.261  12.340  0.3672 -0.0508  0.1562
11943W        W30147   7.776   2.612  14.615  0.1695  0.2648 -0.0270
11944W        W30148   6.006   7.792   5.734  0.0642 -0.1062  0.1465
11945W        W30149   7.714   9.745   1.525 -0.2142 -0.1071  0.1128
11946W        W30150   7.841  13.685   0.368 -0.3727 -0.2012 -0.1133
11947W        W30151  15.632   5.332   2.004  0.0222  0.1019 -0.1828
11948W        W30152   8.646  16.366   4.818  0.1752  0.3182 -0.0472
11949W        W30153  13.536   1.320  13.312 -0.0977 -0.3833 -0.2264
11950W        W30154   5.149   4.560   0.278 -0.0649 -0.3527 -0.0662
11951W        W30155  11.562   6.338   4.167  0.0917  0.2472 -0.2331
11952W        W30156  12.468  11.982   5.180  0.0407  0.0492 -0.0997
11953W        W30157  10.107   7.630  12.046  0.4989 -0.0261  0.2179
11954W        W30158  11.132   9.436  16.668 -0.2277 -0.3508  0.0594
11955W        W30159  15.648   1.402   5.443  0.0726 -0.2073  0.3507
11956W        W30160  14.989   9.093   1.306 -0.0658 -0.1384  0.0477
11957W        W30161   4.843  12.970  16.373 -0.2159  0.0963  0.0942
11958W        W30162   4.737   3.349   1.499  0.0682  0.1448 -0.0756
11959W        W30163   7.857  15.911   0.235 -0.2736 -0.0860 -0.0829
11960W        W30164  17.414  14.870   1.410 -0.1675 -0.2576  0.1639
11961W        W30165   8.036   4.016   1.938 -0.1064  0.1236 -0.2066
11962W        W30166   5.589   0.980   1.857  0.3015 -0.0179  0.1238
11963W        W30167   5.768   9.560   0.080  0.2182  0.0684  0.0549
11964W        W30168   1.057   4.679  14.544 -0.0851 -0.3300  0.3004
11965W        W30169  14.137   6.249  15.015  0.1160  0.0663 -0.0317
11966W        W30170   4.668  14.769  14.551 -0.0790  0.1781 -0.2116
11967W        W30171  16.991   1.367  15.119 -0.3048  0.0481 -0.0542
11968W        W30172  15.359   3.190  15.395  0.0720 -0.1210  0.1645
11969W        W30173  12.406   1.531   2.275  0.0759  0.1462 -0.2463
11970W        W30174   1.191  17.451  17.280  0.0856  0.3344  0.0574
11971W        W30175   3.794   9.505  13.318 -0.1591  0.1216 -0.0350
11972W        W30176   9.260   6.554   0.628 -0.2525  0.2924 -0.3362
11973W        W30177  12.290  13.836   3.803  0.1890  0.0603 -0.0409
11974W        W30178   6.111   3.371  12.815  0.0568  0.2186 -0.1831
11975W        W30179  14.056  13.579  11.975  0.0681 -0.2483  0.2921
11976W        W30180   8.026   1.660   0.340 -0.1538  0.0426 -0.1437
11977W        W30181  13.395  16.708  16.264  0.1253  0.1396  0.2227
11978W        W30182  13.077   7.227  13.143 -0.0592  0.2767  0.3369
11979W        W30183  11.348   9.849   0.281  0.2941 -0.2096 -0.1017
11980W        W30184  10.425   1.962  14.612  0.0163 -0.0894  0.0412
11981W        W30185  11.730  12.238  14.925 -0.1298  0.0310  0.0088
11982W        W30186   2.593  16.086  13.296  0.0133  0.2338  0.2027
11983W        W30187   5.221  15.341  12.887  0.0565 -0.1381 -0.0097
11984W        W30188   8.917   5.461   1.507  0.1912 -0.0187  0.0816
11985W        W30189   0.682  12.106  17.101  0.1218 -0.0848  0.0461
11986W        W30190   8.232  17.163  12.471 -0.1466  0.1544 -0.0046
11987W        W30191   3.025   0.004   5.069 -0.1987 -0.1927  0.0763
11988W        W30192   1.899   5.387   1.625 -0.2228 -0.1391  0.0044
11989W        W30193  16.880   0.716  15.928  0.0497 -0.1872  0.3343
11990W        W30194  10.712   9.350  16.011 -0.0556 -0.1722 -0.1468
11991W        W30195   3.907   2.897   0.466 -0.0960  0.0190 -0.2302
11992W        W30196  15.852   0.748   0.108 -0.0457  0.0435  0.3759
11993W        W30197  13.374   4.657  13.622 -0.1148  0.1981 -0.0964
11994W        W30198   9.437   0.675   1.131  0.0178  0.1316  0.3725
11995W        W30199   1.930  15.254   1.729  0.0386 -0.0281 -0.1027
11996W        W30200  11.670  16.235   1.524  0.0560 -0.0028 -0.1466
11997W        W30201  10.967  17.343   1.580 -0.0233 -0.5849  0.1628
11998W        W30202   5.994  10.062  14.937  0.0948  0.3925  0.3076
11999W        W30203   6.557  15.313   0.033 -0.0520  0.0161 -0.0980
12000W        W30204   5.865   0.353   2.773  0.0107  0.0379 -0.0867
12001W        W30205   6.704  16.222  16.842  0.3245 -0.0402 -0.1136
12002W        W30206   5.000   8.904  13.948  0.1251  0.1265 -0.2072
12003W        W30207  11.611  13.713  12.885  0.1136  0.1375 -0.0976
12004W        W30208  17.463  15.019   4.572 -0.2648  0.0758 -0.1520
12005W        W30209   3.903  15.099  14.819  0.1709  0.0830  0.2523
12006W        W30210  12.198   5.081   3.748  0.1430  0.1630  0.1585
12007W        W30211   2.542  14.964  13.842 -0.1258  0.0478 -0.0733
12008W        W30212  12.363  15.093  13.740 -0.2444 -0.3543  0.4433
12009W        W30213   0.918   1.380  11.074 -0.1242 -0.0913 -0.1817
12010W        W30214   6.513   7.334   3.968  0.1461 -0.1752 -0.3706
12011W        W30215  15.824  13.366  12.208  0.2295  0.3804 -0.0890
12012W        W30216  10.366   0.280   3.061 -0.0452 -0.0859 -0.0885
12013W        W30217   6.497   7.627   2.346  0.1377  0.2947 -0.0892
12014W        W30218  16.578   4.361  11.940 -0.3074 -0.1424  0.2629
12015W        W30219   8.566  12.648   4.608  0.0983  0.1961 -0.0719
12016W        W30220  12.000  15.592  13.710 -0.3030 -0.0861 -0.1348
12017W        W30221  10.386  17.127  13.576 -0.2002 -0.2796 -0.2681
12018W        W30222   1.894  11.073  13.627  0.0458  0.4624 -0.1500
12019W        W30223  14.872   7.839   1.874 -0.0337  0.1440  0.1647
12020W        W30224   3.540   9.057   4.790 -0.4402 -0.1150 -0.1396
12021W        W30225   6.065   0.738  16.540 -0.0464  0.1960 -0.0825
12022W        W30226   7.804   4.054  12.539  0.1818 -0.0160 -0.1501
12023W        W30227   9.887   1.956   1.353  0.0946 -0.0641  0.0648
12024W        W30228   1.400   5.586   4.244 -0.1486 -0.0405 -0.0776
12025W        W30229   4.641  13.816  16.745  0.2251 -0.1850  0.1453
12026W        W30230  10.421   0.370   5.809 -0.0013 -0.1660 -0.1353
12027W        W30231   6.865   6.104  14.810 -0.1002 -0.2331  0.0236
12028W        W30232   5.969  13.119   0.733  0.0415 -0.1089 -0.3140
12029W        W30233   4.468   8.234  11.988  0.0510  0.1719  0.0233
12030W        W30234  13.500  12.200  10.868 -0.0098 -0.3109 -0.0804
12031W        W30235  14.629  14.534   2.607 -0.1566 -0.2868  0.0930
12032W        W30236   6.046   8.154  17.054  0.2561 -0.2026 -0.1026
12033W        W30237   8.091  10.239   0.184  0.1417 -0.0934 -0.0872
12034W        W30238   1.146   8.440   2.196  0.1771  0.3482  0.2639
12035W        W30239   4.259  11.160   0.340 -0.2808  0.0624  0.2708
12036W        W30240   7.317  12.344  13.865  0.3328 -0.0225  0.1041
12037W        W30241   9.594  16.479   6.145  0.0463 -0.1593  0.2006
12038W        W30242   0.712   7.303  14.775 -0.0642  0.0603  0.0937
12039W        W30243  15.706   4.144   1.085 -0.1664 -0.0955  0.2346
12040W        W30244   6.293  16.810   3.838 -0.0247  0.1027 -0.1193
12041W        W30245   0.716   8.191   2.625  0.0856 -0.0829  0.0463
12042W        W30246   4.691   4.793  14.126 -0.0919 -0.2252 -0.2450
12043W        W30247  11.771   2.829  14.391  0.0568  0.0611 -0.0046
12044W        W30248   4.477   9.790  16.896  0.0132 -0.1936  0.0792
12045W        W30249   2.064   4.622  15.372  0.0569  0.1498 -0.1448
12046W        W30250   4.826   5.408  12.990  0.4636  0.3768  0.0455
12047W        W30251   3.114  14.823  12.208 -0.0138 -0.1586 -0.1996
12048W        W30252   8.738   7.378  16.024 -0.0992  0.1904 -0.1227
12049W        W30253   6.926   3.102  14.474  0.0485 -0.1168 -0.1174
12050W        W30254   5.844  14.589   3.541 -0.2498  0.3979  0.1250
12051W        W30255  12.992   0.479   2.557 -0.0131  0.3150  0.0599
12052W        W30256   7.845   8.427   1.987  0.1846  0.3332 -0.1917
12053W        W30257   6.557   5.216   4.785 -0.0529  0.4113  0.2991
12054W        W30258   0.592  10.588  12.541  0.0814 -0.0448 -0.0843
12055W        W30259   0.997   6.250  17.068 -0.1460  0.1876 -0.0149
12056W        W30260  17.244  13.579  12.571  0.3227  0.0459  0.0490
12057W        W30261   9.411  13.664  12.247  0.0663 -0.1911 -0.0081
12058W        W30262   2.833  10.123   4.394 -0.1046 -0.4178 -0.0704
12059W        W30263   6.893   4.079  14.746 -0.2779 -0.1148  0.5101
12060W        W30264  16.121  10.947  16.269  0.0107  0.0118  0.0878
12061W        W30265  10.208   7.009   1.670 -0.0834 -0.0802 -0.1388
12062W        W30266  17.086  13.307   3.001 -0.4050 -0.1074 -0.1885
12063W        W30267  16.438   6.913   3.179  0.2038 -0.1641 -0.0535
12064W        W30268   8.282   9.741  11.465 -0.0174  0.0054  0.0682
12065W        W30269   5.282  16.964   3.782  0.0017 -0.0322  0.0658
12066W        W30270   3.235   2.480  14.538 -0.0102 -0.0116  0.1804
12067W        W30271   0.027   2.427   1.936  0.0479 -0.2862 -0.0271
12068W        W30272   3.838   8.402  13.344  0.1619 -0.0887 -0.1259
12069W        W30273  14.941   9.647  16.806  0.0099 -0.1239 -0.0116
12070W        W30274  16.718  12.792  12.792  0.3983  0.0426  0.4124
12071W        W30275  15.914   1.034  16.993  0.2365 -0.0818 -0.1016
12072W        W30276  14.925   0.868  13.267  0.1947 -0.1318 -0.2806
12073W        W30277   8.904  14.248  16.242 -0.0020 -0.2286  0.2216
12074W        W30278  15.684   7.280  16.101 -0.1232  0.0822 -0.3564
12075W        W30279   5.810  11.750   0.149 -0.0291 -0.2187  0.1192
12076W        W30280   8.252   8.947  16.152  0.0465 -0.2036  0.1372
12077W        W30281  11.375   8.858  13.006  0.1954 -0.0318  0.2261
12078W        W30282   1.280  11.768  17.276 -0.1712 -0.3736 -0.0992
12079W        W30283   9.440  12.437   1.387  0.1123 -0.0473  0.2584
12080W        W30284   7.697  14.988  14.632 -0.1172  0.3734 -0.0902
12081W        W30285   3.953  11.609   4.465  0.0401 -0.1526  0.2936
12082W        W30286  11.175   4.812  14.389 -0.1767  0.0911 -0.0478
12083W        W30287  16.483  13.311  12.278  0.1195  0.1200 -0.0387
12084W        W30288  10.743  13.640   3.697  0.3236  0.1831  0.0807
12085W        W30289   1.319   1.296   3.017  0.3102  0.0747 -0.2427
12086W        W30290   6.624  12.804  12.636  0.1317  0.1769  0.0885
12087W        W30291  13.931  11.691   5.821 -0.0661  0.1646  0.5390
12088W        W30292  11.046   3.881   5.121  0.0862 -0.0153 -0.0111
12089W        W30293  10.201  14.757   0.265 -0.1758  0.1737 -0.3427
12090W        W30294   7.649   9.833  15.889 -0.0247  0.2999  0.0900
12091W        W30295  15.562  15.849   4.360 -0.1509  0.1358  0.0208
12092W        W30296   8.018   1.118   1.143 -0.1216 -0.0662 -0.3443
12093W        W30297  13.547   9.661  13.309  0.0838  0.2900  0.1557
12094W        W30298   2.003   4.731  12.997  0.0997  0.2062  0.0124
12095W        W30299  15.598  15.526   3.464 -0.1765 -0.1964  0.1979
12096W        W30300   2.664   3.189   1.518 -0.0536 -0.2586 -0.1377
12097W        W30301   6.504   0.753  14.961  0.1100  0.1932 -0.1766
12098W        W30302  15.615   2.189   0.240  0.0751 -0.1084  0.1263
12099W        W30303  12.631  14.758  14.361  0.2056 -0.1947  0.1000
12100W        W30304  11.218   3.410   3.051 -0.1735  0.2159  0.1141
12101W        W30305  15.507  16.844   1.264  0.0374  0.0616 -0.1078
12102W        W30306  10.716   8.192   4.567 -0.1370  0.1251 -0.2399
12103W        W30307   2.786   5.617   5.197 -0.0959 -0.3067  0.1707
12104W        W30308  11.268   8.284  13.937  0.1149  0.1294 -0.1091
12105W        W30309   9.573   4.811  14.676  0.0386 -0.1038  0.0811
12106W        W30310  10.078  16.670  14.617  0.1598 -0.1856  0.1313
12107W        W30311  16.588  15.306  16.101  0.0776  0.2686 -0.1183
12108W        W30312   4.207   4.063   3.692 -0.5047  0.1561 -0.1257
12109W        W30313   6.936  13.270  11.885  0.4681 -0.1200 -0.0243
12110W        W30314   2.252  12.622  13.749 -0.1248  0.1753 -0.5408
12111W        W30315  12.700   2.735  12.294  0.0133 -0.1020  0.0301
12112W        W30316   1.370  11.651  16.834  0.0804  0.3226  0.0002
12113W        W30317  11.803   9.774  16.685 -0.1105  0.4357  0.1763
12114W        W30318   8.529  10.843   3.727  0.0425  0.0502 -0.0788
12115W        W30319  10.781   5.196   3.452 -0.2782  0.0612 -0.2473
12116W        W30320   9.070   2.691  12.994  0.2690  0.0943  0.0175
12117W        W30321  10.575   1.512  14.846  0.3797 -0.4534  0.0850
12118W        W30322   1.215   6.515   4.682  0.0312 -0.1111 -0.3055
12119W        W30323   3.400   8.202  11.972 -0.0044  0.3056  0.1304
12120W        W30324   1.752  10.388   4.881 -0.1552  0.1117  0.4223
12121W        W30325   3.533  11.092   1.371 -0.0221  0.0291  0.2157
12122W        W30326  16.649   8.060   1.428 -0.2739 -0.1156 -0.0740
12123W        W30327  11.351   2.726   0.005  0.1756  0.0260  0.0113
12124W        W30328  15.326   4.455   1.841 -0.2656 -0.2289  0.0171
12125W        W30329   0.642   9.396  17.221  0.2678 -0.0824  0.1703
12126W        W30330   3.036  16.492  12.483  0.1035  0.0714 -0.1245
12127W        W30331   6.754   4.378   1.793  0.4347 -0.1785  0.1425
12128W        W30332   6.200   0.067  15.394 -0.2615 -0.2758  0.1033
12129W        W30333   3.666   8.028   3.996 -0.0401 -0.0915 -0.2479
12130W        W30334   0.430  16.523  13.161 -0.0286  0.4336 -0.1516
12131W        W30335   3.209   4.111   1.347  0.1554  0.1552  0.1349
12132W        W30336   5.082  15.950   0.999  0.1587  0.0286 -0.0323
12133W        W30337  15.818  11.534   3.658 -0.0195  0.3583  0.1223
12134W        W30338   0.516  12.884   5.029  0.2099 -0.1095  0.1199
12135W        W30339   8.959   8.623  12.072 -0.2709  0.0898 -0.1241
12136W        W30340  17.146  13.416  13.470  0.2699  0.4505 -0.2360
12137W        W30341   0.192  12.488   2.553 -0.2968  0.2780  0.0956
12138W        W30342   7.646  11.139  15.830 -0.1348  0.0404 -0.1736
12139W        W30343   4.121   6.868   4.359 -0.2074  0.0017  0.0772
12140W        W30344  13.895  12.382   4.177  0.0858  0.1517 -0.2418
12141W        W30345   3.490  12.869  13.748  0.0397 -0.0322 -0.0731
12142W        W30346  15.535   0.253  12.134  0.4746  0.1319  0.2026
12143W        W30347   6.841  10.843   2.001 -0.0754 -0.0026 -0.3680
12144W        W30348  10.492  13.057  15.111  0.2072 -0.1148 -0.1573
12145W        W30349   0.333   8.250  14.587  0.1637 -0.2492  0.0864
12146W        W30350   0.286   3.170   4.269 -0.3707  0.2076  0.1825
12147W        W30351  12.327  11.724   4.719  0.0782  0.0587  0.1478
12148W        W30352   8.560  15.945  16.581 -0.4778  0.3151  0.1055
12149W        W30353  14.681   9.383  12.334  0.2842  0.0178  0.0253
12150W        W30354   3.790   9.720   2.204  0.2496  0.1133 -0.2829
12151W        W30355   4.741   5.001   4.806 -0.0471  0.0322 -0.3603
12152W        W30356  14.980   0.215  16.445 -0.0236  0.1462 -0.0109
12153W        W30357   3.365   8.031  12.798 -0.0409  0.0642  0.1100
12154W        W30358   1.048  11.195  13.916 -0.2082 -0.1361  0.0154
12155W        W30359   2.113  15.329  13.771  0.0489 -0.3505 -0.0096
12156W        W30360  14.382  12.232   4.667 -0.0212 -0.1904 -0.2513
12157W        W30361  17.142   4.590   4.149 -0.0750 -0.3380 -0.2096
12158W        W30362  15.401  16.804  15.267 -0.0024  0.0243  0.0688
12159W        W30363   2.926  11.450   3.377 -0.3927  0.0894 -0.1738
12160W        W30364   1.208   0.368   3.751 -0.0348 -0.3586  0.0355
12161W        W30365   5.244   4.566   4.425  0.0717 -0.0883  0.1909
12162W        W30366   3.222  16.539  15.762  0.0357 -0.1617 -0.0786
12163W        W30367   5.926   5.832  13.881  0.3640 -0.0063 -0.3682
12164W        W30368   4.529   0.919  13.763 -0.1311  0.0082  0.1547
12165W        W30369   9.593   6.594   1.056 -0.0061  0.2746  0.1848
12166W        W30370  14.308   2.471  12.446  0.1247  0.1674  0.1283
12167W        W30371   5.659   5.527  14.761  0.5294 -0.2059  0.0440
12168W        W30372  11.226   1.451   5.417  0.0230  0.0611 -0.2600
12169W        W30373  13.493   4.528   1.961 -0.0395 -0.2080 -0.1909
12170W        W30374  15.375   8.011   4.071 -0.2696  0.1706  0.0253
12171W        W30375   0.383   8.149   1.872  0.2075  0.1137  0.0818
12172W        W30376   5.810   1.380   1.838  0.1921  0.2341 -0.0401
12173W        W30377  11.914   2.967   1.765 -0.0476 -0.0516  0.1400
12174W        W30378   4.634   5.815   2.721  0.2042 -0.0736  0.0325
12175W        W30379  14.237  12.907  16.174 -0.1730  0.0815 -0.0029
12176W        W30380   7.952  12.716   2.660  0.3165 -0.1356  0.3447
12177W        W30381  15.297   6.681   4.417  0.0665  0.1548 -0.1884
12178W        W30382  10.821   7.740  13.221 -0.0256  0.0504 -0.3926
12179W        W30383   8.619  15.205  15.974 -0.2308 -0.3922 -0.1435
12180W        W30384   0.959   6.933  13.021 -0.0832 -0.3271  0.0365
12181W        W30385   5.386   5.154  16.273 -0.1682 -0.2166 -0.2723
12182W        W30386   0.877  13.934  12.729  0.2592 -0.2204  0.0911
12183W        W30387  11.404  10.274   3.194 -0.4108 -0.2106 -0.2556
12184W        W30388   5.534   6.338   3.773 -0.2977 -0.1007 -0.0043
12185W        W30389   4.289   3.879   4.250  0.0932  0.0059 -0.0629
12186W        W30390   6.902  17.278  15.254 -0.2706  0.0907 -0.3133
12187W        W30391  14.181   5.285   4.623 -0.2794  0.2862 -0.2022
12188W        W30392   9.679   3.423   5.341  0.0435  0.2667  0.1502
12189W        W30393  13.544   7.411  16.854 -0.2519 -0.1362 -0.1740
12190W        W30394   1.446   8.143  12.667 -0.0562  0.1396 -0.0322
12191W        W30395  12.919   7.607   4.934 -0.0903 -0.0313  0.1427
12192W        W30396  17.515  10.085  14.565 -0.0152 -0.1818  0.2235
12193W        W30397  13.028  10.477   4.417 -0.1109  0.1087 -0.0965
12194W        W30398   9.627  16.819   2.723  0.0120 -0.1025  0.1990
12195W        W30399   4.070   1.192  13.659  0.0525 -0.2897  0.1904
12196W        W30400  13.334  10.096   3.482 -0.1159  0.3430  0.0448
12197W        W30401   2.910   3.748  16.327 -0.2262  0.2275  0.0932
12198W        W30402  11.062  10.309   1.049  0.1138  0.1418  0.0481
12199W        W30403   8.485   7.198  13.691  0.4343 -0.0649 -0.1229
12200W        W30404  12.307   0.138  15.495 -0.0886 -0.1840  0.0065
12201W        W30405  12.524  14.902  17.255  0.0204 -0.0575 -0.0333
12202W        W30406   3.173  15.244  14.289 -0.1315  0.1353  0.1066
12203W        W30407  17.006  13.968  11.685  0.1813  0.0956 -0.0811
12204W        W30408   6.260   1.114   5.097 -0.1941  0.1416 -0.0536
12205W        W30409   0.012  17.179   5.664 -0.5005 -0.0218 -0.0439
12206W        W30410   4.631  10.716   0.053 -0.2390  0.0757  0.1049
12207W        W30411  15.100   7.920   0.704  0.1286  0.1844  0.0515
12208W        W30412   5.348   2.839   0.888 -0.1298  0.4103  0.0468
12209W        W30413   6.554  17.322  14.329 -0.0216 -0.0026 -0.2866
12210W        W30414  15.832   8.475   3.106 -0.0331  0.0191  0.0915
12211W        W30415  11.765   6.826   3.876  0.2040 -0.0036  0.0917
12212W        W30416   9.927  16.886   1.039 -0.1614  0.1633 -0.0286
12213W        W30417  17.184   0.440  15.037 -0.1576  0.3354 -0.2190
12214W        W30418   3.244  11.196  13.837 -0.0483 -0.0772 -0.0164
12215W        W30419  11.627   7.947  16.706 -0.0537  0.0491  0.1415
12216W        W30420   3.110   6.478   0.218 -0.3450  0.2216 -0.2397
12217W        W30421   9.178  11.885  12.340 -0.1217 -0.2174  0.3829
12218W        W30422   3.319   5.070  14.595  0.1040 -0.1462 -0.1972
12219W        W30423   4.283   8.548   3.462  0.1246  0.0781  0.0621
12220W        W30424  12.359   6.968   2.712  0.0931  0.1382 -0.0195
12221W        W30425   8.342  11.919  12.293  0.0774 -0.0348 -0.2609
12222W        W30426   6.398   0.678  14.289  0.0903 -0.0831 -0.0718
12223W        W30427   2.739   7.188   0.393 -0.0438  0.0813  0.4658
12224W        W30428   3.491   1.752  17.140  0.0300  0.1985 -0.0689
12225W        W30429   5.173   2.609  16.908 -0.0157  0.5454 -0.0142
12226W        W30430  17.453   1.884   2.931 -0.0863  0.2634 -0.0101
12227W        W30431  17.202   6.726   2.580  0.0341 -0.1597 -0.2119
12228W        W30432  15.422  17.326   1.325 -0.0802 -0.0441  0.1500
12229W        W30433   0.022   7.874   2.025 -0.1924  0.3458  0.1249
12230W        W30434  10.208  14.630   1.780  0.0280 -0.0694  0.0127
12231W        W30435  17.186   1.018  13.543 -0.0543  0.1172 -0.2719
12232W        W30436  10.979  11.115   3.881 -0.2235  0.2749  0.0257
12233W        W30437   4.536   0.791  15.173 -0.0143  0.1766 -0.0655
12234W        W30438   4.989  15.968  16.386  0.2031  0.0849  0.0185
12235W        W30439   2.048  10.734  14.667 -0.2353 -0.0745  0.1339
12236W        W30440  11.062   6.188  12.473  0.2036 -0.1156  0.3052
12237W        W30441   0.744  12.125   3.931 -0.0571  0.1397 -0.0179
12238W        W30442   3.903  16.047  17.255  0.1154 -0.2226  0.0838
12239W        W30443   6.890  10.721   4.281  0.3803  0.0567  0.1988
12240W        W30444   5.887   6.997   6.077 -0.0315  0.0767 -0.1035
12241W        W30445   2.615   7.123  14.110 -0.3667  0.0976  0.2188
12242W        W30446   1.149   6.081   2.648 -0.0113 -0.3766  0.0238
12243W        W30447  11.237   8.518   1.229  0.1002 -0.2005  0.2558
12244W        W30448   6.123  13.531  15.291 -0.3095  0.0589  0.1511
12245W        W30449   2.675  10.547   2.544 -0.4041 -0.3111  0.3351
12246W        W30450   4.856   0.557  16.813 -0.1957 -0.2765 -0.0252
12247W        W30451   7.369   9.490  16.166  0.0732  0.3905 -0.0781
12248W        W30452   6.097  11.871   2.336 -0.1924 -0.2777  0.0151
12249W        W30453  11.671   2.562   6.128  0.1369 -0.2525 -0.0028
12250W        W30454   8.022   6.432  17.041 -0.0170 -0.0566 -0.0215
12251W        W30455   8.693   3.271   0.392  0.0224 -0.0462 -0.0368
12252W        W30456   8.959   8.697   3.080 -0.0702  0.0019  0.0080
12253W        W30457  11.258   6.324  13.800 -0.1272 -0.1374  0.2492
12254W        W30458  10.878   2.815  17.249 -0.2262 -0.1230  0.2645
12255W        W30459  15.324   5.370   3.100 -0.1818  0.0743  0.0355
12256W        W30460   5.470  16.154   2.597 -0.0144 -0.1601 -0.2969
12257W        W30461   4.971   7.310  14.010  0.0095  0.1058  0.3128
12258W        W30462   5.123   0.592  12.318  0.3034  0.1472 -0.2800
12259W        W30463   4.499  13.694   3.770  0.0106 -0.1527  0.0052
12260W        W30464   9.066   2.270  14.227  0.0577 -0.2141  0.1599
12261W        W30465   9.128  16.986  17.131 -0.0286 -0.0536  0.1744
12262W        W30466  14.593  10.104   0.224  0.3337  0.0164  0.2093
12263W        W30467   0.803   7.721   4.632 -0.1911 -0.2893 -0.2359
12264W        W30468   1.434   9.840  14.147 -0.0014  0.1388  0.2506
12265W        W30469  15.407   0.482  16.356  0.3132 -0.0242 -0.0560
12266W        W30470   6.281  10.577   3.539 -0.1919  0.0077  0.1883
12267W        W30471   3.099   8.628   1.720  0.1861 -0.0635 -0.0820
12268W        W30472   0.524   3.948  14.823  0.1196  0.0110  0.1336
12269W        W30473  12.593  12.502  14.047 -0.2212 -0.4054  0.0528
12270W        W30474   5.054   5.316   3.569 -0.1498 -0.2480 -0.0720
12271W        W30475  12.444   8.736   2.623 -0.0693  0.2771 -0.0031
12272W        W30476  14.720   3.345   4.632 -0.0223 -0.2025  0.0922
12273W        W30477  12.497  10.861  15.341  0.3292 -0.0166  0.0704
12274W        W30478   2.972   6.881   1.722 -0.1498  0.2596 -0.1482
12275W        W30479  15.361   9.588   6.318 -0.1255  0.1812  0.2458
12276W        W30480   1.949   7.368   3.233  0.0903  0.1272  0.1978
12277W        W30481   4.383  13.837   2.063  0.0539 -0.1702  0.0904
12278W        W30482   4.547   4.679  11.329  0.1306  0.0834 -0.0754
12279W        W30483  11.538   1.153  16.930  0.1106 -0.0046 -0.1316
12280W        W30484  14.668  14.561   0.726  0.1710 -0.0932 -0.0975
12281W        W30485   1.043   1.834  14.397 -0.1292 -0.2019  0.2021
12282W        W30486  15.354  16.316   2.870 -0.2741 -0.0875 -0.2883
12283W        W30487  15.741  10.673  13.190  0.0740 -0.0100  0.2137
12284W        W30488   3.345  16.399  14.757  0.0861 -0.0732  0.1388
12285W        W30489  13.684   4.070  15.032  0.1481  0.2245  0.1374
12286W        W30490   8.137   5.375   2.246  0.0795 -0.0514  0.2717
12287W        W30491   7.950   9.886  15.463  0.0049 -0.2269  0.0435
12288W        W30492  12.058   5.557  14.779 -0.2820 -0.3842  0.2934
12289W        W30493  10.522   6.744  16.213 -0.1494 -0.1743  0.2583
12290W        W30494   6.818   2.899   5.151  0.0556  0.0865 -0.0833
12291W        W30495   9.071   3.277  13.778 -0.1184 -0.1273  0.0584
12292W        W30496   5.924   1.372  12.538 -0.1967  0.0847  0.2724
12293W        W30497   0.240   8.291  14.074 -0.0763  0.0916 -0.0552
12294W        W30498   5.192   0.497   0.284  0.0884 -0.1443 -0.0427
12295W        W30499   1.034  17.410  12.594  0.2991 -0.0839 -0.1573
12296W        W30500   5.523  11.963   5.032 -0.0049  0.2785  0.1170
12297W        W30501  11.475  13.942  15.657 -0.1489 -0.1268 -0.1489
12298W        W30502  12.668   4.627  16.583 -0.1350 -0.0108  0.1022
12299W        W30503   5.347  14.377   3.471 -0.2845  0.1330  0.1265
12300W        W30504   1.281   1.907   1.786  0.2416  0.0467  0.0982
12301W        W30505  14.193   3.817   2.647 -0.0029 -0.2362  0.1587
12302W        W30506  12.065   0.169   3.248  0.0591  0.2679 -0.2010
12303W        W30507  12.951  17.257  15.175  0.1408  0.2450 -0.1194
12304W        W30508   9.463  13.688   3.387  0.0745 -0.3602  0.1030
12305W        W30509  12.773   1.481  15.226 -0.0320  0.4731  0.0317
12306W        W30510   7.087  17.214   2.929  0.0800  0.1370 -0.2391
12307W        W30511   0.059  15.826   2.931  0.3162 -0.2905 -0.0562
12308W        W30512  12.414   3.684   4.465  0.1334 -0.0628  0.0965
12309W        W30513   4.878  11.742  16.850 -0.2111  0.1669  0.1160
12310W        W30514   6.824  10.365   0.626 -0.0542  0.2068  0.1194
12311W        W30515  16.477  10.093   1.921 -0.1038  0.0082 -0.2977
12312W        W30516   2.020   2.476   1.991 -0.0800  0.2297  0.0495
12313W        W30517   7.766  13.379  12.273  0.0038  0.1461  0.1373
12314W        W30518   4.743   4.197   4.432 -0.0490  0.1087 -0.0461
12315W        W30519   1.750   9.424  13.383  0.0383  0.1228  0.2607
12316W        W30520   7.108  12.510   3.431 -0.1902 -0.1773 -0.2244
12317W        W30521  13.827   6.311  14.193 -0.0354 -0.1592  0.2869
12318W        W30522   3.963  16.178   2.959  0.0715 -0.0346  0.0695
12319W        W30523  16.195   9.844   1.355 -0.0263  0.1093 -0.1011
12320W        W30524   3.475   0.577   2.242 -0.2568  0.1118 -0.1415
12321W        W30525  17.130  11.164  13.996 -0.1360 -0.4407  0.3335
12322W        W30526  13.978   4.124  15.729  0.3845 -0.1741  0.0177
12323W        W30527  16.870  16.165   0.772 -0.3107  0.0116 -0.0469
12324W        W30528  17.478  15.650  13.406 -0.1534  0.0353  0.0829
12325W        W30529   9.287  16.228   2.021 -0.3137  0.0176 -0.0565
12326W        W30530   7.769  14.085  13.418 -0.1408  0.1361 -0.1499
12327W        W30531   9.918  15.585   0.214 -0.0886  0.2223 -0.0362
12328W        W30532  16.290   6.986   2.697  0.0140  0.0999  0.1841
12329W        W30533   5.204  10.276   2.792  0.3271 -0.2490 -0.0785
12330W        W30534  11.974   9.660  16.202 -0.0545  0.0559  0.2027
12331W        W30535  12.405  11.790  15.727  0.0526  0.1861 -0.2999
12332W        W30536  10.787  11.963   1.385 -0.1098 -0.3070 -0.0485
12333W        W30537   2.010  15.541   0.906  0.2821  0.1236 -0.0305
12334W        W30538  11.469  11.940  12.175 -0.2124  0.0280 -0.2506
12335W        W30539  15.950  12.238  15.524  0.4404  0.2020  0.2404
12336W        W30540  13.417   1.014  11.539  0.1942 -0.1038 -0.4059
12337W        W30541   5.874  14.869  15.740 -0.2376  0.0202 -0.1235
12338W        W30542   7.999   0.871  13.710  0.1100  0.0403  0.0691
12339W        W30543  15.756   1.630  16.694 -0.0318 -0.2589  0.3132
12340W        W30544   7.248  11.868  14.175 -0.2433 -0.1880 -0.2009
12341W        W30545   0.598   1.837  14.714 -0.3434  0.3143 -0.3662
12342W        W30546   8.264   4.705  16.106  0.1120 -0.2343  0.0709
12343W        W30547  14.651   4.152   1.214 -0.0052 -0.1179  0.0082
12344W        W30548  12.139   7.701  16.718 -0.0394  0.1629  0.1494
12345W        W30549   2.466  10.178   2.287 -0.0689 -0.4869  0.0172
12346W        W30550   2.732  12.534  12.655  0.0549  0.2335  0.0112
12347W        W30551  13.783  16.751   4.153  0.4474  0.0771  0.0665
12348W        W30552   9.352   9.209  13.746  0.1284 -0.1370  0.1401
12349W        W30553   5.409   3.449  16.647  0.0224 -0.2309  0.0711
12350W        W30554   3.288  15.209   4.086 -0.0682  0.0858 -0.0328
12351W        W30555   3.894  11.702  16.474 -0.1873  0.1215 -0.0231
12352W        W30556   1.183   3.160   1.118  0.2961 -0.0247  0.0363
12353W        W30557  15.876   3.736   4.396 -0.2961 -0.1764 -0.0219
12354W        W30558   9.130  13.510   3.088 -0.0713  0.1293  0.0150
12355W        W30559   4.158   8.740   0.567 -0.0769  0.0578  0.0697
12356W        W30560  13.630  12.132  11.980 -0.1664 -0.2563  0.3003
12357W        W30561  14.067   4.982   1.507  0.3592 -0.0357  0.1936
12358W        W30562   2.872   1.497  16.578  0.1257  0.0817 -0.2445
12359W        W30563   1.934  17.290  16.096 -0.0171 -0.0073  0.2893
12360W        W30564   8.310   6.553   0.948 -0.0064 -0.1977  0.1420
12361W        W30565  14.550   2.895  16.483  0.1515 -0.0280 -0.0845
12362W        W30566   2.724  12.546  16.043 -0.2111 -0.3162  0.0387
12363W        W30567   4.840  13.271   5.063  0.0758  0.0442 -0.1587
12364W        W30568   5.135  11.094  15.255 -0.0742  0.4007 -0.1565
12365W        W30569   4.113   0.110  15.581 -0.2600  0.1219 -0.1069
12366W        W30570   0.416   7.956   2.294 -0.1586  0.0539  0.2361
12367W        W30571  10.554  10.716  15.897  0.1027 -0.0030  0.2483
12368W        W30572   1.753  16.462   6.394  0.4492  0.1095  0.1696
12369W        W30573   8.546   3.559   5.238 -0.1637 -0.2083  0.1026
12370W        W30574  11.361   2.710  12.111  0.0083  0.1532 -0.2677
12371W        W30575   2.755   8.509  17.066  0.2285  0.0195  0.0359
12372W        W30576   2.366   6.311   2.670  0.0905 -0.1321  0.1331
12373W        W30577   2.688  14.939  15.728 -0.0492  0.0948  0.0621
12374W        W30578   9.259   7.563   4.176  0.0494 -0.0407 -0.2536
12375W        W30579   9.877  13.423  14.533 -0.0548 -0.0538 -0.0735
12376W        W30580   4.048   5.349   3.379 -0.0633  0.0294  0.1229
12377W        W30581  11.893  12.801   1.108 -0.0168 -0.0850 -0.0198
12378W        W30582  15.117   4.640  15.832 -0.0574  0.0562  0.2375
12379W        W30583   9.092   5.435  12.661 -0.1476 -0.2227  0.0795
12380W        W30584   4.240   2.544   0.206  0.2696  0.0278 -0.0021
12381W        W30585  10.240   3.451  13.424  0.0320  0.3107  0.0161
12382W        W30586   5.017  12.031  15.536 -0.0292 -0.3607 -0.1764
12383W        W30587  15.778   4.657   1.982  0.2144  0.0994  0.0189
12384W        W30588  10.592  10.121  17.189 -0.0978 -0.0158  0.0457
12385W        W30589  16.799  14.320  17.230 -0.2097 -0.1887  0.2360
12386W        W30590   2.384   2.655   4.714 -0.2482  0.0498 -0.0937
12387W        W30591  14.666  11.386  17.117 -0.2469 -0.3206 -0.0061
12388W        W30592   0.451  11.606   3.437 -0.0135 -0.0249  0.2806
12389W        W30593   2.340   2.677   2.484 -0.0322  0.2484  0.0025
12390W        W30594   9.081   7.827  15.243  0.1458  0.1522 -0.0950
12391W        W30595  11.317  14.904   1.013  0.2001  0.2245 -0.1047
12392W        W30596   2.166   8.069  14.508  0.1562 -0.1551 -0.2503
12393W        W30597   8.655  14.181  15.191 -0.3173  0.2043  0.2135
12394W        W30598   6.070   5.752  11.877 -0.1622 -0.0641 -0.2744
12395W        W30599  11.229   7.667  12.576  0.0197 -0.2247 -0.2525
12396W        W30600  15.955   2.449  12.408  0.0089  0.0411 -0.0166
12397W        W30601  13.001   8.416  14.999  0.0193 -0.2640  0.1421
12398W        W30602   5.945   0.119   0.323 -0.0502 -0.0541  0.0398
12399W        W30603  15.217   7.798   1.173 -0.1776  0.1058 -0.0228
12400W        W30604   4.319   9.536  12.024  0.1617  0.0355 -0.1920
12401W        W30605   3.462   1.960  14.548  0.0231  0.1779  0.2246
12402W        W30606   4.398   9.334  16.693  0.0581  0.5758  0.2604
12403W        W30607   0.322   4.760  13.837 -0.1453 -0.0045 -0.1436
12404W        W30608   7.102   3.316  11.968 -0.0241 -0.0660  0.4600
12405W        W30609  15.094  16.558  13.602  0.0038 -0.1203  0.2551
12406W        W30610  12.870  14.308  14.324 -0.2243 -0.1541  0.0779
12407W        W30611   1.398   0.522   2.118 -0.3158 -0.3671 -0.3469
12408W        W30612   0.683   9.748   1.693 -0.1826  0.0186 -0.0907
12409W        W30613   3.432   0.812  16.596  0.0920 -0.3115 -0.3185
12410W        W30614   0.224   4.837  13.336  0.1509 -0.1378 -0.0998
12411W        W30615   4.335   1.114   3.324  0.0540  0.0525  0.0329
12412W        W30616  15.766   3.744  12.200  0.1783  0.1666 -0.1301
12413W        W30617  16.288   2.755   0.549 -0.0445 -0.1201 -0.0600
12414W        W30618   2.337   1.550   4.693 -0.2473 -0.0540 -0.1895
12415W        W30619  14.576   5.087  16.601  0.1055 -0.1696  0.0275
12416W        W30620  16.813   1.081   3.557 -0.0631 -0.1818  0.0741
12417W        W30621   1.563   9.612   4.643  0.2870 -0.0553 -0.2056
12418W        W30622  17.418  14.794   1.967 -0.2513 -0.1581 -0.0867
12419W        W30623  16.793   7.285  14.668 -0.5160  0.2270  0.2149
12420W        W30624  12.985  12.716  16.065  0.3225 -0.1651  0.2686
12421W        W30625   7.319  13.490  16.425 -0.2186  0.3704 -0.0580
12422W        W30626  11.910  12.634  16.230  0.0024  0.3916  0.0370
12423W        W30627  15.534  17.407  11.293 -0.0381  0.1539 -0.0042
12424W        W30628   7.183  12.347  12.412 -0.0502  0.0650 -0.3628
12425W        W30629   1.145  12.220  13.916  0.4223 -0.2766 -0.1025
12426W        W30630  11.004  12.105  14.168  0.0097 -0.3060 -0.2203
12427W        W30631  17.233   1.873   2.511  0.3292  0.0556 -0.0196
12428W        W30632  13.280   0.444   2.057  0.1885 -0.1880  0.0922
12429W        W30633   3.408  13.739   2.031  0.1758  0.0704 -0.0481
12430W        W30634   3.603   5.535   3.752 -0.2643 -0.1605  0.0120
12431W        W30635   7.055   0.133  15.691  0.3538 -0.2189 -0.1717
12432W        W30636  11.116   9.928   2.941 -0.1080  0.1200  0.4078
12433W        W30637   6.011  10.094   2.036 -0.0064 -0.0014  0.2101
12434W        W30638   5.831   9.371   3.251  0.0256 -0.0267  0.0680
12435W        W30639   5.660  14.289   2.086 -0.0266  0.0521 -0.0134
12436W        W30640  10.476  11.512   3.938 -0.2912 -0.0680  0.2638
12437W        W30641   7.781   1.967  16.227 -0.0103  0.0253 -0.0516
12438W        W30642  13.936   0.893   2.661 -0.1667 -0.4219  0.0304
12439W        W30643   8.438  11.560   0.333 -0.4063 -0.0544  0.1169
12440W        W30644  10.325  16.519   0.740 -0.1360  0.1371 -0.1552
12441W        W30645   6.489   6.028  13.848  0.1108 -0.0147 -0.0584
12442W        W30646   1.306   9.902   2.327 -0.1648 -0.2849 -0.2077
12443W        W30647   3.912  13.195  13.045  0.0416  0.1491 -0.1307
12444W        W30648   0.685   4.153   3.424  0.1775 -0.1046 -0.3609
12445W        W30649   3.963   7.402  16.631 -0.0238 -0.2029 -0.1183
12446W        W30650   6.775   7.787   0.985  0.0085 -0.0342  0.1462
12447W        W30651   8.638   2.565   2.564  0.1536  0.0855  0.0768
12448W        W30652  15.878   6.332  14.092 -0.2834  0.2792  0.2346
12449W        W30653  10.394   1.234   2.057  0.1148  0.1365 -0.3234
12450W        W30654   7.575  15.452   0.948 -0.0118  0.0387  0.1798
12451W        W30655   7.150  16.797   1.088 -0.1192 -0.0795 -0.2922
12452W        W30656   3.733  13.167  14.858  0.0563 -0.3815  0.3445
12453W        W30657   5.002   9.265   3.619 -0.0368  0.0466  0.3266
12454W        W30658  12.769  14.398   4.821  0.3669  0.0015  0.0219
12455W        W30659   2.216   6.314  15.046  0.1533  0.4584 -0.1683
12456W        W30660  17.012   4.917  16.719  0.3410 -0.0033  0.1935
12457W        W30661   0.800  14.243   3.488  0.2480  0.1464  0.0545
12458W        W30662  13.576  13.887  15.943 -0.4111 -0.3475 -0.1893
12459W        W30663   8.194   7.094   2.919  0.2234  0.0569 -0.1204
12460W        W30664  11.536  16.960  16.691  0.1047  0.0909 -0.0160
12461W        W30665  11.163  14.190   1.566 -0.0755  0.1950 -0.1314
12462W        W30666  17.170   6.297   3.987 -0.1104  0.5126 -0.0819
12463W        W30667  11.716  13.099  15.368 -0.1299  0.2219  0.3198
12464W        W30668  10.992  13.091   3.077  0.0659 -0.3960 -0.3352
12465W        W30669   8.464   1.886   0.079 -0.1120 -0.0272  0.1534
12466W        W30670   9.450  11.240   1.659 -0.0565  0.0271  0.0278
12467W        W30671  11.287   5.800  12.694  0.2662  0.1468 -0.1989
12468W        W30672  11.085  16.884  12.136  0.1623 -0.2009 -0.1597
12469W        W30673   9.298   8.951   5.323  0.0399 -0.0286 -0.2647
12470W        W30674  10.301   1.894   3.240 -0.3059 -0.2233 -0.0114
12471W        W30675   7.052  12.604  12.807  0.1476  0.2600 -0.2027
12472W        W30676   3.280   1.073   3.407  0.2054  0.2858 -0.2451
12473W        W30677  16.181   5.293  14.402  0.0625 -0.0491 -0.1507
12474W        W30678   1.573  12.412   4.346  0.0911 -0.1840  0.2091
12475W        W30679  12.264   3.615  12.531 -0.0182  0.0249 -0.1071
12476W        W30680  13.230  16.427  15.824 -0.2849  0.1495 -0.0087
12477W        W30681   6.978  13.943  13.180  0.1849 -0.0640  0.0094
12478W        W30682  14.249  17.077  13.496 -0.0708 -0.0454 -0.1044
12479W        W30683   6.404  12.040  13.946 -0.0625 -0.1923  0.2892
12480W        W30684  14.045   5.270   2.099 -0.0656  0.1492 -0.0454
12481W        W30685  13.020   2.707   3.779  0.1768  0.1858 -0.1937
12482W        W30686   6.867   0.842  15.748  0.0382 -0.1390 -0.0025
12483W        W30687   4.523   5.433   4.905 -0.2446 -0.0858 -0.0650
12484W        W30688   6.883  15.616   2.309  0.2394  0.1159  0.1347
12485W        W30689   4.041  15.042   4.962  0.2311  0.0288  0.1326
12486W        W30690   2.820   1.484  13.255  0.0212 -0.1477  0.0631
12487W        W30691  13.180   7.343  12.233 -0.0273  0.5581 -0.2914
12488W        W30692  17.063  11.075  14.933  0.3099  0.3568 -0.1732
12489W        W30693  14.009   2.736  16.823  0.2806 -0.0966 -0.0294
12490W        W30694  11.995  12.535   5.429 -0.3560  0.1170  0.3008
12491W        W30695   4.335   2.975  14.678 -0.1071 -0.0020 -0.3269
12492W        W30696  12.122   3.935   1.773 -0.0122 -0.2799  0.1531
12493W        W30697   9.375  11.273   6.177 -0.1347 -0.0828  0.2408
12494W        W30698   8.418   7.589   0.340  0.0206 -0.0722  0.0728
12495W        W30699  12.425  13.617  15.089  0.0607 -0.0262 -0.0070
12496W        W30700  15.509  11.480  16.792  0.1445  0.1630 -0.2126
12497W        W30701   8.743   1.984  16.117 -0.0115 -0.0165 -0.0691
12498W        W30702   8.984   8.251   4.881  0.0557  0.0958 -0.2926
12499W        W30703   4.845   6.861  14.235  0.2927  0.0377  0.3139
12500W        W30704   3.938   0.130  16.902  0.0690  0.1048 -0.0865
12501W        W30705  10.236  12.653   1.891 -0.0977 -0.1696  0.1588
12502W        W30706  13.116  12.980   0.144 -0.4883 -0.2161  0.2129
12503W        W30707  14.807  16.215   3.092  0.3122 -0.1489 -0.0360
12504W        W30708  10.878  14.006   4.088 -0.0009  0.0432 -0.1279
12505W        W30709  11.524  17.484   1.719 -0.1585  0.2186 -0.1063
12506W        W30710   6.966  16.996  14.244 -0.1499 -0.1774  0.3707
12507W        W30711  15.087   8.536   1.439  0.0897 -0.0084 -0.2772
12508W        W30712  11.279   7.266   3.611 -0.1188 -0.1055  0.0134
12509W        W30713   2.073  14.661   3.230 -0.0940 -0.1034 -0.0380
12510W        W30714   5.511  10.221   1.896  0.2815 -0.0316  0.0711
12511W        W30715  12.625   8.404  12.701 -0.0145  0.1071 -0.0066
12512W        W30716   7.232   0.618   1.520 -0.1905 -0.1325  0.1448
12513W        W30717  16.236  16.893  15.636  0.2491  0.1329 -0.0501
12514W        W30718  17.497  16.991   5.204  0.1589  0.2293 -0.4201
12515W        W30719  11.076   8.972  16.343 -0.1959  0.1842  0.5688
12516W        W30720   7.309   9.229   1.865  0.0183 -0.0020 -0.2682
12517W        W30721  14.785   9.513   1.595 -0.0294  0.0615 -0.3235
12518W        W30722  16.931  11.760  11.726  0.1263  0.0203 -0.0709
12519W        W30723   9.117   8.165  11.840 -0.0578 -0.1195  0.0164
12520W        W30724  10.855   6.236   0.358  0.1141  0.1124  0.1141
12521W        W30725  13.522  14.123   0.844  0.0354 -0.3002  0.1920
12522W        W30726  17.049  16.583  12.572 -0.0734  0.2744 -0.0746
12523W        W30727   0.195   2.149   3.854 -0.0917 -0.1234  0.3141
12524W        W30728   3.799  14.645   4.652  0.0582 -0.0080  0.0682
12525W        W30729   5.745   2.220  14.384  0.3456 -0.0247 -0.2643
12526W        W30730  16.019   2.177   4.036 -0.2054 -0.1117 -0.1262
12527W        W30731  13.964  12.301  11.626 -0.0653  0.1610 -0.0177
12528W        W30732  11.472  15.371  15.462 -0.0225  0.0809  0.0437
12529W        W30733  16.925   0.558   2.528 -0.0859 -0.3042  0.0201
12530W        W30734  15.216   6.481   0.019 -0.1899  0.2277 -0.0195
12531W        W30735  12.416   9.887   2.575  0.2093  0.2160  0.0697
12532W        W30736   4.316   5.533  16.567  0.2771 -0.0277  0.0784
12533W        W30737   7.555   7.167  14.761 -0.2399  0.1624 -0.1972
12534W        W30738   7.312  14.202  13.575  0.0346 -0.1205 -0.1551
12535W        W30739  10.189   9.725   2.419 -0.3878 -0.3279 -0.2151
12536W        W30740   7.119   5.317   1.463  0.1285 -0.0124 -0.0325
12537W        W30741  17.259  10.663   3.890 -0.2355 -0.2958 -0.0125
12538W        W30742   6.230   1.061  11.622  0.0056  0.2432 -0.2522
12539W        W30743   0.542   1.689   0.619 -0.1968 -0.2887 -0.2132
12540W        W30744  15.575   7.166   1.835 -0.1207 -0.0327 -0.1530
12541W        W30745   6.228  13.134   4.706  0.1747  0.2548  0.0308
12542W        W30746   4.674   9.933   2.908 -0.0636  0.1543  0.1868
12543W        W30747  15.004  15.336   0.473  0.0656  0.0005  0.1614
12544W        W30748   4.890   2.752   3.710 -0.1644 -0.0846 -0.1499
12545W        W30749   9.341   1.950  12.650  0.3279  0.0576  0.0513
12546W        W30750   1.749  10.978   0.243  0.0239 -0.1212  0.1132
12547W        W30751   8.925  17.452   2.066 -0.0543 -0.0704  0.0986
12548W        W30752  10.196   9.322  15.498 -0.1576 -0.0163  0.0281
12549W        W30753  15.164  12.743  17.106 -0.0855 -0.1563 -0.0895
12550W        W30754   4.552  13.217  12.121 -0.2727 -0.1534 -0.3221
12551W        W30755  11.937   6.394  14.615 -0.1726 -0.1738 -0.1884
12552W        W30756   1.817  13.722   0.512 -0.0256  0.0541  0.2227
12553W        W30757   4.874  11.778   4.643  0.0965  0.2031  0.0720
12554W        W30758   8.886   2.342  16.410 -0.2578 -0.1768  0.2349
12555W        W30759   6.813  16.112  11.935 -0.1586  0.0257 -0.0544
12556W        W30760  11.929   1.746   2.445  0.0666 -0.4728 -0.1511
12557W        W30761   4.289  12.492  16.002 -0.1294 -0.1332 -0.2411
12558W        W30762  12.255   4.293  15.491 -0.0414 -0.0641 -0.1068
12559W        W30763  14.984   7.102   4.538  0.1927 -0.1079  0.0473
12560W        W30764   7.151  17.296   3.925  0.1088 -0.0719  0.0422
12561W        W30765   1.534   6.735   3.287  0.0582  0.0431  0.1451
12562W        W30766   9.281   0.631   3.246  0.0136 -0.0320  0.1140
12563W        W30767  16.580  14.109  13.813 -0.1266 -0.0964 -0.2915
12564W        W30768  13.397  15.475   2.519 -0.1868  0.0417  0.4975
12565W        W30769   0.062   0.339  12.339  0.0324 -0.2259  0.0001
12566W        W30770  10.898  13.795   1.319  0.1776  0.0053 -0.1627
12567W        W30771  13.650   6.964   1.554 -0.1311  0.2426  0.0453
12568W        W30772  13.443   1.744  13.569  0.0164  0.1447 -0.1492
12569W        W30773  16.194   2.195   5.211 -0.1280 -0.0157 -0.1817
12570W        W30774   9.550   8.004   3.998 -0.0687 -0.1599  0.3414
12571W        W30775   0.292  11.735  15.571  0.1447 -0.0070 -0.1884
12572W        W30776  11.822  10.040  13.621  0.0509  0.0983 -0.0559
12573W        W30777   3.141   7.177  13.372  0.3389 -0.1320 -0.3513
12574W        W30778   7.500  16.179  16.004  0.0276 -0.0369 -0.1352
12575W        W30779  11.712  11.732  11.764 -0.2016 -0.0065  0.2798
12576W        W30780   5.868   9.089  15.592  0.1134 -0.0694 -0.1929
12577W        W30781  13.850   1.236  13.823 -0.0652  0.2568  0.0201
12578W        W30782   4.105   5.720  15.547  0.1944  0.1518 -0.3519
12579W        W30783   6.030  17.322  12.401  0.0946  0.0900 -0.0770
12580W        W30784  15.807   4.642   5.198  0.0790  0.0353  0.3197
12581W        W30785   4.004  15.600  16.886 -0.0211  0.2226  0.0865
12582W        W30786   6.292   9.944  14.556 -0.1901  0.2413  0.0662
12583W        W30787   4.531   8.212  17.015  0.2337  0.3644 -0.1649
12584W        W30788  17.081  12.223   3.402 -0.2131 -0.0648 -0.1413
12585W        W30789   6.214   7.917   5.251 -0.0530  0.1277 -0.3401
12586W        W30790   2.628   3.984  14.712 -0.2940 -0.1807 -0.0357
12587W        W30791  12.125   7.304   5.274  0.1340  0.0252  0.0769
12588W        W30792  11.369   1.426   4.931 -0.1354 -0.0284 -0.2636
12589W        W30793   9.360  15.431   2.975  0.0292 -0.0347  0.1621
12590W        W30794   4.603   5.493   5.455 -0.0906  0.0316  0.2505
12591W        W30795   0.826   2.652  15.180  0.1287  0.0187  0.1236
12592W        W30796  11.319   4.165  13.144 -0.2067  0.0281  0.2626
12593W        W30797   4.301  11.308  13.878  0.0466 -0.0784  0.0372
12594W        W30798  13.366   8.459  14.639 -0.2156  0.1502 -0.2196
12595W        W30799  13.926   1.017   5.455  0.0611 -0.2557 -0.0464
12596W        W30800  12.076  13.781  12.695  0.1894  0.3933  0.1471
12597W        W30801  14.302   7.051  14.293  0.1065 -0.1788 -0.2411
12598W        W30802   5.582  16.422  15.709  0.1631 -0.0569  0.0854
12599W        W30803  12.728   6.806   3.260 -0.0895 -0.1300 -0.0705
12600W        W30804  12.385   6.400   3.457  0.1273  0.0629 -0.2453
12601W        W30805   9.408  17.324   3.723  0.0666  0.3262  0.0694
12602W        W30806   1.185  16.665  14.609  0.2403  0.2583 -0.1641
12603W        W30807   4.845   0.161  16.497  0.0700 -0.2194  0.1318
12604W        W30808   5.349  16.402  16.514 -0.0869 -0.2809  0.3529
12605W        W30809  10.510  10.333   4.986  0.0707 -0.0586 -0.0593
12606W        W30810  14.374  13.512  12.852  0.0795  0.1871  0.1476
12607W        W30811   7.882  15.197  12.748  0.2841 -0.1143  0.0229
12608W        W30812   5.919   0.830  12.199 -0.3026  0.0806 -0.0674
12609W        W30813   9.349   7.317  13.041 -0.2263 -0.2005 -0.0070
12610W        W30814   0.365   2.293  13.830 -0.0294 -0.1786  0.0505
12611W        W30815   5.815  17.438   4.746  0.1797 -0.1253 -0.0506
12612W        W30816   0.965   9.681  15.495 -0.0600 -0.2826 -0.0185
12613W        W30817   9.255   6.629   5.172 -0.2143  0.0552 -0.1232
12614W        W30818   3.084   2.532   4.797  0.1997  0.1818 -0.2238
12615W        W30819   8.008  10.651  14.139 -0.1208  0.0874  0.0312
12616W        W30820  10.244  15.413   2.200 -0.1078  0.3589 -0.1034
12617W        W30821  15.957   4.856   1.230  0.0331 -0.1759 -0.0560
12618W        W30822  14.311  12.716   1.057  0.2877  0.2842  0.0073
12619W        W30823   1.726   7.951   0.802 -0.0200  0.4595 -0.3394
12620W        W30824  16.510  16.365   2.797 -0.0405  0.3560  0.0547
12621W        W30825  16.219  12.715  12.907  0.1552 -0.0745 -0.0986
12622W        W30826  10.334   8.042  17.284 -0.1230 -0.1038  0.1232
12623W        W30827   7.544   3.419  15.959  0.3108  0.0008 -0.0101
12624W        W30828  13.442   0.898  16.741  0.0234  0.2216  0.0261
12625W        W30829   6.905   5.221  14.909 -0.1172 -0.0243  0.1157
12626W        W30830   1.159   8.641  11.636 -0.0085 -0.2362 -0.0286
12627W        W30831  10.600   0.246   0.158 -0.1387 -0.0580  0.0555
12628W        W30832   0.783   9.852  15.032  0.1630  0.0977  0.3152
12629W        W30833  13.076  13.726   2.514 -0.1028  0.0405  0.1034
12630W        W30834   9.129   4.694  15.671  0.2156  0.2730 -0.0031
12631W        W30835  15.030   8.660   5.393  0.0018  0.1408 -0.0641
12632W        W30836  15.241  11.901   4.906  0.0082 -0.0452 -0.0416
12633W        W30837   3.554   0.180  14.535  0.0701  0.0224  0.0367
12634W        W30838   2.206   4.433   2.908 -0.0307  0.1054 -0.1926
12635W        W30839   0.682   6.662  11.945  0.2762  0.1992  0.0520
12636W        W30840  11.725   0.774  16.081 -0.0908  0.3629  0.0665
12637W        W30841   5.362  13.317   2.998 -0.0965  0.1474  0.1650
12638W        W30842  11.094   2.519  12.691  0.0313 -0.1497  0.0788
12639W        W30843   5.865  16.036   2.118  0.0781  0.0126 -0.0324
12640W        W30844   0.103  10.875  15.657 -0.2400 -0.2186  0.3855
12641W        W30845  15.671  11.696   0.852  0.2618  0.0660 -0.1594
12642W        W30846   7.294   4.895   0.877 -0.0828 -0.0499 -0.0939
12643W        W30847   5.851  14.217   3.861 -0.0766  0.0936 -0.1996
12644W        W30848  14.809  15.070   2.882 -0.0384 -0.1237 -0.0141
12645W        W30849   8.149   2.633   1.411 -0.3791 -0.1519  0.1426
12646W        W30850   5.814  17.050   2.516  0.3864  0.1089  0.2177
12647W        W30851   6.503   4.444  15.534  0.0521 -0.2186  0.1734
12648W        W30852  14.954  17.031   2.196 -0.1093 -0.0362  0.0134
12649W        W30853  10.566  12.301  13.222  0.0356  0.3661 -0.0367
12650W        W30854  12.119   0.199   1.484 -0.1080  0.2700 -0.2213
12651W        W30855   2.582  15.650   2.162 -0.1744  0.3554  0.2183
12652W        W30856  10.156   6.838   2.152 -0.3641  0.1607  0.2327
12653W        W30857  16.868  16.846   1.935  0.0438 -0.0284  0.4928
12654W        W30858   2.524  16.015  12.710 -0.0582  0.1023 -0.0880
12655W        W30859   1.830  10.734  13.268  0.2814  0.1081 -0.0125
12656W        W30860   1.459  17.518   3.122 -0.1824  0.2157  0.1768
12657W        W30861   7.203  14.498  10.962  0.1170  0.0360 -0.4255
12658W        W30862   2.932  17.363  14.011  0.2928  0.0620 -0.0638
12659W        W30863  14.879  14.611   7.004 -0.2217  0.2951 -0.0157
12660W        W30864   5.640   6.720  16.763 -0.1758 -0.2827  0.5005
12661W        W30865  10.554   4.303  13.737 -0.1178 -0.1029  0.2065
12662W        W30866   3.334   8.314  13.209  0.0846  0.1393 -0.0680
12663W        W30867  11.258  15.385  13.445  0.3938 -0.0359  0.3099
12664W        W30868  15.538  11.994  15.633  0.2658 -0.0859 -0.1246
12665W        W30869  17.203   1.866  13.743 -0.1967  0.0151 -0.2126
12666W        W30870   9.024  14.898   0.507 -0.0147 -0.3635  0.2444
12667W        W30871   5.243  11.203  12.114  0.1024 -0.1140  0.4860
12668W        W30872   1.765  10.013  15.071  0.2674 -0.0688 -0.4905
12669W        W30873  13.224  11.484   1.730  0.3017  0.2159 -0.0475
12670W        W30874  16.364   7.088  14.722  0.1296 -0.2897  0.1473
12671W        W30875  11.323  14.234   4.054  0.1782 -0.2963 -0.1149
12672W        W30876  15.596   2.908   5.163  0.1765 -0.2451 -0.0801
12673W        W30877   1.008   5.226   1.919  0.0598 -0.0772  0.1206
12674W        W30878   4.054   7.574  17.149  0.0051 -0.1123 -0.1253
12675W        W30879  10.294   7.520   2.108  0.0552 -0.0297 -0.1467
12676W        W30880   4.376   5.399  14.348  0.0326 -0.2242  0.2421
12677W        W30881   3.097   8.074   3.049  0.4329  0.0611  0.0507
12678W        W30882   9.253   5.421  14.417  0.0770  0.1012 -0.0241
12679W        W30883   9.846   3.170  14.953 -0.1790  0.0920 -0.1511
12680W        W30884   1.008  12.852  16.773 -0.2326  0.0329 -0.3875
12681W        W30885   1.210  12.338   3.404 -0.0872  0.2618 -0.1522
12682W        W30886  13.304  13.280   2.347 -0.0867 -0.0470 -0.2835
12683W        W30887   6.100  12.648   2.679 -0.2291  0.2755 -0.3753
12684W        W30888   6.946   9.103   1.489  0.2578 -0.1277 -0.1331
12685W        W30889  17.331   5.173   2.658  0.0407 -0.3210  0.1444
12686W        W30890   2.792  15.174   1.490 -0.1178 -0.0463 -0.0428
12687W        W30891  13.675   6.270  11.777  0.2127  0.0193 -0.1302
12688W        W30892   3.690  17.164  16.948  0.1670  0.1397 -0.0163
12689W        W30893   4.302   7.492  12.446 -0.0723 -0.1216  0.5702
12690W        W30894   4.343   5.515  12.242 -0.1344  0.2123 -0.0897
12691W        W30895   6.185   6.255   0.784 -0.3178  0.0093  0.1248
12692W        W30896   0.490  13.706  12.918 -0.1243 -0.0415 -0.2823
12693W        W30897  11.920  14.840  16.077  0.1695  0.0224  0.2271
12694W        W30898   4.794   4.005  13.527 -0.2382  0.4119  0.0989
12695W        W30899   7.996   5.189   3.872 -0.1061  0.0156 -0.1131
12696W        W30900   1.592   5.177   5.751 -0.0839 -0.0244  0.0455
12697W        W30901   3.426  11.616  14.785  0.1592  0.0917 -0.1899
12698W        W30902   0.649   2.701  12.376 -0.0817 -0.1730  0.1761
12699W        W30903   2.145  10.589  16.812 -0.1370 -0.0671 -0.1991
12700W        W30904  11.217   0.725  15.885  0.0505  0.2400  0.1342
12701W        W30905   8.122  16.240  14.179  0.2740 -0.0538  0.2529
12702W        W30906   0.872  15.975  16.883 -0.2075 -0.1011  0.3436
12703W        W30907  16.469  15.839   0.430  0.0738  0.1381  0.1773
12704W        W30908  10.336  15.348   4.167  0.5612  0.3506  0.6022
12705W        W30909   4.437   5.574   1.177  0.2952 -0.0337  0.1309
12706W        W30910  16.569  12.414   3.623  0.0023 -0.0228  0.4078
12707W        W30911   4.601   6.902  13.184 -0.0865 -0.0485 -0.1272
12708W        W30912   4.803  11.958   2.731  0.0263 -0.0094  0.1614
12709W        W30913  17.419  11.258  15.282  0.0567 -0.1958  0.1686
12710W        W30914   7.408   9.954  16.387  0.2001 -0.1674 -0.1520
12711W        W30915   1.214   8.750   1.816 -0.0611 -0.0525 -0.1216
12712W        W30916   6.779  14.346   5.981 -0.1271  0.2201  0.0339
12713W        W30917  14.851  13.624  12.642  0.1514  0.1522 -0.0185
12714W        W30918   5.610   1.929   3.577  0.1747 -0.1910 -0.1558
12715W        W30919   4.331  17.178  16.930  0.0389 -0.1316 -0.1218
12716W        W30920  15.543  13.732   3.951  0.0109  0.0692 -0.2606
12717W        W30921   6.595   3.454  12.944 -0.0128  0.0603  0.1261
12718W        W30922  10.733   3.345  13.632  0.1226  0.2427  0.0969
12719W        W30923  11.532   6.287   2.455  0.3277 -0.1387 -0.1215
12720W        W30924  16.531  11.667   3.796 -0.0193 -0.3496  0.0571
12721W        W30925   4.876  16.381  16.797 -0.0135  0.2596 -0.0615
12722W        W30926  16.764  13.711   2.816  0.2374 -0.1040  0.1892
12723W        W30927   3.657   5.914  14.281  0.0887  0.1748  0.1876
12724W        W30928   4.866   2.249  16.568 -0.2697  0.2615 -0.1449
12725W        W30929  15.327   1.134  13.502 -0.1163  0.0740  0.0204
12726W        W30930   5.275   3.862   5.097 -0.2782  0.0568  0.1863
12727W        W30931   9.417   4.049  13.730 -0.0968 -0.1757 -0.1284
12728W        W30932   6.880  14.484  14.872  0.4129  0.0652 -0.1042
12729W        W30933   2.371   8.119  16.577  0.1387 -0.0261  0.0201
12730W        W30934  12.579   5.083  14.250 -0.2141 -0.1735 -0.0862
12731W        W30935   9.267  17.039   3.022 -0.1956 -0.1551 -0.1931
12732W        W30936   9.236   9.008  16.058  0.1618  0.0561 -0.2381
12733W        W30937  14.734  14.825   4.641  0.0846  0.2355 -0.2936
12734W        W30938  16.486   0.514  16.540 -0.1245  0.0534  0.0445
12735W        W30939   6.835  12.828   1.963 -0.0414  0.0229 -0.2367
12736W        W30940  12.920  12.664  16.598 -0.2135 -0.0186 -0.2244
12737W        W30941  17.228  12.223   1.713 -0.2337 -0.1971  0.1342
12738W        W30942  15.487   8.070  16.437  0.1278 -0.2524 -0.0252
12739W        W30943  17.296   3.824  16.709 -0.0733 -0.1173 -0.1358
12740W        W30944   2.790   3.857  13.804 -0.2365  0.0167  0.0010
12741W        W30945  10.196   4.423   0.377  0.3139  0.1268  0.2061
12742W        W30946   5.064   9.149  14.827 -0.1056  0.1280  0.2046
12743W        W30947   2.151  15.111  15.992  0.0554  0.2107  0.0632
12744W        W30948   9.109   6.538  15.671  0.0972  0.4301 -0.0062
12745W        W30949   6.769  10.714   3.394  0.3656 -0.3651 -0.2031
12746W        W30950  11.710   4.516   3.085 -0.2670  0.1110 -0.0847
12747W        W30951  17.222   4.672  13.866 -0.1231  0.1274  0.1349
12748W        W30952  12.022  16.309   0.580 -0.0107  0.4711  0.0619
12749W        W30953   6.109   8.947   1.780  0.0228  0.2257 -0.2710
12750W        W30954  12.093  17.188   5.299 -0.0240 -0.0198  0.0117
12751W        W30955   9.538   1.862  12.161 -0.0146 -0.1595  0.1351
12752W        W30956   6.258   7.921   2.683  0.0386 -0.1931 -0.2469
12753W        W30957  17.526   7.326   6.385  0.0071  0.0278  0.0758
12754W        W30958  15.398   9.350   4.904  0.0333  0.0789 -0.3492
12755W        W30959  13.914  12.015  17.157  0.2365 -0.1349  0.0526
12756W        W30960  10.578  17.333   5.211 -0.2322  0.0494 -0.0966
12757W        W30961  10.999   0.659   1.435  0.1352  0.2284  0.1743
12758W        W30962   4.415   2.899   2.851  0.3283  0.1419  0.0568
12759W        W30963   2.355   0.752   5.068 -0.1859  0.2597 -0.0034
12760W        W30964   1.542  12.164  16.844 -0.0724 -0.1467 -0.0398
12761W        W30965   4.170  10.896   4.943  0.2229 -0.3974 -0.1571
12762W        W30966  12.601  10.845  14.791 -0.1576  0.1750 -0.0036
12763W        W30967   1.490  12.836   1.560 -0.1858 -0.1677  0.1639
12764W        W30968  12.739   6.998  15.583  0.2269 -0.2894 -0.3300
12765W        W30969  12.658   8.287   0.144 -0.1661 -0.0441  0.3301
12766W        W30970   5.157   1.514  12.024  0.1992 -0.3237  0.0737
12767W        W30971  13.573  13.043   5.662 -0.1024  0.1058  0.4680
12768W        W30972   5.310   9.454  16.682 -0.2151  0.2092  0.0089
12769W        W30973   2.883  10.964  11.682 -0.3265 -0.3206  0.0595
12770W        W30974   4.612  11.125  14.320  0.3038 -0.3387 -0.3403
12771W        W30975   0.507  10.264  16.697 -0.1815  0.0672 -0.1669
12772W        W30976  16.771   1.956   0.912  0.0630  0.0591 -0.1266
12773W        W30977   9.904   7.673   3.093  0.0594  0.1870  0.1309
12774W        W30978   1.821  17.418  13.337  0.1460  0.0536  0.0246
12775W        W30979   6.014  10.264  12.059 -0.2521 -0.1098 -0.0229
12776W        W30980   3.391   3.763   3.810  0.0282 -0.0779 -0.0844
12777W        W30981  13.553  14.186  12.760  0.1774 -0.2638  0.1703
12778W        W30982  16.660  14.097  14.683  0.2107 -0.1134 -0.0230
12779W        W30983   4.208   6.269   1.187  0.2576 -0.1378 -0.1595
12780W        W30984   9.262  11.510   2.951 -0.2816  0.0611  0.2224
12781W        W30985   7.629   0.233   1.508  0.1356 -0.3687 -0.3236
12782W        W30986   0.487   4.979   5.168 -0.1249  0.1632 -0.2980
12783W        W30987   6.301   3.142  13.237 -0.2894 -0.0933  0.1441
12784W        W30988  10.514   8.875   4.700  0.2662 -0.1316 -0.1020
12785W        W30989   8.840  10.132  14.389  0.3050  0.1634 -0.2388
12786W        W30990   4.736   9.885   0.584  0.1027 -0.4183  0.0228
12787W        W30991   9.581   4.868   2.471  0.0060  0.1871 -0.2687
12788W        W30992   7.302  15.164  15.509 -0.0878 -0.0634  0.2389
12789W        W30993   0.358   0.148  16.560  0.0911 -0.3207 -0.1187
12790W        W30994  12.542  10.253  13.073 -0.0644 -0.5180  0.1026
12791W        W30995   8.149   5.619   4.140 -0.0446 -0.0868 -0.3392
12792W        W30996  10.117   3.057  15.370  0.0205  0.2095  0.0106
12793W        W30997   5.629   6.069  15.123 -0.2396  0.1966  0.2624
12794W        W30998   3.460   8.470   4.771  0.1171  0.2274  0.4443
12795W        W30999   9.080   2.100   4.698 -0.0387  0.0034  0.0802
12796W        W31000  16.641   4.255   0.666  0.3315 -0.3120  0.1221
12797W        W31001   3.043  17.175  15.873  0.0835 -0.2111 -0.2320
12798W        W31002   4.558   1.528   2.510 -0.1308 -0.0181 -0.2336
12799W        W31003  10.893   0.449  13.673 -0.1163 -0.1509  0.1121
12800W        W31004   7.035   0.095  13.594 -0.0274 -0.0521 -0.0446
12801W        W31005  12.732  13.201  15.262  0.2068  0.1559 -0.2013
12802W        W31006   1.695  12.624   3.886  0.1912  0.2162 -0.1452
12803W        W31007   7.864   4.959   3.072  0.1375  0.1759 -0.2739
12804W        W31008  14.657   1.876   3.059 -0.0286  0.0812 -0.3534
12805W        W31009  17.128   2.357  15.890 -0.3865 -0.2228  0.2035
12806W        W31010  10.818   9.698   3.275  0.1995  0.0987  0.4299
12807W        W31011  10.139  16.116   2.681 -0.2006 -0.1777 -0.3064
12808W        W31012   6.990  12.787  15.162 -0.2199 -0.1151 -0.2769
12809W        W31013   8.167   6.492  15.084 -0.2846  0.0788  0.6379
12810W        W31014   0.929   2.610  13.122  0.1299 -0.2674  0.1689
12811W        W31015   1.067  14.092  15.435 -0.0858 -0.0710  0.3494
12812W        W31016   3.018  10.651   0.795  0.0041  0.0608  0.0450
12813W        W31017   2.587  12.789  16.583  0.0912  0.2851  0.0818
12814W        W31018   1.383   2.636   0.245 -0.1432 -0.0989 -0.0868
12815W        W31019  15.180   8.849  15.738  0.0119 -0.1222 -0.2226
12816W        W31020  16.202   9.314   4.438 -0.1015 -0.1164  0.0718
12817W        W31021   4.560  12.105  13.556 -0.0318 -0.0263  0.0972
12818W        W31022  13.514   6.471   5.266  0.1002  0.0066 -0.2040
12819W        W31023   6.118   1.087  16.127  0.2468 -0.2961 -0.0226
12820W        W31024   1.884   5.610   2.435  0.2268  0.2595 -0.1524
12821W        W31025  14.749  12.521  16.951 -0.0545 -0.2154 -0.0979
12822W        W31026  13.820   5.847   3.886  0.0191 -0.3648 -0.1068
12823W        W31027   0.131   3.773  12.900  0.0748 -0.2694 -0.1274
12824W        W31028   8.040   4.732   4.713  0.1070  0.1192 -0.0417
12825W        W31029   7.488  14.470  16.174  0.3350 -0.1214  0.0150
12826W        W31030   9.282  12.475   3.946 -0.0117 -0.1044  0.1201
12827W        W31031  16.083   9.775  15.154  0.1489 -0.0515  0.0816
12828W        W31032  11.968   8.789  16.344 -0.2145  0.1935 -0.2057
12829W        W31033   4.135   7.971  11.593  0.0318 -0.0165 -0.0290
12830W        W31034  14.387   5.161  14.938  0.0241  0.2232 -0.3500
12831W        W31035   6.701   2.010  16.753  0.0719 -0.2073 -0.0801
12832W        W31036  10.494  11.211   1.977 -0.4965 -0.0115  0.0661
12833W        W31037  12.897   1.235   1.894  0.2846 -0.1128  0.0884
12834W        W31038   6.992   1.784  14.215 -0.0881 -0.3078 -0.2065
12835W        W31039   3.131   3.206   1.884  0.0758 -0.1227 -0.2141
12836W        W31040   3.384   0.327  13.274  0.0586 -0.0370 -0.2021
12837W        W31041   3.907   6.066   4.464  0.1628 -0.3447  0.1349
12838W        W31042  17.524   2.218  16.419 -0.2616  0.2603  0.1506
12839W        W31043   1.474   5.293   3.672  0.2761  0.0781 -0.0124
12840W        W31044  13.107   5.206   2.626  0.0189 -0.3496  0.0391
12841W        W31045   6.575   9.569   2.213 -0.2925 -0.0880  0.0046
12842W        W31046   4.105  12.818   2.106 -0.2549  0.0645  0.1978
12843W        W31047   9.601   6.838   5.539 -0.1262 -0.1146 -0.1970
12844W        W31048   6.839   5.642  13.965  0.1435 -0.2230  0.0888
12845W        W31049   1.874   4.039  14.409  0.3900  0.1141 -0.0502
12846W        W31050  10.939  13.141   0.294 -0.0047 -0.0389  0.2578
12847W        W31051   4.085   4.155   2.888 -0.0440 -0.1083  0.0682
12848W        W31052   6.956   7.800  12.473 -0.0745  0.0131 -0.2417
12849W        W31053   1.718  11.341   1.939  0.2027 -0.1123 -0.5187
12850W        W31054  12.568   7.644  16.349  0.1383 -0.1849  0.0742
12851W        W31055   5.265   3.175  13.103  0.0523 -0.0637 -0.2324
12852W        W31056   5.639  13.138  15.844 -0.0967 -0.1475  0.1796
12853W        W31057  14.111  13.253  12.394  0.3124  0.0194  0.0159
12854W        W31058   7.866  15.430  16.461 -0.0743  0.0070  0.1066
12855W        W31059   6.433  12.717  15.534 -0.1503 -0.1830 -0.2397
12856W        W31060  16.092  11.571  16.960 -0.4210 -0.3492 -0.0753
12857W        W31061   8.291  13.026   2.933  0.2245 -0.0242 -0.0367
12858W        W31062   3.718   3.568   0.031  0.0127  0.1377  0.3166
12859W        W31063   9.123   2.042   3.784  0.1629  0.1525 -0.2132
12860W        W31064  16.758  15.895   2.588  0.1260 -0.0849  0.0029
12861W        W31065   1.739  11.726  16.444  0.0769  0.2525  0.1797
12862W        W31066   8.079   9.281   2.838 -0.4331 -0.1722  0.0862
12863W        W31067  11.371   8.001   2.036 -0.0829 -0.3202  0.1834
12864W        W31068   9.884   5.646   2.298 -0.2316  0.1838  0.0571
12865W        W31069  11.077  16.577   5.414  0.1053  0.0705  0.2099
12866W        W31070   8.051  11.659   1.039 -0.0744 -0.1843  0.0112
12867W        W31071   7.166   2.917  12.810  0.0012 -0.0878 -0.0139
12868W        W31072  11.678  15.012   4.377 -0.0434  0.0895  0.3052
12869W        W31073  16.330  11.994   4.641  0.0135 -0.1418  0.2561
12870W        W31074  10.256  10.402   5.821  0.0836  0.3552  0.0191
12871W        W31075  11.964   0.217   4.122  0.2480 -0.0617 -0.0328
12872W        W31076   5.008   8.635  14.392  0.1247 -0.1266 -0.0962
12873W        W31077   3.444  15.782   1.590  0.1787  0.0336 -0.0310
12874W        W31078   9.976  13.849   3.347  0.1893  0.2164 -0.1395
12875W        W31079   0.756  15.079  17.101  0.0292  0.2861  0.2780
12876W        W31080   0.298   9.115  12.461 -0.1071  0.1384 -0.0328
12877W        W31081   7.647  15.993   3.238  0.1996  0.1036 -0.1361
12878W        W31082   4.524   9.125  15.230 -0.0064  0.0639 -0.0214
12879W        W31083  10.362   0.402  16.342  0.4014  0.0391  0.4622
12880W        W31084  11.712  10.018   0.560 -0.3080 -0.1622 -0.2064
12881W        W31085   2.955  17.385  15.339 -0.1866 -0.1984  0.1243
12882W        W31086   9.064   3.500  15.325  0.2342  0.0288  0.0426
12883W        W31087   5.005   2.695   4.746  0.0618 -0.1901  0.2420
12884W        W31088  12.089   6.562  15.686  0.4663  0.0001 -0.0707
12885W        W31089   5.563  10.962  14.994 -0.0698  0.0536 -0.0707
12886W        W31090  14.131  13.166  14.671 -0.5471 -0.1744  0.0340
12887W        W31091   9.696   2.147  13.431  0.1829 -0.2627 -0.1660
12888W        W31092   4.330  11.485   3.177  0.1788 -0.1175  0.3395
12889W        W31093   0.855   1.644  13.882 -0.0985 -0.1546  0.0532
12890W        W31094   4.794   4.871   2.743  0.1630  0.2623 -0.1645
12891W        W31095   0.634  16.769  12.787 -0.0321  0.0618 -0.3589
12892W        W31096  13.536   1.118   3.558 -0.3762 -0.1127 -0.0729
12893W        W31097  14.457   2.391  15.907  0.1195  0.0616  0.0962
12894W        W31098   0.910   1.016   2.109 -0.3463 -0.1928  0.0907
12895W        W31099  11.605   0.480   3.187 -0.1063 -0.2935 -0.0716
12896W        W31100  15.118  11.055  15.218  0.0534 -0.1883  0.1616
12897W        W31101   4.801   3.125  14.778  0.2569 -0.1187 -0.4578
12898W        W31102  12.711   8.047  12.155  0.0103 -0.1933 -0.2514
12899W        W31103   2.382   4.580   5.856  0.0059 -0.1290 -0.0060
12900W        W31104  12.179  11.754  16.580  0.0462  0.1197  0.0814
12901W        W31105  15.168  15.193   1.911  0.0892  0.0306 -0.0649
12902W        W31106   9.777   9.833   3.163  0.1341  0.0374 -0.0489
12903W        W31107   1.815   5.962  15.729 -0.1415  0.1417  0.0387
12904W        W31108   0.302   9.445   3.997 -0.2073 -0.2048 -0.0364
12905W        W31109   7.048  14.318   3.137 -0.2291 -0.1994 -0.1746
12906W        W31110  11.065  10.912  16.667  0.0851  0.1459 -0.3858
12907W        W31111  13.744   1.577   3.361 -0.1698 -0.1921 -0.2026
12908W        W31112  13.273   3.320   0.835  0.1123  0.0040 -0.3566
12909W        W31113  15.268   7.254  13.368  0.0321 -0.0160 -0.0081
12910W        W31114   6.328  15.644   3.591  0.0042 -0.2744 -0.1697
12911W        W31115  12.300  12.016   3.733  0.0420 -0.2047  0.0689
12912W        W31116   4.135   5.582  16.119  0.0259  0.1236 -0.2097
12913W        W31117  16.211  13.286   3.710  0.0438 -0.0589  0.1253
12914W        W31118  15.150   2.245   2.347  0.1418 -0.0935 -0.0225
12915W        W31119   7.305   9.301   4.067  0.0932  0.1703  0.1019
12916W        W31120  11.105   8.360  13.040 -0.0704  0.2692 -0.1841
12917W        W31121  10.995  10.526   3.048 -0.0353 -0.0039 -0.0593
12918W        W31122  13.353   4.119   2.205 -0.0508 -0.1942  0.0079
12919W        W31123  11.590  15.416   2.492 -0.1032  0.1777 -0.0458
12920W        W31124   9.672   4.347   5.023 -0.0288  0.0547 -0.1429
12921W        W31125   9.233  16.480  12.509 -0.2059 -0.0306  0.2848
12922W        W31126   7.226   9.135  17.112  0.3344 -0.1840 -0.2633
12923W        W31127   4.327   8.560   5.619  0.0939  0.0514 -0.0258
12924W        W31128  16.854  11.636   0.343 -0.3696  0.3317 -0.1440
12925W        W31129   8.445   5.178   4.176  0.0481 -0.1016  0.1614
12926W        W31130  12.964  11.952  14.935 -0.2840  0.0954 -0.0424
12927W        W31131  15.839  15.753  12.731  0.0445 -0.2577  0.0798
12928W        W31132  12.533  13.829  14.536 -0.1436  0.1970  0.2467
12929W        W31133  17.315   8.250   5.326  0.3429  0.0487 -0.0244
12930W        W31134   9.629  13.614  15.982 -0.2078 -0.2412  0.1154
12931W        W31135   1.099   0.841  14.500 -0.1222 -0.3112 -0.0336
12932W        W31136   2.858  15.215   3.009  0.1091 -0.1224 -0.0989
12933W        W31137  11.231   2.363  13.474  0.0768  0.1155  0.0711
12934W        W31138   0.385   9.116   0.904  0.0497  0.0581  0.0286
12935W        W31139  16.986   1.590   5.350  0.1079  0.2961  0.2853
12936W        W31140   5.842   1.163   3.552  0.3194 -0.0013  0.2814
12937W        W31141   0.023  14.803  16.296 -0.2716 -0.3184  0.0114
12938W        W31142  16.116  10.546  17.177  0.0388 -0.2453  0.2754
12939W        W31143   8.430  10.574  16.098 -0.2239  0.2934  0.0860
12940W        W31144   7.396  11.393  16.950 -0.1452  0.2958 -0.0308
12941W        W31145   9.917  10.993   0.370 -0.1746 -0.1537 -0.0228
12942W        W31146  16.590   4.925  16.277  0.0482  0.0056  0.0371
12943W        W31147   3.362  17.131  12.468 -0.0636 -0.2273  0.0685
12944W        W31148  13.471   6.646   1.224 -0.2785 -0.0834  0.0419
12945W        W31149   8.856   9.398  17.243 -0.1255 -0.0033  0.3103
12946W        W31150  14.274   6.846   0.621  0.0089 -0.2920 -0.3943
12947W        W31151   9.589  11.593   3.857  0.1273  0.0336  0.0009
12948W        W31152  11.792   5.484   5.390  0.1063  0.0395  0.0143
12949W        W31153   3.654  13.795  13.618 -0.0428 -0.1592  0.3629
12950W        W31154   5.964   2.020  13.981 -0.1946 -0.1882 -0.1300
12951W        W31155   9.670   9.152   2.590  0.4845 -0.1795 -0.0398
12952W        W31156  14.187  10.930  15.616 -0.0832 -0.3653  0.2290
12953W        W31157  13.581   6.979   5.180  0.0370  0.4233  0.1978
12954W        W31158   3.425   5.358  16.568  0.1920  0.3031  0.2632
12955W        W31159  12.256  16.927   2.031  0.0364 -0.1409  0.0465
12956W        W31160   1.122   5.582  14.091  0.1401  0.2700 -0.0838
12957W        W31161   7.989  12.515  15.920 -0.0122  0.2781 -0.1696
12958W        W31162  12.819  13.737  11.759 -0.1191 -0.0875  0.0193
12959W        W31163   6.015   5.407   3.592 -0.2248  0.2602  0.2863
12960W        W31164   2.946   1.080   3.795 -0.2684 -0.0972  0.0518
12961W        W31165   4.874  13.214   0.688 -0.1012 -0.3107 -0.1614
12962W        W31166  12.252  10.344   1.824  0.2164  0.3312 -0.1270
12963W        W31167  15.371  13.323  11.949 -0.1258 -0.1373 -0.0693
12964W        W31168  11.170   4.247   0.972  0.2268  0.1421 -0.2817
12965W        W31169   5.624   6.808   4.413 -0.2412 -0.2250 -0.0611
12966W        W31170  13.450  11.810  16.850  0.0907 -0.1394 -0.1123
12967W        W31171   2.490   7.212  12.694  0.1116  0.0364  0.1749
12968W        W31172   1.924   6.518  14.597 -0.0523  0.2230  0.0191
12969W        W31173  14.322  15.575   4.364  0.1698  0.1691  0.0072
12970W        W31174  17.321   8.144  15.745  0.2880 -0.1151  0.0214
12971W        W31175   3.774   8.410  12.402  0.3801  0.0801  0.1433
12972W        W31176  12.431  13.086  14.474 -0.0138 -0.1332 -0.0580
12973W        W31177  11.634  14.827   0.222 -0.1322 -0.1048  0.0648
12974W        W31178   2.080   6.222   1.907 -0.0457 -0.0219  0.1304
12975W        W31179  14.477  13.231  12.003 -0.0118  0.0302 -0.1313
12976W        W31180   2.945   4.990  11.611 -0.3055 -0.3413  0.3271
12977W        W31181  10.794   8.314   2.983  0.0469  0.0584  0.1292
12978W        W31182  16.153  13.690  13.445  0.0955 -0.2027 -0.0335
12979W        W31183   7.865   2.860  12.074 -0.1059  0.0228  0.0643
12980W        W31184  17.260   3.458   2.116 -0.0093 -0.0531 -0.0560
12981W        W31185   3.275  12.883   1.569 -0.0994  0.1543 -0.1704
12982W        W31186   9.452  12.237   4.884 -0.1993  0.3252 -0.1056
12983W        W31187   4.193   3.771  15.596 -0.1017  0.0665  0.0414
12984W        W31188  14.393   3.265  16.158  0.0657  0.2337 -0.0372
12985W        W31189  13.152   3.457  13.814 -0.0758 -0.1147 -0.0617
12986W        W31190   2.062  14.789   0.745 -0.2227  0.2890 -0.1665
12987W        W31191   6.000  10.511   3.995  0.0748  0.0874  0.1055
12988W        W31192   1.813   7.983  14.187 -0.1425 -0.0054 -0.4188
12989W        W31193  15.821  10.808   0.197 -0.2332  0.1234 -0.1442
12990W        W31194  14.317  14.146  14.218 -0.0090 -0.1052  0.2418
12991W        W31195  13.716  14.814   5.517 -0.0316  0.1228 -0.0174
12992W        W31196   1.443  14.816  12.204  0.3930  0.1680  0.1428
12993W        W31197   3.344   4.672   4.551  0.0709 -0.1188  0.0815
12994W        W31198   6.206   2.146  14.497  0.0841 -0.1479 -0.2506
12995W        W31199  16.053   3.702   0.253 -0.2910 -0.0385 -0.0429
12996W        W31200   5.964   0.769   3.917  0.0422 -0.1164  0.0570
12997W        W31201  10.301   7.134   0.250  0.2798  0.0781 -0.0091
12998W        W31202   6.614  12.906   0.994  0.1566 -0.2687 -0.0603
12999W        W31203   5.043  12.802   2.265  0.2575  0.1655 -0.0192
13000W        W31204  12.865   2.205   1.727  0.0680  0.1557 -0.1651
13001W        W31205   8.689   0.587  16.192 -0.2479  0.0769 -0.1993
13002W        W31206  10.098  13.452   5.051  0.2479  0.1548 -0.1990
13003W        W31207  13.305   6.108  15.943  0.0185 -0.0961 -0.4712
13004W        W31208   0.336   3.405  14.686 -0.0982  0.0429  0.5860
13005W        W31209   1.649   3.853  15.232  0.1043 -0.1049 -0.1282
13006W        W31210  13.455  10.751   5.087 -0.1583 -0.1853 -0.3364
13007W        W31211   0.865   4.126   4.873  0.3586  0.1939  0.1356
13008W        W31212   4.464   6.893   5.084  0.0525 -0.4028  0.2066
13009W        W31213   7.619   7.097   0.145 -0.0040  0.2316  0.0442
13010W        W31214   9.735   2.832   2.775 -0.1126 -0.0732 -0.1757
13011W        W31215  14.325   6.899  17.168  0.1556 -0.2904 -0.0401
13012W        W31216   5.831   2.802   2.862 -0.0510 -0.1869  0.0374
13013W        W31217   0.231   7.316  13.361 -0.2239  0.3236 -0.1046
13014W        W31218  11.904  14.434  16.497  0.1975  0.1998 -0.1922
13015W        W31219  16.727   1.309   2.088  0.2948 -0.4161  0.1569
13016W        W31220  11.084  17.243   0.592  0.0269  0.2878 -0.2156
13017W        W31221   9.038  15.023   1.383 -0.0117  0.0051 -0.1431
13018W        W31222   0.318  12.507   3.868 -0.1666  0.2601  0.1013
13019W        W31223   2.120   7.934   4.212  0.1224  0.0761 -0.0228
13020W        W31224  11.074  17.166   2.619  0.1952 -0.0120  0.2054
13021W        W31225  15.428   0.755  17.104 -0.0468  0.0581 -0.4381
13022W        W31226  11.354  11.540  13.185 -0.1867 -0.5046 -0.1806
13023W        W31227  14.765  12.553   4.627 -0.1419  0.0856  0.0599
13024W        W31228   9.817   8.890   3.368 -0.1916 -0.2800  0.0387
13025W        W31229   1.795   9.908  13.214 -0.0481 -0.2611  0.3325
13026W        W31230  13.894  15.827   4.212 -0.2468 -0.3197 -0.2175
13027W        W31231   7.284  10.180   4.921  0.1499  0.2289 -0.1183
13028W        W31232   5.992  13.070   5.226 -0.1769  0.0602  0.2155
13029W        W31233   8.808   6.193   1.992 -0.0892  0.1352  0.0833
13030W        W31234   9.250   6.051  15.866 -0.1649  0.0559 -0.0104
13031W        W31235  14.097  11.964   2.136  0.0063  0.0219 -0.2076
13032W        W31236   7.579  11.921   1.144 -0.0246  0.3000 -0.3176
13033W        W31237   2.370   9.509   2.938  0.0057 -0.1556 -0.1365
13034W        W31238   8.026   9.783  17.069 -0.1608 -0.3032 -0.0355
13035W        W31239  16.562   3.417  13.590 -0.1792 -0.0968 -0.1115
13036W        W31240  14.743   3.474  11.494  0.2774 -0.0383  0.2697
13037W        W31241   1.785  10.122   2.295  0.0287  0.2343 -0.0445
13038W        W31242   9.427  12.649   3.541 -0.0293 -0.1197  0.1343
13039W        W31243  16.401   8.017   5.352  0.0306  0.2415  0.0256
13040W        W31244   7.142   2.695  15.765  0.0160  0.0444 -0.0127
13041W        W31245   7.040   6.142   1.068 -0.1277 -0.0691 -0.0900
13042W        W31246   9.327   0.017  17.160 -0.1771  0.0589 -0.2471
13043W        W31247  17.045   4.358  16.689  0.0192  0.3121  0.2545
13044W        W31248   8.688   5.607   4.205  0.0528  0.1858 -0.0125
13045W        W31249   9.505  12.740   1.021  0.1599 -0.1056 -0.1172
13046W        W31250  10.708  12.760   1.686 -0.2347 -0.0419  0.0585
13047W        W31251   4.972   8.218   4.806 -0.2863 -0.1336  0.2601
13048W        W31252   2.832   9.740  14.113 -0.0271 -0.1740  0.0668
13049W        W31253   3.179  10.241   1.119  0.1967 -0.1991  0.1874
13050W        W31254  15.426   2.055  16.812  0.2739  0.0301  0.2516
13051W        W31255  16.166  14.471   5.650 -0.2103 -0.3651 -0.1636
13052W        W31256  15.461  15.609   1.793  0.3425 -0.0061  0.1110
13053W        W31257  12.142   2.957   3.821 -0.2365 -0.1132  0.1054
13054W        W31258  16.788   3.979  15.348  0.0449 -0.0796 -0.0099
13055W        W31259  17.228   2.382   2.684 -0.0469  0.0394 -0.1914
13056W        W31260   8.571   0.140   5.061  0.2876  0.1618 -0.0441
13057W        W31261  13.821  12.683   1.650  0.0234 -0.2103  0.1387
13058W        W31262   7.455  12.054  14.702  0.0832  0.0099 -0.0920
13059W        W31263  15.095  12.742  13.014 -0.0054 -0.1135  0.0612
13060W        W31264   1.678  17.145  12.917 -0.0812 -0.0715  0.2808
13061W        W31265  17.345  16.518  16.322 -0.3083 -0.0623  0.3797
13062W        W31266  14.082  15.915   2.149 -0.0835 -0.0192  0.0694
13063W        W31267   9.643  16.506   5.272  0.0853  0.0877 -0.2456
13064W        W31268   8.892  12.108   0.251 -0.0197  0.3135 -0.2225
13065W        W31269  16.321  16.467   1.430 -0.1232  0.1017 -0.3298
13066W        W31270  15.833  12.734   1.072 -0.0522  0.1681  0.0946
13067W        W31271   5.099   1.894   1.921 -0.3627 -0.1256  0.0071
13068W        W31272   5.206   3.175   4.520  0.1367  0.0525 -0.0170
13069W        W31273  14.065  11.118  16.339 -0.1113 -0.1443  0.1824
13070W        W31274   2.575  12.362   0.271 -0.1087 -0.0676  0.1161
13071W        W31275   7.719  13.693   4.630  0.2886  0.2791  0.3449
13072W        W31276   0.802  15.191   0.840  0.1125 -0.0327  0.1526
13073W        W31277  17.331   9.702   5.080 -0.0747  0.3920 -0.2270
13074W        W31278   4.102   7.292   3.924 -0.1401  0.1822  0.1883
13075W        W31279   9.985  16.048  17.161 -0.1522  0.0637  0.0883
13076W        W31280   7.985  17.223   2.809  0.0064  0.2091 -0.0343
13077W        W31281   9.307   9.064   0.839  0.4500  0.3874  0.1965
13078W        W31282  16.934  16.069  14.705  0.0189  0.1552 -0.1507
13079W        W31283  14.236   6.087  15.899 -0.0793  0.3431  0.0956
13080W        W31284  16.973  16.298  16.732  0.1278  0.2525  0.0706
13081W        W31285  14.896  17.044   5.054  0.1278 -0.0138 -0.1101
13082W        W31286  12.424   3.161  12.534 -0.1222 -0.0819  0.0606
13083W        W31287  10.893   0.841   4.120  0.2497  0.0642  0.1102
13084W        W31288   4.460   8.005   2.811 -0.4608  0.0989 -0.0974
13085W        W31289   8.787   3.687   0.780 -0.1197  0.2419  0.1988
13086W        W31290   1.790   1.017   3.401 -0.0595  0.2530  0.1943
13087W        W31291   4.915   6.099   0.671 -0.0238  0.1023  0.1439
13088W        W31292  16.200   5.302   5.096 -0.2937  0.0859 -0.3483
13089W        W31293   4.839  10.347   3.571 -0.0296  0.0154  0.0742
13090W        W31294  13.349  12.402  13.676  0.1177 -0.0206  0.2439
13091W        W31295  10.928  13.467   2.728 -0.4037  0.2164  0.3605
13092W        W31296  16.419  16.589  12.353 -0.1629  0.0472  0.1194
13093W        W31297   3.323   1.402  16.634 -0.0082 -0.1020  0.1834
13094W        W31298  12.007   3.339  15.101  0.0116 -0.2861  0.1402
13095W        W31299   3.244   6.509  16.543 -0.0654  0.0770 -0.0704
13096W        W31300   9.600  15.374   2.507  0.1304  0.0248  0.1637
13097W        W31301  15.758  14.108  16.908 -0.0570 -0.1063 -0.1817
13098W        W31302   2.439  14.788   1.720  0.0750 -0.0845  0.1836
13099W        W31303  14.380   1.301   2.353  0.0659  0.0164  0.0481
13100W        W31304  14.802   1.848  11.378  0.3195  0.1364 -0.0123
13101W        W31305  14.197  11.403  13.202  0.0417  0.2468  0.0166
13102W        W31306   6.021   2.263   1.257  0.0724 -0.0785 -0.2986
13103W        W31307   8.940  11.602   4.910  0.0734 -0.0691  0.0458
13104W        W31308   9.116  16.677   2.670  0.0598 -0.0729 -0.0690
13105W        W31309   6.286   6.945  15.400  0.0719 -0.1771  0.0372
13106W        W31310  11.703   8.440  16.589 -0.2007  0.0924  0.1216
13107W        W31311  12.215   6.274  13.734  0.1333  0.0443  0.0524
13108W        W31312  14.507  12.075  13.634  0.0072 -0.1358 -0.0466
13109W        W31313  15.537  11.376   1.291  0.0331  0.1777 -0.0741
13110W        W31314  15.313  17.016   4.763  0.0701  0.1742 -0.0005
13111W        W31315  11.528   3.488   4.028 -0.0505  0.0567 -0.1780
13112W        W31316  16.266   4.988   0.197  0.0318  0.1536 -0.2817
13113W        W31317   9.556  10.104  13.982 -0.2014  0.4262  0.0162
13114W        W31318  10.462  16.295  12.630 -0.2316 -0.3464 -0.0552
13115W        W31319  11.550   9.620   2.095 -0.6138  0.0802 -0.2719
13116W        W31320   5.946   9.505   0.576  0.1376  0.0358  0.2804
13117W        W31321   7.295   8.112  12.274 -0.3336 -0.1607 -0.1700
13118W        W31322   4.793   5.392  13.491  0.1843 -0.0042 -0.3529
13119W        W31323   9.262  10.981   3.231  0.2725 -0.0335  0.0288
13120W        W31324  12.852   4.180  17.126  0.1444  0.1315  0.2057
13121W        W31325  14.658   6.022   4.524  0.5011 -0.0107  0.3068
13122W        W31326   5.567   0.939  16.500 -0.3004  0.0630 -0.0641
13123W        W31327  15.147  10.355  13.512  0.1912 -0.0873  0.2119
13124W        W31328   3.062   2.261   5.234 -0.2740  0.1097  0.0505
13125W        W31329  10.981   0.775  14.711  0.1600  0.1135 -0.1476
13126W        W31330  10.743   7.028  15.326 -0.1841  0.1123  0.0844
13127W        W31331   3.320  17.455   1.466  0.2323 -0.2898 -0.1465
13128W        W31332  12.035  17.302   2.942  0.0722 -0.0014 -0.0274
13129W        W31333   6.597  10.797   4.755 -0.0854 -0.4933 -0.0696
13130W        W31334  16.403   9.776   3.213 -0.0412  0.1687  0.0167
13131W        W31335  11.470  10.973   1.912  0.0700 -0.2786 -0.1179
13132W        W31336  11.729  10.281   6.099  0.0181 -0.2114 -0.0808
13133W        W31337   6.915  15.289  12.445 -0.0952  0.1952  0.0534
13134W        W31338   0.121  15.803   4.836 -0.0920 -0.2660  0.0468
13135W        W31339  15.055   2.248  14.310 -0.0632 -0.2514 -0.1361
13136W        W31340   0.439  16.508  11.604 -0.2688 -0.0273 -0.0020
13137W        W31341  16.691   5.945  12.345  0.4302 -0.0391 -0.0646
13138W        W31342   6.107   8.858   5.019  0.2476  0.0324 -0.1205
13139W        W31343   0.232   3.178  14.170  0.0029  0.0264 -0.1816
13140W        W31344  10.424   5.062   1.808  0.0536 -0.0487 -0.1175
13141W        W31345  14.713   3.249   3.130  0.1306 -0.0906 -0.0766
13142W        W31346   9.146   9.605   4.608 -0.0894 -0.2605  0.2640
13143W        W31347  16.327  12.044  12.207  0.1786 -0.2294 -0.1885
13144W        W31348   2.455   8.994   2.073  0.0238 -0.1292  0.0066
13145W        W31349   8.912   9.651   0.427  0.1675 -0.1788 -0.0167
13146W        W31350  13.258   9.316  15.818  0.1893  0.0508 -0.1329
13147W        W31351   7.271   2.565  12.375 -0.1607  0.3220  0.2994
13148W        W31352  11.339   4.325   3.453 -0.0852  0.2010 -0.3415
13149W        W31353   0.754   5.400   5.186  0.1465  0.0328 -0.0366
13150W        W31354  12.288   9.163   0.592  0.0827  0.0442 -0.2307
13151W        W31355   8.421   2.916  13.938 -0.1416 -0.5140 -0.0556
13152W        W31356   9.765   7.225  12.276 -0.0917  0.2140  0.1201
13153W        W31357   4.923   4.219  14.763 -0.0472  0.1664  0.0095
13154W        W31358  14.960   3.602   3.935  0.2320 -0.3713  0.0678
13155W        W31359  17.095  15.161   0.033 -0.0206 -0.2047  0.1950
13156W        W31360  11.514   2.317   0.283  0.0029 -0.1877  0.1901
13157W        W31361  15.455  17.497   3.413  0.2069  0.0485  0.1908
13158W        W31362  16.174  13.744   2.795 -0.1742 -0.2089  0.0397
13159W        W31363  12.591   4.696   4.709  0.0987  0.0216  0.1609
13160W        W31364  10.476  17.190  12.997  0.1785  0.0875 -0.1339
13161W        W31365   0.600  17.413   4.105  0.0486 -0.4637  0.0030
13162W        W31366  10.661   4.031   2.682  0.2094 -0.0039  0.1430
13163W        W31367   7.171   4.473  14.626  0.1038  0.3460  0.2416
13164W        W31368   3.063   4.743   5.330  0.1177  0.2103  0.2586
13165W        W31369   4.285  13.692   0.277 -0.1377 -0.1314 -0.2222
13166W        W31370  14.921  10.964   2.272 -0.0579 -0.0566 -0.1591
13167W        W31371   4.290  14.713  16.464  0.1768  0.2201  0.0718
13168W        W31372   7.867   3.174  14.755  0.0077  0.0026  0.3275
13169W        W31373  15.215   2.306   2.820 -0.1073 -0.1339 -0.0536
13170W        W31374  12.092   7.948   4.658  0.0156 -0.1330 -0.0648
13171W        W31375  15.749   2.825  12.161 -0.0650  0.0104 -0.0300
13172W        W31376   9.420   5.275  11.910 -0.0684  0.1272 -0.0066
13173W        W31377   3.378   0.050  16.997  0.2214 -0.0476  0.3581
13174W        W31378  11.362  17.238   0.217 -0.0676 -0.3221  0.0493
13175W        W31379  13.566  10.643  12.244  0.0688 -0.2175  0.2087
13176W        W31380  10.967  10.097   5.021  0.1557 -0.0049 -0.0286
13177W        W31381   3.354  14.823  14.058 -0.0322 -0.0918 -0.1887
13178W        W31382  16.104  14.232   1.248  0.0342  0.0999  0.0184
13179W        W31383   7.558   8.818   1.952  0.1917 -0.0122 -0.1199
13180W        W31384   3.246  14.033   2.629 -0.0999 -0.0851 -0.4668
13181W        W31385   9.081  13.550   1.795  0.1319  0.1469  0.0106
13182W        W31386  17.366   3.974  14.366 -0.3852  0.0185  0.1478
13183W        W31387  13.590  14.215   4.113 -0.1043 -0.1327  0.0312
13184W        W31388  15.819   1.707  14.667 -0.2847 -0.0936  0.1197
13185W        W31389   1.694   5.649   0.526 -0.1202  0.2457  0.1335
13186W        W31390  13.777  16.405   5.285 -0.1590 -0.0718 -0.0773
13187W        W31391  16.642  11.781  14.356  0.2774  0.2081  0.1824
13188W        W31392   0.644   4.119  17.216  0.0786 -0.0870 -0.0460
13189W        W31393  11.395  16.606   1.360 -0.0668  0.0496  0.2350
13190W        W31394  14.392  17.138  16.035 -0.0381 -0.3357 -0.2241
13191W        W31395   8.888   6.201   2.479  0.0705  0.0067 -0.3030
13192W        W31396   2.037   2.746   1.066  0.2243 -0.3020  0.0383
13193W        W31397   1.968   8.319   4.585 -0.1587  0.1274  0.2277
13194W        W31398   7.764  14.547   0.480  0.1680 -0.2462  0.1833
13195W        W31399  15.838  15.145  13.205 -0.0084  0.0399  0.1746
13196W        W31400   2.871   8.161  16.000 -0.0145 -0.0612  0.0573
13197W        W31401   6.675  17.137   2.577  0.0248 -0.3570 -0.0885
13198W        W31402   9.573   4.121  13.221  0.0398 -0.1337 -0.2642
13199W        W31403  14.495   7.725  13.265  0.4142 -0.1651 -0.2027
13200W        W31404  15.085   4.600   0.349 -0.1276 -0.4219 -0.0741
13201W        W31405   6.041   3.647   1.603  0.0825  0.0622  0.0186
13202W        W31406  15.314   0.578   2.654 -0.0479  0.0451 -0.2276
13203W        W31407  12.684   5.031  16.883 -0.1344  0.0029 -0.1693
13204W        W31408   7.639  11.503   1.819 -0.1118 -0.0296 -0.2330
13205W        W31409   5.590   6.120   5.152  0.1045  0.0241  0.1028
13206W        W31410  12.775   0.217  14.966  0.1648 -0.2647 -0.0152
13207W        W31411  14.056   4.478  16.625 -0.1233 -0.1810 -0.3293
13208W        W31412  10.405  17.201  15.207  0.2790 -0.0273  0.0390
13209W        W31413   9.614   5.341  15.442 -0.1906  0.1877  0.1379
13210W        W31414   7.004   7.520   0.616  0.1790 -0.0844 -0.0013
13211W        W31415  14.164  11.233  15.021  0.0070 -0.0520 -0.0129
13212W        W31416   6.593  13.538  15.025  0.2126 -0.0579 -0.1388
13213W        W31417  10.535  10.509   2.859 -0.2051  0.0423 -0.0426
13214W        W31418  16.349   6.369  13.922  0.2719 -0.1807  0.0250
13215W        W31419   2.029   9.779  14.326 -0.3911 -0.2067  0.0670
13216W        W31420  11.109   8.257   4.973 -0.0257 -0.0354  0.0472
13217W        W31421  11.244   0.609  12.853  0.0283  0.1545  0.1935
13218W        W31422  10.551   0.393   4.025  0.0310 -0.0852 -0.1189
13219W        W31423   8.125   4.911  15.616 -0.2344 -0.1731 -0.1109
13220W        W31424   0.787   4.929   3.269 -0.1072  0.0821  0.0323
13221W        W31425   6.077  14.274  14.058 -0.0471 -0.0968  0.2500
13222W        W31426  15.070  15.302  15.533  0.1712 -0.0123  0.0781
13223W        W31427   5.235   4.689  13.432 -0.1051  0.0323  0.0027
13224W        W31428   4.412   1.344   1.299  0.2315 -0.1029  0.1626
13225W        W31429   5.680   5.546  16.390 -0.2856  0.1180 -0.1379
13226W        W31430  11.993   5.777  13.878 -0.0814 -0.0137  0.2390
13227W        W31431  15.003  13.969  16.193  0.0850  0.0292 -0.0354
13228W        W31432   2.451   1.116  15.095  0.0748 -0.0962 -0.0444
13229W        W31433   7.905   6.118  12.159 -0.1509 -0.0274 -0.0528
13230W        W31434  11.601   9.014  17.223  0.0018  0.1848  0.1507
13231W        W31435   1.428   9.361  14.271  0.3002 -0.0837 -0.0394
13232W        W31436   2.418   2.716   1.566  0.2479 -0.0324  0.0390
13233W        W31437   1.456  15.490   4.358 -0.0252  0.0309  0.3232
13234W        W31438   2.131  11.473  16.660 -0.1586  0.0667  0.0492
13235W        W31439  10.855   6.984   1.462 -0.0112  0.3279 -0.2083
13236W        W31440   5.845   5.103  16.486  0.0346 -0.1948  0.0265
13237W        W31441  16.363   7.579   3.804 -0.0751  0.2882 -0.1335
13238W        W31442  12.354   8.701  16.704 -0.0407 -0.0655 -0.1265
13239W        W31443  16.283   7.011   4.121  0.3257  0.1155 -0.0937
13240W        W31444   8.655  15.266  14.374  0.1934  0.0662  0.0645
13241W        W31445   0.829   7.439  14.247 -0.0310 -0.0950 -0.3862
13242W        W31446   0.192   5.101   0.928  0.2351  0.3036 -0.0019
13243W        W31447   4.900   9.052   0.123  0.2853 -0.3606  0.0640
13244W        W31448  15.343   0.925   5.150 -0.3068  0.2448  0.1678
13245W        W31449   4.071   1.733  16.352 -0.0404 -0.3088  0.0169
13246W        W31450  11.502  15.372   0.785  0.0203 -0.0400  0.0040
13247W        W31451   5.087   4.732  14.941  0.1228  0.1821  0.2423
13248W        W31452  11.874   0.957  15.370  0.1023 -0.2427  0.1923
13249W        W31453  13.335  12.291  14.513  0.0865  0.0615  0.0865
13250W        W31454   1.491   8.582   2.533  0.0084 -0.0832 -0.0002
13251W        W31455  16.756   8.130   0.962  0.1735  0.4037  0.1183
13252W        W31456   7.744   9.847   3.657  0.0873 -0.0156 -0.0101
13253W        W31457   3.362   3.539  15.473  0.0388  0.1495  0.1245
13254W        W31458   9.580   0.201   4.882 -0.2140  0.0686  0.2609
13255W        W31459   3.053   3.840   4.235 -0.0551  0.4734  0.1119
13256W        W31460  15.405   3.183  14.856 -0.3357 -0.2013  0.2981
13257W        W31461   6.990  15.537   0.208 -0.3139  0.1905  0.3083
13258W        W31462  16.649   2.394   0.434 -0.0560  0.1243  0.1924
13259W        W31463   6.023   8.699  15.296  0.0235 -0.0109 -0.0172
13260W        W31464   3.823  16.487  14.857  0.1572  0.0141 -0.2102
13261W        W31465  15.916   8.702  14.156 -0.0455 -0.1365 -0.0847
13262W        W31466   7.939   2.496  12.947 -0.1820 -0.3607 -0.0196
13263W        W31467  12.771  12.353   2.200 -0.2314  0.1431  0.1261
13264W        W31468  16.299   6.824  13.875 -0.3370  0.1411  0.4013
13265W        W31469   1.585   8.532  16.053  0.1409  0.1513 -0.1712
13266W        W31470   0.353  14.825   2.149  0.0350  0.1197 -0.0108
13267W        W31471   8.901  14.949   3.803  0.1626  0.0165 -0.2190
13268W        W31472  15.827  10.756  14.538  0.4125  0.1465  0.1384
13269W        W31473   8.885   0.684   0.282  0.0540 -0.0270  0.2404
13270W        W31474  10.812   0.437  16.009  0.0335 -0.2430  0.2008
13271W        W31475   5.497  12.266   1.901 -0.3285 -0.1617 -0.3343
13272W        W31476   6.073   4.973   1.973  0.0910 -0.3016  0.1212
13273W        W31477   6.222  14.658  16.115 -0.2001  0.3157 -0.0180
13274W        W31478  15.750   5.001  13.357 -0.0432 -0.2094 -0.3263
13275W        W31479   5.368  10.660  15.408 -0.0312  0.1290 -0.1043
13276W        W31480   3.363   0.246  16.522  0.0217 -0.1197 -0.0898
13277W        W31481   5.902   8.886   3.068 -0.1114 -0.1597  0.0395
13278W        W31482  15.852   1.692  15.986 -0.3446 -0.0670  0.1346
13279W        W31483  14.244   2.229   1.125  0.1987  0.1157  0.0424
13280W        W31484   2.637   2.398   3.019 -0.0883 -0.2683  0.0093
13281W        W31485   3.599   4.540   1.973 -0.0516 -0.2586  0.0091
13282W        W31486   8.279   0.492  12.431 -0.1356 -0.0066 -0.0668
13283W        W31487  15.122   4.801   5.413 -0.1382  0.1892 -0.0324
13284W        W31488   1.444   2.614  16.182 -0.2061  0.2857  0.2664
13285W        W31489  10.357   6.130   2.648  0.1073  0.2374  0.3338
13286W        W31490  12.267   0.594   1.993 -0.0082  0.0682 -0.0852
13287W        W31491  15.148   3.012   1.236 -0.1420 -0.2815  0.0213
13288W        W31492   9.738   9.553  15.379 -0.0559  0.1141 -0.0841
13289W        W31493  13.499  15.053   3.477  0.3170  0.1621  0.1463
13290W        W31494  10.299   2.779  15.973  0.2353  0.0391 -0.1302
13291W        W31495  10.778   4.260  13.279  0.4051  0.3213  0.2315
13292W        W31496  15.844  11.131  15.429  0.0158  0.0474 -0.1436
13293W        W31497   1.479  12.046  15.286 -0.0387  0.0358  0.1229
13294W        W31498  12.420  15.369   4.808  0.0804  0.0732 -0.2741
13295W        W31499   1.366   0.760  12.334  0.1812  0.2855  0.3213
13296W        W31500   4.301  16.362   3.224  0.0499 -0.3213  0.2525
13297W        W31501   0.706  12.060   4.451 -0.1127 -0.0211 -0.0324
13298W        W31502   8.643   7.733   4.819 -0.3625  0.0957 -0.1338
13299W        W31503  10.243   4.085  15.239  0.0722 -0.3355  0.0411
13300W        W31504  12.127   8.621  13.938  0.0106 -0.1725  0.0663
13301W        W31505   2.522  15.939  15.632 -0.0471 -0.0820 -0.0411
13302W        W31506  15.888   6.271  13.543 -0.0276  0.0541  0.1142
13303W        W31507  14.060   7.061   1.191 -0.1642  0.2362 -0.0196
13304W        W31508  15.929   5.155   0.731 -0.0567  0.2997 -0.0532
13305W        W31509  13.045   5.326  17.140 -0.1307  0.0967  0.1148
13306W        W31510   8.702   1.892  15.068 -0.1793 -0.1180 -0.1558
13307W        W31511  17.402   7.765   4.558  0.0135  0.1895 -0.1181
13308W        W31512  13.999   8.986   5.106 -0.0186  0.0952  0.0031
13309W        W31513   1.275  11.958   0.681  0.3442  0.0714 -0.2955
13310W        W31514   3.013  13.026  13.878  0.0237  0.1146  0.3529
13311W        W31515   7.931  10.656   1.955  0.0028 -0.0578  0.2160
13312W        W31516   9.035   5.735  13.103  0.0775  0.1778 -0.4920
13313W        W31517  13.602  13.213   1.534  0.1308 -0.2836  0.1483
13314W        W31518   5.527   2.235   2.158 -0.1485  0.1539  0.1338
13315W        W31519  13.643  14.891  16.202 -0.2091  0.1840  0.1096
13316W        W31520   2.736   2.240  13.931 -0.3412  0.0710  0.1532
13317W        W31521   0.479  13.647  15.731 -0.1313 -0.3083  0.0346
13318W        W31522   9.653  14.698   1.814  0.0542  0.0554 -0.1355
13319W        W31523   1.493  17.171   5.225 -0.1810 -0.2578 -0.1320
13320W        W31524  13.579   8.792  15.045  0.2299 -0.3309  0.2656
13321W        W31525  16.963  17.379   0.138  0.1444  0.0525  0.0183
13322W        W31526  11.631   4.650  13.125 -0.0854  0.0440 -0.1016
13323W        W31527   1.652   5.037  15.306 -0.1209  0.2088 -0.0987
13324W        W31528   3.492  17.503   3.422  0.0593  0.1891 -0.0418
13325W        W31529  13.846  15.653  15.596 -0.0480  0.1369 -0.0725
13326W        W31530   0.892  10.899   4.965  0.0164  0.2444  0.0840
13327W        W31531  16.031   4.544   2.459  0.0166  0.0354  0.1649
13328W        W31532   9.329   8.927   3.392  0.0034  0.1385 -0.0793
13329W        W31533   0.590   2.122   0.373  0.2505  0.0293 -0.1757
13330W        W31534  12.011   9.114   2.655  0.0186  0.1040 -0.3643
13331W        W31535  16.037  10.349  14.105  0.0728 -0.2420  0.0756
13332W        W31536  16.297  10.532  12.460  0.1583 -0.2446  0.1645
13333W        W31537   8.463  15.252   1.340 -0.0221  0.4188  0.2553
13334W        W31538   8.192  15.909   5.390 -0.0827  0.1911  0.1296
13335W        W31539   2.306   9.549  14.003 -0.3901  0.1847  0.1354
13336W        W31540   4.625  10.867   3.880  0.0906 -0.0869  0.4246
13337W        W31541  15.787   0.591   2.495 -0.0505  0.2988 -0.0346
13338W        W31542   2.372  10.214   0.609 -0.1012  0.0977  0.1070
13339W        W31543   9.444  13.462  12.742 -0.1651  0.3959  0.3798
13340W        W31544  12.111   4.091   3.868 -0.2725  0.0921  0.1055
13341W        W31545  11.302  10.990   5.025  0.0678  0.2612  0.1748
13342W        W31546   9.277   3.963  15.360  0.1808  0.0451  0.0500
13343W        W31547  14.175   1.936   1.525  0.0181 -0.0680  0.2566
13344W        W31548   9.862  12.212  13.743 -0.0229 -0.2156  0.0282
13345W        W31549   6.640   1.464   2.918 -0.0928 -0.1763 -0.0662
13346W        W31550   9.896   1.372   2.627 -0.2516 -0.1976 -0.0419
13347W        W31551  16.613  10.369  14.797  0.1153 -0.4111  0.3838
13348W        W31552   9.535   9.335   3.120 -0.0749  0.0022 -0.2035
13349W        W31553  10.685   9.173  16.571 -0.1504 -0.1063 -0.1295
13350W        W31554  14.408   5.447   5.288 -0.0121  0.1059  0.3749
13351W        W31555   2.546   7.829  16.251 -0.1626 -0.0539 -0.1406
13352W        W31556   0.627  16.470   1.162  0.3202 -0.1707  0.0513
13353W        W31557   9.267   1.845   4.291  0.0632 -0.0333  0.2976
13354W        W31558   2.168   8.965   0.541 -0.1312 -0.0512  0.2777
13355W        W31559  16.077   3.377   1.157 -0.0945  0.0111  0.2670
13356W        W31560  12.047  16.666  12.426 -0.0465  0.2725  0.2422
13357W        W31561   3.208   4.064  12.493  0.3998 -0.6258 -0.5347
13358W        W31562   8.040   6.081   0.800  0.1413  0.0839  0.0006
13359W        W31563  12.863   7.496   1.350  0.0444 -0.0307 -0.2080
13360W        W31564   1.951  13.358  16.905  0.1368  0.0544 -0.0406
13361W        W31565  14.324  11.857   5.531  0.2161 -0.0588 -0.0733
13362W        W31566   6.595  11.108  13.272 -0.0405  0.1462 -0.3533
13363W        W31567  13.801   9.771  14.673 -0.0023 -0.0908 -0.3135
13364W        W31568  13.276  15.661   3.996 -0.1622  0.2401  0.0929
13365W        W31569   0.145  12.439   3.401  0.0248  0.3206  0.2588
13366W        W31570  13.433   2.853  16.337 -0.0684 -0.1475  0.0676
13367W        W31571   6.949   1.138  13.420 -0.1692  0.0780  0.2596
13368W        W31572   5.428  15.712   3.732 -0.1715 -0.0757 -0.0394
13369W        W31573   7.859   3.005   5.028 -0.1159  0.2276 -0.2976
13370W        W31574   7.864   5.663   1.141  0.2716  0.0185 -0.1846
13371W        W31575  17.196   5.296   3.441 -0.0450 -0.0892 -0.1257
13372W        W31576   8.484  11.497   5.198 -0.1740 -0.0446  0.1478
13373W        W31577  10.927  16.696   2.743 -0.0831  0.2480 -0.5262
13374W        W31578  14.200   9.998   3.590 -0.1408 -0.0328  0.0556
13375W        W31579   2.161  14.398   1.949 -0.1588  0.4669  0.0436
13376W        W31580   0.993   4.740   4.303 -0.0879 -0.3220  0.2254
13377W        W31581   1.985  17.013  17.036  0.0124  0.1148 -0.1142
13378W        W31582   2.406   6.802   3.799 -0.0048  0.0436 -0.2743
13379W        W31583  14.910  12.470   3.077  0.0038 -0.3298 -0.0455
13380W        W31584   6.250   9.637  15.047  0.1349 -0.2082 -0.0058
13381W        W31585  10.299   1.886  12.747 -0.1226  0.1298 -0.2049
13382W        W31586   9.934   3.218   0.036  0.0046  0.0174 -0.2119
13383W        W31587  10.460  17.357   1.423  0.2392 -0.1262  0.0952
13384W        W31588  16.660   0.034  15.030  0.1380 -0.1889  0.0155
13385W        W31589  14.411   8.926   4.298 -0.0952 -0.1926 -0.0619
13386W        W31590   1.283   4.900   3.350 -0.0358 -0.1153  0.1191
13387W        W31591   9.829  10.060  12.607  0.0060  0.0384  0.1295
13388W        W31592   7.463   2.466   0.009 -0.0814 -0.0783 -0.0059
13389W        W31593  12.665   7.051   1.494  0.3138  0.1099 -0.1463
13390W        W31594   4.981  14.016   3.474 -0.0134 -0.1521 -0.1141
13391W        W31595   5.699   6.441   0.226  0.3657  0.0568  0.0426
13392W        W31596   3.997   5.856   3.265  0.5485 -0.2965  0.4014
13393W        W31597   2.480   0.733  12.688 -0.1557  0.0788  0.2013
13394W        W31598   8.738   8.669  15.483  0.4295  0.0731 -0.0599
13395W        W31599   7.673  14.997  16.330  0.0584 -0.0272 -0.0888
13396W        W31600  12.783   5.527   2.979  0.1351  0.1610 -0.0038
13397W        W31601  14.659   2.205  13.931  0.2875 -0.0341 -0.2519
13398W        W31602   5.172   8.928   2.282  0.2603  0.1005  0.0577
13399W        W31603  14.485   6.594  12.214 -0.3289  0.0719  0.2648
13400W        W31604  13.174  16.095  17.016  0.0613  0.2210  0.1890
13401W        W31605   9.354  15.993  11.584 -0.0927  0.1105  0.1729
13402W        W31606  13.532   9.537  16.623  0.2248  0.0323 -0.0313
13403W        W31607  15.562   7.955   2.564 -0.0535 -0.0075  0.0967
13404W        W31608   8.314   0.055  12.728  0.2118  0.1536  0.3175
13405W        W31609   7.984   6.682   2.682  0.1756 -0.3432 -0.0632
13406W        W31610   6.454   4.627   0.723  0.0866  0.2230 -0.0721
13407W        W31611  14.069  13.445   1.684 -0.2588 -0.3098  0.2187
13408W        W31612   3.782   7.385   2.739  0.2088  0.1082  0.1077
13409W        W31613   4.090   4.858   3.414 -0.0305  0.0451  0.2295
13410W        W31614   4.696  14.379   4.874 -0.0290 -0.0393 -0.0534
13411W        W31615   3.057   1.899   2.481  0.2163  0.1128 -0.0277
13412W        W31616  13.052   1.133   6.446 -0.1651  0.1196 -0.3848
13413W        W31617   5.453   0.524   1.870 -0.0796  0.0609 -0.2298
13414W        W31618  10.893   8.934  12.813 -0.1219 -0.1180 -0.0403
13415W        W31619   9.625  13.592  17.077 -0.0399  0.0163 -0.1224
13416W        W31620   1.438   7.079  12.776 -0.1771  0.1535 -0.1520
13417W        W31621  13.143   5.598  15.939 -0.1050 -0.3211 -0.0436
13418W        W31622   9.581   6.266   1.481  0.1303  0.0452 -0.1679
13419W        W31623  12.173   9.647   1.221 -0.1480  0.1594 -0.3198
13420W        W31624   3.397  12.942   3.090 -0.1899  0.2155  0.0748
13421W        W31625  15.791  13.817  16.446 -0.3298 -0.3065 -0.0411
13422W        W31626   8.538   7.634   2.167  0.2339  0.0988  0.0702
13423W        W31627  12.404   4.909  12.590 -0.0264  0.0462 -0.1542
13424W        W31628  13.291   1.213   4.821 -0.0872  0.0627  0.1933
13425W        W31629  17.030   3.950   3.768 -0.0404  0.2486  0.3733
13426W        W31630  12.007   7.372  12.466  0.4931 -0.1419  0.1755
13427W        W31631  16.810   4.748   0.897 -0.4612  0.1022  0.0011
13428W        W31632   3.353  16.158   3.580  0.0545 -0.0811 -0.0984
13429W        W31633  16.871  16.265  15.204  0.0282 -0.1516  0.0892
13430W        W31634  14.922   7.142  14.925 -0.4362 -0.2272  0.4533
13431W        W31635   6.895  10.739   0.984  0.0918  0.0164 -0.1347
13432W        W31636   3.475  12.041  14.975 -0.1739 -0.1180 -0.0951
13433W        W31637  15.539  10.796  12.012 -0.2181  0.0205 -0.0731
13434W        W31638   4.406   2.283   0.600  0.0430 -0.1843  0.1664
13435W        W31639  10.434   3.807   2.162 -0.0761 -0.0851 -0.4330
13436W        W31640  12.995   5.408  14.363  0.1299 -0.1294  0.0324
13437W        W31641   9.291   1.513  13.846  0.0671 -0.5084  0.2140
13438W        W31642   6.249  12.687   0.785  0.1226 -0.0929  0.2134
13439W        W31643   0.576   7.173   2.538  0.0350 -0.1174 -0.0965
13440W        W31644  10.864  13.427   4.133 -0.0335  0.2601  0.0016
13441W        W31645   9.524  17.362   2.757 -0.2431  0.3481 -0.2390
13442W        W31646   8.055   1.272   2.451  0.1852 -0.1808 -0.2104
13443W        W31647  16.401   4.018   1.837 -0.0947 -0.1417  0.0727
13444W        W31648   6.206   0.577  15.360  0.1428  0.1365 -0.1614
13445W        W31649   3.163  10.787   2.739 -0.2194  0.1354  0.0118
13446W        W31650   0.954   6.789  13.884 -0.0792 -0.0131 -0.0385
13447W        W31651   0.509  14.207   4.004  0.1459  0.1195  0.2035
13448W        W31652   3.646   6.582  16.857 -0.0009 -0.0686  0.1224
13449W        W31653   6.746   2.335  13.634 -0.0419  0.4821 -0.0743
13450W        W31654   5.220   1.421  14.794 -0.2525 -0.0314  0.3425
13451W        W31655   8.738  14.843   4.604  0.2431  0.1889  0.1997
13452W        W31656  11.789   4.701  16.408  0.0017  0.3760  0.0223
13453W        W31657   9.396   5.570  13.443 -0.3141 -0.1769 -0.0265
13454W        W31658   5.142  12.517  14.703  0.0989  0.0720  0.1251
13455W        W31659  10.154   2.146  13.153 -0.2837 -0.0336 -0.0380
13456W        W31660   2.414  15.805   0.178  0.0163  0.1696 -0.2466
13457W        W31661  13.959  14.871  12.376  0.1354 -0.2528 -0.1977
13458W        W31662   8.591  11.974  16.419 -0.2941 -0.2193 -0.3547
13459W        W31663  15.546   0.624   3.444  0.0449 -0.0975 -0.2662
13460W        W31664  12.432   7.366  12.759  0.1479 -0.0950  0.0074
13461W        W31665  16.456   2.708  14.152 -0.2021 -0.0746 -0.1992
13462W        W31666  17.344   4.077   4.216 -0.1675 -0.1896  0.3070
13463W        W31667  10.523  11.763  13.144  0.1805 -0.0642 -0.0792
13464W        W31668   3.243   7.068  11.553 -0.5077  0.0604 -0.1866
13465W        W31669   8.148   9.552   3.726 -0.1940  0.3885  0.3130
13466W        W31670   9.230   9.780  14.137  0.1320 -0.3474 -0.4413
13467W        W31671  10.143  13.475  15.823  0.0215 -0.1928  0.2664
13468W        W31672   7.980   1.606   1.959 -0.2031  0.0022  0.1306
13469W        W31673   4.532  17.112   4.393 -0.2443  0.4202 -0.0112
13470W        W31674   1.549   4.097   1.465 -0.2477  0.0594  0.2250
13471W        W31675  12.928   3.781  14.900  0.0620  0.1917 -0.0956
13472W        W31676  16.382   5.912   2.582 -0.0635 -0.1900  0.0828
13473W        W31677   1.731  15.117  14.173  0.0051  0.1132  0.1134
13474W        W31678   7.621   4.536  15.122  0.0902  0.1609  0.2717
13475W        W31679   7.780  14.907   3.047  0.2728 -0.1582 -0.1340
13476W        W31680   6.102  17.140   4.175  0.2365 -0.2014 -0.4789
13477W        W31681   5.929   1.935  15.595 -0.3168 -0.2065 -0.3803
13478W        W31682  13.883  12.545  12.065  0.2630 -0.0367 -0.1008
13479W        W31683  12.279  13.634  16.066  0.1242 -0.1054  0.1897
13480W        W31684   0.953   2.696   2.084 -0.0418 -0.0527  0.1262
13481W        W31685   8.242  17.545  16.116 -0.3331 -0.1846 -0.0705
13482W        W31686   2.807   6.277  12.813 -0.1054  0.2969  0.1262
13483W        W31687   2.873   8.308   2.031 -0.0786  0.0419  0.3258
13484W        W31688   7.757  11.160  16.325  0.0496 -0.2650 -0.0547
13485W        W31689   1.141  14.285   0.914 -0.0319  0.0743  0.2965
13486W        W31690   5.439  13.720   1.611  0.0402 -0.0328 -0.0736
13487W        W31691  17.507  15.963   4.301  0.2891 -0.0579 -0.1856
13488W        W31692   1.646   4.778  13.735  0.2992  0.3987 -0.0541
13489W        W31693   1.172   1.719  12.724 -0.1126 -0.1218  0.0545
13490W        W31694   8.313   6.448  12.523  0.1283  0.2621  0.0962
13491W        W31695  11.361  17.379   3.819  0.2257  0.4194 -0.2074
13492W        W31696  16.727  11.384  12.944 -0.1169 -0.3276 -0.1465
13493W        W31697   8.008   5.129   4.421 -0.0992  0.0922 -0.1038
13494W        W31698   0.637   9.958  17.121 -0.0385 -0.2157  0.2135
13495W        W31699  11.488  13.804  13.400 -0.1597 -0.3371  0.1021
13496W        W31700   6.303   9.246   3.042  0.1363 -0.2880 -0.4686
13497W        W31701   3.673   9.342   2.485 -0.2817  0.1761  0.0410
13498W        W31702   2.251  12.383  15.822 -0.2144 -0.1857  0.1594
13499W        W31703   3.233  13.730   4.297 -0.1688 -0.0379  0.0144
13500W        W31704   3.009   2.398  15.510  0.0534  0.3092  0.0670
13501W        W31705   7.072   3.482   3.896 -0.1575  0.1135 -0.0536
13502W        W31706   0.409   8.595  16.847  0.1775  0.1451  0.2689
13503W        W31707  16.212   1.816   4.839  0.1051 -0.3442 -0.2335
13504W        W31708   0.687   5.070  15.193 -0.1315 -0.2503  0.3088
13505W        W31709  12.231   6.135   1.634 -0.1232 -0.1391  0.4007
13506W        W31710   7.001  16.651   0.007  0.1457 -0.0975 -0.1456
13507W        W31711   6.995  17.526   2.373  0.0817  0.0493  0.0886
13508W        W31712  15.908  16.249   2.317  0.1777  0.0220 -0.0485
13509W        W31713  15.347   8.631   3.358  0.0773  0.0131 -0.4517
13510W        W31714   1.364   0.264  15.459  0.3814  0.0035  0.0849
13511W        W31715  10.617   2.472   0.104  0.1298 -0.3215 -0.0116
13512W        W31716  11.213   4.142  13.736  0.0357  0.1896  0.0074
13513W        W31717  11.090  16.414  16.413 -0.0722  0.0464 -0.2058
13514W        W31718   7.533   5.247   1.215 -0.2069  0.1115  0.3377
13515W        W31719  11.331   2.300   2.382  0.1871  0.1910 -0.0755
13516W        W31720   8.440  13.785  16.916  0.0784  0.1094  0.1522
13517W        W31721  15.774   6.195   3.171  0.1570 -0.0321  0.0776
13518W        W31722  11.908  13.644  15.681 -0.1692  0.0397 -0.2180
13519W        W31723  14.950  17.091  17.024  0.1525  0.0611  0.1410
13520W        W31724  14.016   5.948  17.028  0.2207  0.0378 -0.3081
13521W        W31725   7.313   8.777   4.421  0.3496 -0.2659 -0.3115
13522W        W31726  12.373   2.793   0.455 -0.0115 -0.2052  0.2176
13523W        W31727   8.820   4.549  14.382 -0.0356  0.2147  0.2505
13524W        W31728   5.172  14.947  14.560 -0.0031  0.0953  0.2588
13525W        W31729  17.260   9.699   0.416 -0.1983  0.1038 -0.2233
13526W        W31730   6.776  16.150   1.844  0.1786  0.1307  0.2444
13527W        W31731  13.079   7.377  15.645 -0.2900 -0.1472 -0.1017
13528W        W31732   5.833   2.170   0.149 -0.0111 -0.0530  0.0176
13529W        W31733  13.592  13.773   3.827  0.2072 -0.3026 -0.1510
13530W        W31734   1.611   9.826  14.636 -0.3142  0.2214 -0.0929
13531W        W31735   9.030  12.613  13.005 -0.0017 -0.3432  0.0347
13532W        W31736  16.857   7.605   2.518  0.0566  0.0384 -0.0071
13533W        W31737   3.101   8.719   3.893 -0.0069  0.0959 -0.1098
13534W        W31738   6.274   9.631   2.701  0.1699  0.1009  0.2071
13535W        W31739   4.405   7.647  15.817  0.0548  0.0872 -0.2411
13536W        W31740   1.106  12.294  11.868 -0.3567  0.2321 -0.2586
13537W        W31741  11.603   8.884   3.803  0.2164  0.1939  0.3550
13538W        W31742   5.043  13.991  12.472 -0.0334 -0.1031 -0.1681
13539W        W31743   1.558   9.217  12.754 -0.2564  0.1433 -0.0084
13540W        W31744   9.796  10.581   4.516 -0.0134 -0.0317  0.2625
13541W        W31745  10.152  14.905   0.737 -0.3177 -0.2757  0.1229
13542W        W31746   5.051  17.116  14.485  0.3436 -0.0192 -0.1952
13543W        W31747   2.068  14.570   2.454 -0.1105 -0.0166  0.2400
13544W        W31748  11.094  10.448  12.215  0.1279 -0.1274  0.0094
13545W        W31749  12.285   2.250  14.185 -0.0044  0.0525  0.3032
13546W        W31750  15.593  14.644   0.714  0.0821  0.4440 -0.0437
13547W        W31751   1.282   7.098   3.580  0.3062 -0.1807  0.0904
13548W        W31752   5.899  10.076   0.137 -0.1061  0.0632  0.0961
13549W        W31753  13.953   9.777  10.636  0.0229  0.1318 -0.0125
13550W        W31754  10.140  12.088  12.929 -0.1278 -0.2047  0.1827
13551W        W31755   6.935  13.359   5.553 -0.0706 -0.1234 -0.0960
13552W        W31756   2.339  10.494  13.862  0.2039  0.1909  0.2161
13553W        W31757   2.148  10.903  12.004 -0.3191  0.0102  0.3293
13554W        W31758   3.115   5.510  14.953  0.2566  0.0536 -0.2022
13555W        W31759   8.156  14.956  16.663  0.0584 -0.1990 -0.3982
13556W        W31760   9.268   0.210   2.531  0.1870  0.1848  0.0974
13557W        W31761   2.545  13.986  15.969 -0.0145 -0.0759 -0.0144
13558W        W31762  14.277   7.532   1.214  0.2106  0.1487  0.1926
13559W        W31763  15.097   9.712   4.921 -0.0327  0.3053  0.0295
13560W        W31764   9.395  10.908  15.027  0.3455  0.0079  0.2529
13561W        W31765  14.222   2.062  15.640  0.0255 -0.2201 -0.1667
13562W        W31766  14.345  10.746   4.463  0.1562 -0.0075 -0.0479
13563W        W31767  16.231   0.827   1.224  0.3117 -0.1199 -0.0609
13564W        W31768   4.688   0.927  16.041  0.1870  0.3591 -0.0141
13565W        W31769   8.638  16.524  13.502 -0.1472  0.3591  0.0662
13566W        W31770   6.503   9.386   4.464  0.1276 -0.2461 -0.0560
13567W        W31771   9.597  17.296  16.014  0.3080  0.0553  0.1743
13568W        W31772  15.064  13.794   3.907  0.1711 -0.0597  0.3321
13569W        W31773   9.016   9.651  16.865 -0.0252  0.0059  0.0111
13570W        W31774   7.537   0.919  12.714  0.0702  0.0246 -0.0232
13571W        W31775  17.096  11.406   5.078  0.0869 -0.1112 -0.0846
13572W        W31776   8.206   0.524  16.207  0.1303  0.1145 -0.0798
13573W        W31777   1.493  16.518  17.211 -0.0280 -0.0366 -0.3724
13574W        W31778   7.450  11.231   4.472  0.1386  0.1160 -0.3392
13575W        W31779   4.703   3.129  13.160  0.2083 -0.0203 -0.1881
13576W        W31780  14.879  10.531  16.131 -0.0787 -0.0120  0.2724
13577W        W31781   5.465  12.546   2.399 -0.3690  0.1731  0.0151
13578W        W31782   1.558   7.622  12.659 -0.0541  0.1197  0.1157
13579W        W31783  16.458   4.865  14.696  0.3073 -0.2052  0.1442
13580W        W31784  14.076  10.474   2.771 -0.0420  0.4168  0.0604
13581W        W31785   3.945   2.074   4.202  0.0604  0.2079  0.0652
13582W        W31786  17.349  16.232  15.006  0.1527 -0.0559 -0.2705
13583W        W31787  10.555  14.840  16.962 -0.0356 -0.0945 -0.1285
13584W        W31788   6.944   4.558   0.869  0.0757 -0.2807 -0.2084
13585W        W31789  11.300   5.224   3.592  0.1113  0.0682  0.0510
13586W        W31790   6.951   8.641   3.423  0.0707  0.2768  0.0054
13587W        W31791  11.374   9.805  13.871 -0.1367 -0.2273  0.1765
13588W        W31792   7.041  13.575   2.511 -0.0137 -0.0752  0.0248
13589W        W31793  16.966   4.311  14.173 -0.3002 -0.1671 -0.2178
13590W        W31794   0.533   4.038  12.670  0.3252 -0.2580  0.0571
13591W        W31795   4.298   9.874   2.166  0.0567 -0.2265 -0.0402
13592W        W31796   0.341   5.385  14.492 -0.1487 -0.0269 -0.1947
13593W        W31797   2.204   0.259  15.832  0.0144 -0.1630 -0.1966
13594W        W31798   7.181   9.520  11.820 -0.0910  0.2731  0.2160
13595W        W31799  16.323   0.849  13.958  0.1925  0.2446  0.1249
13596W        W31800   2.364   5.578  15.500  0.2585  0.2191 -0.0516
13597W        W31801   6.401   7.824   4.198 -0.0973  0.1648 -0.3469
13598W        W31802  15.712  10.042   1.308  0.4460  0.1036  0.1365
13599W        W31803  16.132  16.351  16.336 -0.4225  0.0530  0.2391
13600W        W31804   3.615   6.103   0.513 -0.1913  0.2435 -0.0873
13601W        W31805   0.259  14.937  14.185  0.1087 -0.1217 -0.0318
13602W        W31806   6.163   4.248   0.230  0.0261  0.5410  0.0517
13603W        W31807  15.136  14.808  15.366  0.1918 -0.0731 -0.0496
13604W        W31808   6.311   1.214   4.626 -0.0667  0.1125  0.0520
13605W        W31809  14.656   7.852   3.037  0.1811 -0.2720  0.1760
13606W        W31810   6.931   7.532   4.832 -0.1160  0.0175  0.2584
13607W        W31811  16.463   5.008  16.962  0.2081 -0.1428 -0.3858
13608W        W31812   7.455   8.062   0.035 -0.2422 -0.0083  0.0107
13609W        W31813   4.229   5.804   4.763 -0.2317  0.0036 -0.0976
13610W        W31814   8.367   0.976  16.411  0.1837 -0.0477  0.0909
13611W        W31815   7.091   0.416  13.958  0.3935  0.0295 -0.1237
13612W        W31816  10.266   3.517  17.077  0.0572 -0.0652 -0.1236
13613W        W31817  12.655   2.865   3.046  0.0724 -0.0193  0.3168
13614W        W31818   2.025  11.185  15.053 -0.0928  0.0055  0.1380
13615W        W31819   1.646   7.020  17.083 -0.1826  0.0082 -0.0759
13616W        W31820   9.734   3.895  15.579 -0.2569 -0.0489 -0.2928
13617W        W31821   8.917  15.480   3.943  0.0943  0.0066 -0.0185
13618W        W31822  17.055   5.605   0.826  0.2627 -0.1472 -0.0932
13619W        W31823   7.553   7.507   3.133 -0.1594 -0.3419  0.3876
13620W        W31824   6.311   8.906   2.712  0.1804 -0.0964  0.1329
13621W        W31825   4.416  12.335   0.941  0.1056 -0.3555 -0.2099
13622W        W31826   9.730   8.519   0.533 -0.0092 -0.1941 -0.0208
13623W        W31827  10.321  14.549   4.418 -0.0756 -0.4059  0.1741
13624W        W31828   9.604  13.344   4.174  0.1069  0.2770  0.0731
13625W        W31829   6.373   1.603   0.992 -0.1955 -0.0279 -0.0893
13626W        W31830   4.227   9.547  15.122 -0.4102  0.0327 -0.1229
13627W        W31831   0.247  15.113  16.947  0.2270 -0.2218 -0.0410
13628W        W31832   2.204   2.256   3.346 -0.1736 -0.2408 -0.1136
13629W        W31833   9.113  14.420   3.882  0.0264 -0.1121 -0.1194
13630W        W31834   1.416   2.323   4.378 -0.0567 -0.1297  0.2436
13631W        W31835  13.187  10.813   0.291 -0.0789 -0.0123 -0.0788
13632W        W31836   6.008   2.319   0.600 -0.1061 -0.0460 -0.2184
13633W        W31837   0.230   4.645   2.002  0.0922 -0.0085  0.0398
13634W        W31838   8.571  14.249  16.669  0.0474  0.1854  0.2699
13635W        W31839  14.207  13.043   1.408 -0.0142 -0.2351  0.2462
13636W        W31840   8.711   7.087   0.304 -0.0829 -0.1396  0.2109
13637W        W31841   1.326   2.664  13.376 -0.2271  0.2956 -0.1633
13638W        W31842   5.237   0.244  16.919 -0.2468  0.1682  0.1850
13639W        W31843  10.023  15.927   3.219 -0.0844 -0.1507 -0.3927
13640W        W31844   1.411   1.500  16.832 -0.3119 -0.1386  0.0420
13641W        W31845   1.629  15.892  15.750  0.2894  0.0382  0.0262
13642W        W31846  12.850   6.278   1.232  0.0035  0.1712  0.2046
13643W        W31847  16.837  14.795  14.188 -0.1729 -0.1552  0.0401
13644W        W31848   9.206   7.290   0.028  0.0520 -0.1693  0.2329
13645W        W31849  17.415   4.720  16.266  0.0407  0.1763 -0.1427
13646W        W31850   3.413  15.253  16.464  0.1119  0.1430  0.0720
13647W        W31851   4.811   5.932   1.111  0.0391  0.1683 -0.1504
13648W        W31852  11.786   4.281  15.361  0.0466  0.3387  0.2747
13649W        W31853   4.897   4.704  15.635  0.0402  0.1093 -0.0934
13650W        W31854  14.787   0.344  16.895 -0.2049 -0.1672  0.2672
13651W        W31855   8.888  13.063  11.905  0.0605 -0.3152  0.0206
13652W        W31856  17.502  11.829  12.339  0.1671 -0.3248  0.1539
13653W        W31857   1.961   9.704  15.422  0.2500 -0.0162  0.2458
13654W        W31858   5.225  16.574   2.245  0.2945 -0.0018  0.4309
13655W        W31859  12.697   7.478  15.332 -0.0206  0.0970  0.2205
13656W        W31860  14.930  12.567  11.212  0.0813 -0.0570  0.0440
13657W        W31861   6.701  10.132  12.894 -0.1152 -0.0060  0.0390
13658W        W31862   3.265  14.324  12.009 -0.1764  0.1933 -0.1070
13659W        W31863   3.793  12.147   3.740  0.1354  0.1193  0.1179
13660W        W31864  10.825   1.267   5.012 -0.0636  0.1822  0.1635
13661W        W31865  15.730   5.853  13.835  0.3401 -0.0294 -0.0642
13662W        W31866   7.071   2.791  17.075  0.1968  0.0095 -0.1652
13663W        W31867   2.046  17.067  13.711 -0.1266 -0.0652 -0.0840
13664W        W31868  13.218   4.292  13.962 -0.0860 -0.0078  0.1160
13665W        W31869  11.423   5.333  12.519  0.1660 -0.0555 -0.2954
13666W        W31870   1.057   4.647  15.142 -0.0294  0.1881  0.1422
13667W        W31871   6.536   8.872  16.680  0.1071 -0.2200 -0.1354
13668W        W31872   0.205   4.028   5.269 -0.3044 -0.0256  0.3371
13669W        W31873   4.359   6.123   4.065 -0.1961  0.2657 -0.2725
13670W        W31874  12.475  13.540   4.625  0.0370 -0.1381  0.0434
13671W        W31875   5.397  12.189  11.994  0.0842  0.2464 -0.1487
13672W        W31876   7.087   1.382  15.135  0.1203 -0.1749  0.1651
13673W        W31877   1.324   3.269   3.171  0.2968 -0.0879 -0.3559
13674W        W31878  11.122   2.038   4.391 -0.2559 -0.2562  0.3717
13675W        W31879   3.152   7.840  16.307  0.1854 -0.2292  0.0627
13676W        W31880  16.406   7.298   0.784 -0.2658  0.2500 -0.0947
13677W        W31881  15.338  10.384   2.185  0.2947  0.0972  0.3983
13678W        W31882  15.443  13.013   4.090  0.2073  0.0368 -0.0302
13679W        W31883   7.562   3.413  13.802 -0.1933  0.0453 -0.2413
13680W        W31884  10.988  11.607  16.161 -0.2026 -0.1170  0.0604
13681W        W31885   1.224   8.985   4.082 -0.1908  0.2750 -0.0782
13682W        W31886   8.250  11.120  16.255  0.0417  0.0534 -0.0706
13683W        W31887  11.203   7.050  14.275  0.0229  0.2042  0.2014
13684W        W31888   3.576   2.760  14.823  0.0997  0.0691  0.1106
13685W        W31889   9.243  11.670   0.188  0.0937  0.0487  0.0090
13686W        W31890   1.421   8.263   4.654 -0.1629  0.0170  0.2039
13687W        W31891  15.624   0.883  14.467  0.0984 -0.0663  0.1536
13688W        W31892   9.449   7.616   2.744  0.0028 -0.1348  0.3565
13689W        W31893  13.202   3.094  13.005  0.0821 -0.1595  0.1948
13690W        W31894  15.321   9.799   2.573 -0.3022  0.0948  0.0201
13691W        W31895   3.876   6.032  16.039 -0.1166  0.2071  0.0488
13692W        W31896   0.977  12.000   1.676  0.0189  0.1602  0.1591
13693W        W31897  11.718   8.455  12.371  0.3325 -0.0818 -0.2946
13694W        W31898   9.956   2.490   2.052 -0.2277  0.0816 -0.0205
13695W        W31899  15.088   5.154   3.477  0.0123 -0.0219 -0.2115
13696W        W31900   0.008  16.278   4.712  0.0497  0.1257  0.3490
13697W        W31901   8.445  13.005  14.713 -0.1025  0.1394 -0.1119
13698W        W31902  15.695   6.235  15.573 -0.0380 -0.0366 -0.0224
13699W        W31903  16.672   1.763  13.748 -0.1956  0.1752 -0.1305
13700W        W31904   6.170  14.356  12.927 -0.1395  0.1161  0.1632
13701W        W31905   9.803  10.001   0.552  0.1478 -0.2506  0.2524
13702W        W31906   3.578   2.522  13.420 -0.3881 -0.2523 -0.2642
13703W        W31907  12.929  10.766  15.146  0.1982 -0.0982  0.2632
13704W        W31908   3.794  13.592   1.643 -0.2696 -0.2015  0.0779
13705W        W31909   2.015  15.881  13.630 -0.1247  0.0325  0.3064
13706W        W31910  12.566  14.461  13.739  0.0068 -0.2482  0.1808
13707W        W31911   5.914   4.317  14.730  0.1353 -0.4121  0.1665
13708W        W31912  11.377  11.178   1.472  0.0563  0.1012  0.1576
13709W        W31913   1.188  12.357   5.160 -0.1935  0.2633 -0.0418
13710W        W31914   2.653   5.578  14.796  0.0728  0.3012  0.0062
13711W        W31915   0.398   8.621  12.528 -0.0866 -0.0058  0.0234
13712W        W31916  12.555  12.307   4.246  0.3640 -0.1818 -0.1228
13713W        W31917  14.840   6.823  16.540  0.1772 -0.2189  0.0615
13714W        W31918   4.592   7.873   1.857  0.2082  0.3738  0.1899
13715W        W31919  15.767   7.786  16.113  0.0086  0.0577  0.0031
13716W        W31920   4.648   1.436   4.293 -0.2252 -0.1189 -0.1408
13717W        W31921  14.598   7.522  13.884  0.1440  0.1794  0.0561
13718W        W31922   2.643   5.957  16.216 -0.0187 -0.1314  0.4147
13719W        W31923  10.550  16.308  14.597 -0.2434  0.0347  0.0392
13720W        W31924  10.852   6.166  12.900 -0.0836 -0.0909 -0.0439
13721W        W31925  13.953   6.464  15.540  0.0541  0.0682  0.0217
13722W        W31926  12.989  16.779  14.378  0.1050  0.2805  0.0313
13723W        W31927   8.008   8.545   3.978  0.2270  0.0383 -0.1519
13724W        W31928  14.528   5.960   3.280 -0.2016  0.0720 -0.0246
13725W        W31929   8.751  13.492   3.489  0.1042 -0.1185 -0.2350
13726W        W31930  14.549   7.136   1.060  0.2260  0.0528 -0.2227
13727W        W31931   7.690   3.449   5.083 -0.0608  0.0803 -0.1840
13728W        W31932   8.476  15.300   3.789  0.3062  0.3605 -0.3354
13729W        W31933  12.309  10.911   4.226  0.0378 -0.1742 -0.0129
13730W        W31934   7.746   3.810  16.196 -0.2778 -0.2503  0.1221
13731W        W31935   8.880   3.273  17.178  0.1542 -0.0696 -0.1705
13732W        W31936   3.360  10.934   3.963  0.1731 -0.1634 -0.1540
13733W        W31937   2.900  16.344  13.691  0.2105 -0.1557 -0.0593
13734W        W31938   1.921   0.504   4.265 -0.4045 -0.1793  0.0530
13735W        W31939  12.912   8.703  15.894  0.2560  0.0778 -0.1226
13736W        W31940  16.491   7.139  14.253  0.0527  0.1631 -0.0145
13737W        W31941   9.750  11.374   2.783 -0.1782  0.0025 -0.1553
13738W        W31942   6.163   3.927  12.131  0.0942 -0.0138 -0.3105
13739W        W31943   3.122   2.811  15.820  0.0877  0.1010  0.3182
13740W        W31944  11.703  11.558   1.491 -0.1580 -0.0578  0.0678
13741W        W31945  11.347  12.702   4.974  0.0314  0.2325 -0.2351
13742W        W31946   9.975  14.541   4.830  0.2803  0.0280 -0.0450
13743W        W31947   8.271  14.700   5.462  0.0806 -0.0113  0.0343
13744W        W31948  13.677  10.013   1.391 -0.0752  0.2850 -0.2413
13745W        W31949  10.270   9.145  14.079 -0.0059  0.0611 -0.2544
13746W        W31950  17.168  12.408   0.763 -0.1815  0.5463  0.1848
13747W        W31951   2.488   7.667  15.284 -0.0758  0.1157 -0.0155
13748W        W31952   6.110   1.951   3.788  0.4141 -0.0015  0.1297
13749W        W31953  15.206  12.148  13.776  0.2982 -0.0367 -0.0298
13750W        W31954   8.565   6.636  17.278  0.4402 -0.4621 -0.2959
13751W        W31955   3.218   9.900  11.041 -0.1928 -0.2684  0.1388
13752W        W31956  10.299   5.232   1.328 -0.2905 -0.1853 -0.0246
13753W        W31957   7.171   2.065  12.438 -0.3892 -0.4257  0.1113
13754W        W31958   9.556  11.143  14.447  0.0504  0.0246  0.2229
13755W        W31959   6.295   3.753   2.493  0.0562  0.1588  0.1339
13756W        W31960  14.913  17.313  13.831  0.0327 -0.0137 -0.0300
13757W        W31961  12.066   2.733   2.256 -0.1580 -0.0011 -0.3133
13758W        W31962   0.154   6.622   2.597  0.3688 -0.1357  0.0368
13759W        W31963   6.484  15.340  16.770 -0.0070  0.0260 -0.2465
13760W        W31964   4.268   8.968  13.143 -0.2147  0.1140  0.0637
13761W        W31965  15.096  15.563   3.643 -0.1502  0.0284 -0.2104
13762W        W31966   6.612   8.715  12.766 -0.2180 -0.0370 -0.2329
13763W        W31967   9.530  14.580   5.029 -0.1665 -0.2537 -0.1268
13764W        W31968   4.376   7.504   0.291 -0.0777  0.3104 -0.0248
13765W        W31969  15.146   6.124  16.904  0.0714  0.0909 -0.1514
13766W        W31970  10.967  10.802   2.570 -0.0571 -0.2530 -0.0422
13767W        W31971   6.119   3.186   1.173  0.1147 -0.3376  0.2221
13768W        W31972  13.424  15.397   2.996 -0.0297  0.0595  0.0733
13769W        W31973  17.378  13.089  12.537  0.2961  0.0863  0.1593
13770W        W31974   6.537  16.356  12.876 -0.2305 -0.2196  0.0955
13771W        W31975   1.139  15.628   0.625  0.2413  0.0827  0.0384
13772W        W31976   4.899  10.632   0.479  0.0515  0.0521  0.2377
13773W        W31977  16.144  10.750   0.742  0.1859 -0.2031 -0.0380
13774W        W31978   6.897   6.515  16.838 -0.2370 -0.0609  0.0210
13775W        W31979  16.267   4.817  15.149  0.1857  0.1053 -0.1323
13776W        W31980   0.480  17.037   0.628 -0.1721 -0.0086 -0.2993
13777W        W31981   1.930   7.271  16.789 -0.0153 -0.0448 -0.0222
13778W        W31982   1.345  15.621  16.188  0.0482 -0.1323 -0.1266
13779W        W31983  11.200   1.974   1.833  0.3312  0.0260 -0.0703
13780W        W31984   1.919  15.701  14.095  0.1246 -0.1419  0.0887
13781W        W31985  13.015   9.187  11.979  0.0643 -0.0848 -0.0722
13782W        W31986   2.089  12.186   5.123  0.1642 -0.0134  0.0127
13783W        W31987  16.954  11.577   4.090  0.0864 -0.6140  0.0067
13784W        W31988  14.367  15.856  13.882 -0.1293  0.2254  0.0045
13785W        W31989  16.936   8.438   2.976  0.0500  0.1345 -0.0271
13786W        W31990   1.089   7.700  15.932 -0.0555  0.0464 -0.1944
13787W        W31991   9.991  11.700  17.131 -0.1735 -0.1535  0.0381
13788W        W31992   4.605   4.827   3.558  0.1014 -0.1109 -0.0977
13789W        W31993   0.368  13.711   4.123 -0.0211 -0.1340 -0.2324
13790W        W31994   9.937   2.574   4.087 -0.2364  0.2117  0.2522
13791W        W31995   1.550   8.898  14.065  0.2848  0.0247  0.0821
13792W        W31996   3.369  15.407   2.450 -0.4017 -0.2121 -0.1156
13793W        W31997   3.011   6.495   4.729 -0.1667 -0.0603  0.0875
13794W        W31998   5.728   9.542  13.760 -0.0279 -0.2348  0.0722
13795W        W31999  12.172  12.467   3.987  0.4814 -0.0075  0.0300
13796W        W32000  12.058  10.997   0.651  0.0986  0.3216  0.1899
13797W        W32001  10.189   8.784   1.133 -0.1189 -0.0172  0.0326
13798W        W32002   7.185  15.220   1.154  0.2826 -0.0354 -0.0215
13799W        W32003   4.828  14.418  12.369  0.0290  0.1316 -0.0107
13800W        W32004   2.777   9.234   2.353  0.1936 -0.0643 -0.0752
13801W        W32005  16.322   0.837  13.417  0.0593  0.0250 -0.2877
13802W        W32006   2.128  12.643   3.585  0.0640 -0.1930  0.1290
13803W        W32007  16.424   4.431  13.336 -0.1037 -0.0776 -0.3099
13804W        W32008  14.795   4.651  13.187  0.3481 -0.0897 -0.2648
13805W        W32009   0.688  16.718  14.075 -0.0853  0.0704  0.2620
13806W        W32010   0.987  14.577  13.592 -0.0566 -0.0697 -0.2847
13807W        W32011  12.885  12.120  14.336 -0.1816 -0.3569 -0.0434
13808W        W32012  15.391  12.647   0.718  0.0234  0.0558  0.3372
13809W        W32013  16.746   3.745  12.630 -0.3004 -0.2186 -0.0525
13810W        W32014   5.311   5.305   4.783  0.3320  0.0918  0.0008
13811W        W32015   2.750   0.741  13.576 -0.1623 -0.1785 -0.1139
13812W        W32016  11.818   7.267  13.586 -0.3277  0.0054 -0.0802
13813W        W32017   0.444   3.536  12.501  0.0377 -0.1904  0.0740
13814W        W32018  13.045   3.058  12.383  0.0880  0.0420 -0.1334
13815W        W32019   2.983   1.080  16.094  0.0871  0.3769 -0.1274
13816W        W32020  16.259   6.590   0.251  0.1068 -0.2223 -0.1313
13817W        W32021   0.269   9.594   3.442 -0.1072  0.1291 -0.1498
13818W        W32022   1.607   4.521   5.148  0.0778  0.1248 -0.2450
13819W        W32023   6.308  16.980   0.099  0.2039 -0.2156  0.0037
13820W        W32024  14.638  14.666   4.052 -0.0654 -0.0190  0.1183
13821W        W32025   6.828   1.337   0.123  0.1274  0.0174 -0.0909
13822W        W32026  14.026  15.725   3.078  0.1508  0.3400 -0.1009
13823W        W32027   2.116  10.571   2.440 -0.0801  0.2152  0.2694
13824W        W32028   8.691  16.996  12.257  0.0817  0.1812 -0.1981
13825W        W32029  14.838  10.226  12.710  0.1135  0.2285  0.1614
13826W        W32030   5.735   5.675  13.195  0.2294  0.3508 -0.2704
13827W        W32031   4.633   7.258   1.042  0.0316 -0.1026  0.0645
13828W        W32032   3.010  10.615  11.388  0.4150  0.0302  0.0824
13829W        W32033   5.711   1.680   2.349 -0.2156 -0.0008  0.0724
13830W        W32034   3.145  14.290  12.590 -0.1795 -0.0304  0.0169
13831W        W32035  11.915   5.217  16.379  0.1005  0.1983  0.0187
13832W        W32036  16.549   6.581  15.386 -0.1182  0.0243  0.0062
13833W        W32037  12.940  14.786   0.677 -0.0214  0.0014  0.1168
13834W        W32038  13.730  11.873   1.332 -0.1744  0.3014  0.4305
13835W        W32039   1.390  13.571   3.433  0.0040 -0.0794  0.1210
13836W        W32040   3.744   5.727   4.900 -0.0202  0.3473 -0.0705
13837W        W32041   5.461  12.967  16.324 -0.3349  0.2145 -0.1780
13838W        W32042   1.373   7.980   3.195 -0.0593 -0.1813  0.2430
13839W        W32043   9.816   4.477  15.992  0.1147  0.4343  0.2254
13840W        W32044   9.709  14.747  10.898 -0.1123 -0.0642 -0.1150
13841W        W32045   6.036   8.094   3.632 -0.0665 -0.0221  0.3297
13842W        W32046   3.265  13.281   4.084  0.0842 -0.1771 -0.0207
13843W        W32047  12.775   0.835  15.151  0.1187  0.1336  0.1819
13844W        W32048   8.448   0.090   2.146 -0.1662  0.1446  0.1931
13845W        W32049  10.114   1.366   3.107 -0.2020  0.0744 -0.0149
13846W        W32050  16.915   7.859  15.428  0.1376  0.2109 -0.2685
13847W        W32051   1.171   3.387  12.655 -0.1860 -0.3674 -0.1449
13848W        W32052   0.875   1.063  12.247  0.3420 -0.0584  0.0951
13849W        W32053  16.800   8.595  12.407  0.2931  0.0235  0.3314
13850W        W32054   4.110  17.155  16.466 -0.1918 -0.0123  0.2103
13851W        W32055   3.707   1.647   1.585  0.1890 -0.0079 -0.4013
13852W        W32056  11.954  11.041   2.154 -0.3715 -0.0008 -0.2992
13853W        W32057   9.530   1.975  13.916  0.0492  0.4125 -0.1764
13854W        W32058   4.612  10.460   4.600 -0.0600  0.0959 -0.2264
13855W        W32059   2.241   2.131   2.658 -0.4417  0.1090  0.3692
13856W        W32060   5.833  11.289  17.265 -0.4332 -0.3119 -0.0820
13857W        W32061   1.504   9.983   0.184 -0.2233  0.3242  0.1292
13858W        W32062  15.665  15.210  12.035  0.0450  0.0229  0.1368
13859W        W32063   2.008   5.806   0.907  0.1049 -0.0409 -0.0715
13860W        W32064   7.626   7.800   1.403  0.1254  0.2147 -0.2153
13861W        W32065   1.608   9.640   1.543  0.3204 -0.1961 -0.1700
13862W        W32066  14.868  14.290  13.431 -0.0928 -0.3833  0.3714
13863W        W32067   1.418  16.870  12.630 -0.2390  0.0182  0.0850
13864W        W32068   3.478  13.665   5.367  0.0869  0.0607  0.0124
13865W        W32069  10.243  10.427  17.013 -0.1717 -0.1855 -0.1169
13866W        W32070  11.131   8.946   0.995 -0.0152  0.0521  0.1812
13867W        W32071  17.024   2.383   1.242  0.2247  0.3875 -0.1342
13868W        W32072   1.972  16.670  15.251 -0.4035 -0.0904  0.1210
13869W        W32073   9.292  11.510   3.466 -0.0057  0.2148 -0.2139
13870W        W32074   5.828  13.511   3.011  0.0918 -0.4135  0.2339
13871W        W32075   6.063  15.567  17.264 -0.1017  0.0507  0.1276
13872W        W32076   3.481  10.970  16.751 -0.0012  0.2940 -0.2186
13873W        W32077   5.783   0.018   4.263  0.0996 -0.1604  0.1081
13874W        W32078   7.865  11.174   0.900 -0.0250 -0.0829  0.1059
13875W        W32079   8.580   1.295   2.223  0.0153  0.1395  0.1498
13876W        W32080  13.091  15.921  15.978  0.3022  0.1259 -0.1051
13877W        W32081  14.432  16.543   3.805 -0.1382 -0.1423  0.2028
13878W        W32082  16.941  10.205  12.758  0.1724  0.1685 -0.1516
13879W        W32083  15.016   0.010   1.544 -0.1179  0.2716  0.1418
13880W        W32084   8.049  12.725  13.461  0.1956 -0.3023 -0.0580
13881W        W32085   3.975  13.834   0.653  0.4352  0.2446  0.4043
13882W        W32086   3.861   4.957   0.161 -0.1028 -0.2013  0.0036
13883W        W32087   4.639   5.999   4.511 -0.0113 -0.1947 -0.1519
13884W        W32088  11.876   5.826  16.003 -0.2601 -0.1184 -0.0898
13885W        W32089   1.013  14.090  14.929  0.0339  0.0755 -0.0510
13886W        W32090  15.298  15.450  17.073 -0.0019  0.0125 -0.0922
13887W        W32091   1.654  13.549  12.869 -0.2928 -0.1311 -0.1103
13888W        W32092  16.074   5.756  13.436  0.0117  0.1614 -0.0744
13889W        W32093   1.134   4.753  12.997 -0.5234  0.1673  0.0771
13890W        W32094   9.513  12.268  12.532 -0.3634 -0.0158 -0.0925
13891W        W32095  16.838   0.754  13.285  0.0726  0.2555 -0.0143
13892W        W32096  15.672  17.545  16.549 -0.2025  0.2483  0.2164
13893W        W32097  13.610  14.619   3.824  0.3368 -0.0040  0.0007
13894W        W32098   6.639  12.683   3.430  0.1741 -0.1092 -0.0861
13895W        W32099   8.810  10.081   2.014  0.2816  0.1959  0.1183
13896W        W32100  12.743   3.919  13.060 -0.1885  0.2655 -0.1038
13897W        W32101  17.390  10.314   1.065  0.1247 -0.0027 -0.0584
13898W        W32102  12.458   2.646  17.217 -0.2960 -0.5006 -0.1093
13899W        W32103   8.390   9.840   0.160 -0.0158 -0.2908 -0.1985
13900W        W32104  16.116   2.251   1.072  0.1238 -0.1779  0.1276
13901W        W32105   5.607   8.799  15.014 -0.0190  0.2593 -0.1534
13902W        W32106   4.187   9.386   2.203  0.1453  0.1694 -0.1743
13903W        W32107   7.844  12.319  14.989  0.0390 -0.0605  0.0151
13904W        W32108   2.742  16.887  14.162  0.0793 -0.1499 -0.1403
13905W        W32109  12.641  17.533  14.097  0.1670  0.2662  0.1972
13906W        W32110   0.482  14.745   1.605 -0.3071  0.3014  0.3085
13907W        W32111  12.507  12.018  12.844  0.0518 -0.2443 -0.1821
13908W        W32112   9.527  15.775   1.327  0.1767  0.2748  0.0216
13909W        W32113   3.652   4.549  15.701 -0.0870 -0.4151  0.2854
13910W        W32114  16.562  16.797  13.437  0.1716 -0.1158 -0.0538
13911W        W32115   3.827  17.545   1.311  0.3994 -0.2564 -0.1642
13912W        W32116  14.693   2.830   4.507 -0.2322 -0.0925 -0.3397
13913W        W32117  16.640   5.219   0.805 -0.1021 -0.2026 -0.1125
13914W        W32118   4.405   0.216   2.491 -0.2621 -0.2216 -0.1850
13915W        W32119   3.415  11.135  13.357 -0.1367  0.0977 -0.3167
13916W        W32120   8.158   8.464  16.878 -0.2377 -0.1865 -0.1267
13917W        W32121  13.100  16.569  17.200 -0.0001 -0.2729  0.4380
13918W        W32122   1.512  13.526  15.656 -0.3136  0.1885  0.0149
13919W        W32123   5.840   4.953  15.587  0.0193 -0.1399  0.2444
13920W        W32124   0.714   7.590  16.496 -0.0785  0.0398  0.1325
13921W        W32125   5.264   7.882  15.987 -0.5231 -0.1889  0.0941
13922W        W32126  11.685   7.615  16.288  0.1065 -0.0946 -0.0201
13923W        W32127   6.058   4.312  12.956 -0.1910  0.0606 -0.1431
13924W        W32128  13.632   4.594   2.506  0.2508  0.1330 -0.3220
13925W        W32129   2.283  12.494  16.335  0.1238 -0.1185 -0.0965
13926W        W32130  14.209  14.958  15.468 -0.2212  0.2961  0.1397
13927W        W32131  16.873  15.100   5.474  0.0231  0.2397  0.3185
13928W        W32132   1.998  12.596   0.558 -0.1729 -0.3788 -0.1536
13929W        W32133   9.762  16.944  13.677 -0.2301  0.1605  0.0851
13930W        W32134  10.117  15.301   5.577  0.0567 -0.1316 -0.0715
13931W        W32135   4.654   6.675   0.607  0.0750  0.0614  0.0359
13932W        W32136   7.775   9.575  16.580  0.4144 -0.0593  0.0371
13933W        W32137   5.298  15.902   4.386 -0.0869 -0.3238 -0.0399
13934W        W32138  13.267  15.812   5.305 -0.0650 -0.0791 -0.1515
13935W        W32139  16.686  11.666   2.846  0.3304  0.3068 -0.0823
13936W        W32140   6.051   5.361  14.550  0.0122  0.1327  0.1276
13937W        W32141   0.768   3.213  12.343 -0.2662 -0.3146 -0.0429
13938W        W32142   7.869   8.326   0.021 -0.0900  0.2776  0.2070
13939W        W32143  16.514  10.535   3.611  0.1283  0.2244  0.1787
13940W        W32144  14.957   9.734  12.726 -0.1122  0.1360  0.0032
13941W        W32145  13.283  15.570   3.477 -0.1177 -0.1619 -0.2574
13942W        W32146   9.288   7.384  15.332  0.2227 -0.0320 -0.0976
13943W        W32147  14.853  11.370   1.798 -0.1337 -0.2027 -0.1773
13944W        W32148   2.883  11.461  16.885  0.1661  0.0091  0.2863
13945W        W32149  17.421  16.766   4.103  0.2198  0.1220  0.0251
13946W        W32150  14.305   1.904   0.728  0.2005 -0.1683 -0.1807
13947W        W32151   0.506   5.370   3.660  0.0782 -0.0577  0.1957
13948W        W32152   1.616   6.762  13.124 -0.2285  0.2506  0.1792
13949W        W32153  12.225   7.105   4.725 -0.3240 -0.0712  0.2682
13950W        W32154  14.670   0.483   5.777  0.1414  0.0956 -0.0643
13951W        W32155   2.216   0.732   3.446 -0.0064 -0.0800  0.2201
13952W        W32156  11.947  15.157   0.582  0.1848 -0.2100  0.1822
13953W        W32157   3.478   8.216  16.147 -0.0337 -0.1315  0.2849
13954W        W32158   5.137  11.654   0.918  0.0851  0.1253  0.0252
13955W        W32159   1.257   1.173  15.825 -0.0396 -0.2878  0.1823
13956W        W32160  14.850  15.394  16.193  0.0340  0.4458 -0.0868
13957W        W32161   8.464   0.245  14.209 -0.1169  0.1278 -0.0306
13958W        W32162   3.434   0.266   1.887  0.2706 -0.1255 -0.2081
13959W        W32163  15.443   9.249   1.071  0.1410 -0.0219  0.0148
13960W        W32164   3.382  12.447  12.703 -0.0246  0.1341 -0.0879
13961W        W32165   4.672   1.674   3.460  0.1417  0.1885  0.1568
13962W        W32166   7.258  12.920  13.253  0.0627 -0.0262  0.1530
13963W        W32167  12.201  10.013  16.907 -0.4131 -0.0292  0.0217
13964W        W32168   4.643  11.431  12.618 -0.0120 -0.0477 -0.0565
13965W        W32169  11.215  11.236  13.890  0.0449  0.0544 -0.1044
13966W        W32170   7.989   7.973  14.222 -0.0067  0.4843  0.1221
13967W        W32171   8.230   3.804   4.684 -0.3959  0.1016 -0.0390
13968W        W32172   2.916  10.259   2.055  0.0172  0.3318  0.2755
13969W        W32173  12.950  12.712  14.543  0.0920  0.0710  0.0674
13970W        W32174   5.796   3.924   4.826 -0.1327  0.1130  0.0569
13971W        W32175  15.358   6.854  13.595 -0.0982  0.2010  0.1358
13972W        W32176   7.918  12.426   5.457  0.1185  0.2061  0.0560
13973W        W32177   6.544  14.034   4.673  0.2255 -0.4696  0.0303
13974W        W32178   0.545   0.709  15.638  0.2711  0.0201 -0.1263
13975W        W32179  13.178  17.072   2.284  0.3430 -0.0172  0.1407
13976W        W32180  15.997   7.215   2.138  0.0878 -0.2137  0.0805
13977W        W32181   7.172   3.591  14.140  0.0552 -0.0861  0.0410
13978W        W32182  16.781  12.915   2.955  0.0128  0.0991  0.3823
13979W        W32183  13.599   2.613   3.018 -0.1656  0.1500 -0.0320
13980W        W32184   1.915   9.496  15.907 -0.0307 -0.3140 -0.0653
13981W        W32185   4.024   0.114   1.773  0.1201  0.4041 -0.0444
13982W        W32186  13.448   3.399   4.510  0.0773 -0.1636 -0.4142
13983W        W32187  17.426  15.816  15.970 -0.1279 -0.0298  0.1536
13984W        W32188   8.925   9.710   2.415 -0.0254 -0.2685  0.2633
13985W        W32189  14.020   7.236   4.918  0.3423  0.0901  0.3332
13986W        W32190  10.426   6.223  14.790 -0.2483 -0.0351 -0.3446
13987W        W32191  17.154  12.957  16.899  0.3704  0.0777  0.0139
13988W        W32192   0.081  15.771  16.650  0.0946  0.0971 -0.3626
13989W        W32193   5.355   0.241   3.574  0.0702 -0.0925  0.0389
13990W        W32194   3.866   9.531   4.337  0.0716  0.1608  0.0775
13991W        W32195  14.071  17.041   0.258  0.0065  0.1467  0.0907
13992W        W32196   6.620  13.525  15.521  0.0511 -0.3184  0.0945
13993W        W32197   4.419  14.974   5.353  0.1266 -0.2526 -0.1934
13994W        W32198  15.241  14.133  14.331  0.3044  0.1594 -0.2475
13995W        W32199  13.595   8.502  15.814 -0.3829 -0.1793 -0.1815
13996W        W32200  15.901   8.336   2.504  0.0090  0.1200  0.2094
13997W        W32201   0.898   0.521   2.846 -0.4315  0.0351 -0.0848
13998W        W32202  11.600  12.393   4.618 -0.1203 -0.2231  0.0329
13999W        W32203  13.681  16.541  14.308 -0.0405  0.3062  0.0389
14000W        W32204   5.387  13.499   1.194  0.1405 -0.1865 -0.6141
14001W        W32205   5.195  13.953   1.200  0.1295  0.0098 -0.0223
14002W        W32206   6.737  14.361   4.225  0.1655 -0.1976  0.1565
14003W        W32207   3.403   4.163   0.838  0.1993 -0.0246  0.3787
14004W        W32208  11.824   5.970  14.319 -0.0238  0.1308 -0.0985
14005W        W32209   3.695   9.552   4.948 -0.5412 -0.0741  0.0620
14006W        W32210   8.630  11.871  12.755  0.0720  0.0088 -0.1809
14007W        W32211   2.414   8.854  12.202  0.2914 -0.1153 -0.1064
14008W        W32212   0.771  14.266  14.458 -0.1458 -0.0651  0.2234
14009W        W32213  14.278   2.601   2.023  0.2294  0.1102 -0.2094
14010W        W32214  14.359   3.112  15.615  0.2581  0.1260  0.3110
14011W        W32215  12.734   1.094  16.071 -0.0110 -0.2426 -0.2076
14012W        W32216   2.812   0.044  15.825  0.3768  0.0761  0.0486
14013W        W32217  16.661   8.824   4.976  0.0214 -0.3762 -0.3801
14014W        W32218  12.235   8.676  12.909 -0.1092  0.0375  0.0834
14015W        W32219  12.908  12.611   4.448 -0.1247  0.3728  0.3832
14016W        W32220   0.272  12.247  12.467 -0.2341  0.1640  0.0424
14017W        W32221  13.808   3.180   1.681  0.2154  0.0163  0.0617
14018W        W32222   8.587  13.536  11.833 -0.0890 -0.1210  0.0332
14019W        W32223   6.692  15.435  14.683  0.1406 -0.0210 -0.0874
14020W        W32224   8.854  10.149  15.988 -0.0217 -0.0249  0.2231
14021W        W32225  11.516   8.530  14.237  0.0864  0.2340  0.3077
14022W        W32226   8.647  17.251   1.214  0.3809 -0.0517  0.0627
14023W        W32227  17.184  14.111  12.688  0.0417 -0.0994 -0.1771
14024W        W32228  14.090  15.960   5.732  0.0635  0.2469 -0.1726
14025W        W32229  14.206   4.056   4.116  0.0760  0.1773  0.1529
14026W        W32230  14.588   9.690  13.266 -0.1881 -0.1862  0.0682
14027W        W32231  11.767   8.151   4.240 -0.0338  0.1299  0.1831
14028W        W32232   8.931   3.859  17.166 -0.2667 -0.5172  0.0021
14029W        W32233  13.633   7.154   3.688 -0.0473 -0.0391 -0.1362
14030W        W32234   3.530   1.864  16.559  0.1663 -0.0539 -0.0778
14031W        W32235  14.774  12.427  13.863 -0.0278  0.2849 -0.1997
14032W        W32236   5.150   9.485   0.944  0.0011  0.0640 -0.2699
14033W        W32237   1.471   9.219   0.777 -0.0948  0.1063 -0.1357
14034W        W32238   5.042  16.413   1.797  0.1353 -0.1200  0.0696
14035W        W32239  13.068   9.543  13.176 -0.1119  0.1369 -0.1959
14036W        W32240  15.314   6.983  15.717 -0.0154  0.0917  0.1004
14037W        W32241  11.069  14.207   2.072  0.1435 -0.0774  0.0099
14038W        W32242   5.971  11.809   0.699 -0.1913  0.3205  0.3789
14039W        W32243   6.761   4.994   0.556  0.0795  0.0151  0.0137
14040W        W32244  13.270  14.647  15.443 -0.4328  0.0558  0.1164
14041W        W32245   7.369   7.432   4.244 -0.1274  0.0231 -0.0329
14042W        W32246  16.903   8.302  13.232 -0.2916 -0.0108 -0.1070
14043W        W32247   6.816   4.771  13.570 -0.1652  0.1638  0.0086
14044W        W32248  17.177  16.464  13.056  0.1205  0.0954 -0.0978
14045W        W32249  13.760  12.074   2.510 -0.2455  0.0012  0.0099
14046W        W32250   2.869  13.428  14.119 -0.0260  0.1865  0.0812
14047W        W32251  14.996   5.041  13.822  0.0420  0.3280 -0.1543
14048W        W32252  10.641  10.283  16.742  0.0805 -0.0902  0.0698
14049W        W32253   6.365   0.806   1.372 -0.1371  0.1543 -0.1286
14050W        W32254  14.932  15.497   5.824 -0.0052  0.0677  0.2314
14051W        W32255   5.985  16.548   1.563 -0.0010 -0.0730 -0.0178
14052W        W32256  16.913  10.294   3.834  0.0864 -0.0365  0.2054
14053W        W32257  16.321  11.886  15.878 -0.2780  0.0568 -0.2770
14054W        W32258  10.553  12.232   4.758  0.2983 -0.1189 -0.1365
14055W        W32259   4.869   8.386   2.670  0.2933  0.1544  0.0079
14056W        W32260   8.468  10.087   4.102  0.1836 -0.2928 -0.0607
14057W        W32261  11.515   2.221  17.061 -0.1182 -0.2531 -0.2014
14058W        W32262  15.184  15.991   1.988  0.2130 -0.0134 -0.0612
14059W        W32263   1.456   3.363   4.396  0.1838  0.1121  0.0912
14060W        W32264   2.068  15.241  15.031  0.0921 -0.0685  0.1120
14061W        W32265  17.126   4.616  13.345  0.0276 -0.5193 -0.0327
14062W        W32266   0.965   8.510   0.830  0.1593 -0.0364 -0.1116
14063W        W32267  13.327  13.782  13.110  0.2672 -0.1106  0.0501
14064W        W32268  10.269   8.840  13.629 -0.2326 -0.0352  0.1900
14065W        W32269  15.285   6.400   4.810  0.1830 -0.1513  0.2826
14066W        W32270   3.140   8.054  14.160 -0.1173  0.0689 -0.1184
14067W        W32271   6.242   8.919   4.561 -0.1585 -0.0558  0.0918
14068W        W32272   9.106   7.451  14.300  0.1490  0.2209  0.1804
14069W        W32273  16.058  12.423  14.986 -0.0130 -0.0406 -0.1552
14070W        W32274   5.977   5.201  13.418  0.0779 -0.0886  0.3050
14071W        W32275  14.886   9.563   0.127 -0.1069  0.0674 -0.0226
14072W        W32276   4.297   0.617   3.532 -0.2143 -0.2842 -0.1288
14073W        W32277   3.080   2.753  13.028  0.0925  0.2096  0.0003
14074W        W32278   7.083   5.819  16.397  0.0256  0.0859  0.0698
14075W        W32279   3.494  12.333   4.173  0.1351 -0.1603  0.0898
14076W        W32280   4.153  15.099  16.867 -0.1798  0.1348  0.1619
14077W        W32281   4.525  14.807  12.288 -0.0233  0.0402 -0.3576
14078W        W32282  16.233  15.374  14.089  0.2815  0.1272 -0.0474
14079W        W32283  16.217   2.392  14.507 -0.0043 -0.0484 -0.3066
14080W        W32284  16.541  15.678  13.219 -0.1204 -0.0844 -0.3277
14081W        W32285   0.732   5.828   1.066  0.0163 -0.1348  0.0974
14082W        W32286   3.367   2.868   4.473 -0.1203 -0.1015 -0.0847
14083W        W32287   0.200   6.446   3.068 -0.0237 -0.5649 -0.1580
14084W        W32288  13.865   4.217  17.081 -0.1389  0.2065  0.0759
14085W        W32289   5.664  12.031   3.159  0.1178  0.0444  0.1490
14086W        W32290  11.652  11.850   0.489 -0.0910  0.0950  0.2237
14087W        W32291  13.972  11.687  16.789  0.2353 -0.0260  0.3051
14088W        W32292  14.549   1.011  14.940  0.1341 -0.1689  0.3286
14089W        W32293   7.424   3.063   3.157 -0.0057 -0.1656 -0.3654
14090W        W32294   4.928   8.841  15.376  0.1583  0.3155 -0.3600
14091W        W32295  11.237  13.724   1.794 -0.0897  0.0062 -0.0059
14092W        W32296   6.846  12.030   1.606  0.2674  0.0813  0.1258
14093W        W32297   5.814   8.335   2.688  0.1567  0.0749  0.0781
14094W        W32298  12.329   7.558  15.745  0.4668 -0.1214 -0.1055
14095W        W32299  14.615   2.845  15.959  0.0156  0.2701  0.0743
14096W        W32300   3.579  16.763  12.694  0.2017  0.1162 -0.1597
14097W        W32301  11.454  11.273  12.142 -0.0285  0.0705  0.1538
14098W        W32302   7.613   7.078  15.999  0.3698  0.0676 -0.2100
14099W        W32303  16.693   7.635  12.712  0.1271 -0.0765  0.0498
14100W        W32304  15.079  10.589  12.415  0.0114 -0.0600 -0.2509
14101W        W32305   3.158   7.395  11.993  0.1787 -0.0692  0.1073
14102W        W32306  12.775  10.551   2.979  0.0626 -0.2290  0.0075
14103W        W32307  11.266  14.738   1.860  0.0985 -0.2923  0.1176
14104W        W32308   0.485   1.808  11.398  0.3750 -0.2875 -0.0924
14105W        W32309  12.011   0.526   0.687  0.0136  0.2528  0.1700
14106W        W32310   0.523  10.089   5.330  0.3029 -0.0196 -0.3073
14107W        W32311   3.095  12.330  15.146 -0.2497 -0.1736 -0.1140
14108W        W32312   9.937  13.822  13.673  0.2064 -0.0051  0.1834
14109W        W32313   4.675  11.713  13.106  0.1334 -0.0985  0.0481
14110W        W32314   6.195  10.191  16.936 -0.1690 -0.5031 -0.0920
14111W        W32315  15.358   7.576  16.457 -0.1984 -0.2747 -0.3254
14112W        W32316   9.795   5.147   0.645  0.1031  0.0967  0.2374
14113W        W32317  12.625  10.528  16.321  0.1298  0.0491 -0.1787
14114W        W32318   2.008   6.619   2.463  0.0416 -0.0745  0.1426
14115W        W32319  16.491  17.158  12.423 -0.1873 -0.0296  0.1898
14116W        W32320   0.482   7.869  12.342 -0.0192  0.0992  0.1161
14117W        W32321   6.061  17.241  14.213 -0.2938  0.0512  0.1059
14118W        W32322  14.147   0.363  13.814  0.1475  0.3202  0.1298
14119W        W32323  17.437   5.445  15.321 -0.3231 -0.0039 -0.2197
14120W        W32324  14.671   6.637   0.795  0.0509  0.1101 -0.0594
14121W        W32325   1.526   2.384   1.569  0.2951 -0.0411 -0.2078
14122W        W32326  12.808  15.738   5.461  0.1161  0.5835  0.0430
14123W        W32327   6.250   6.893   5.269  0.1274  0.0114  0.0299
14124W        W32328  14.275   6.370  17.180  0.2039 -0.1948 -0.0798
14125W        W32329   2.717  14.927   3.501  0.1648 -0.1929 -0.1549
14126W        W32330  10.894   6.785   3.037  0.0659 -0.0467 -0.1244
14127W        W32331   3.943  10.029   3.467  0.2995  0.0929 -0.1131
14128W        W32332  12.543  11.782  13.260 -0.0326 -0.0787  0.0355
14129W        W32333   8.339   7.268  12.755  0.0017  0.2270  0.0479
14130W        W32334  12.949   3.766  16.753  0.1270  0.0213 -0.2237
14131W        W32335  10.930   3.841   0.742 -0.1090 -0.0010 -0.1222
14132W        W32336  11.404  11.913   2.701 -0.0370  0.0576 -0.1912
14133W        W32337   6.289  15.393  14.358 -0.2290  0.2619 -0.2102
14134W        W32338  16.183   6.341  17.091  0.1568 -0.0827  0.1822
14135W        W32339   9.904   1.585   4.683  0.0120 -0.2522  0.1378
14136W        W32340   0.130  13.225  11.758  0.0326 -0.1601 -0.2596
14137W        W32341   2.658  12.617  14.006 -0.1888  0.3903 -0.0916
14138W        W32342   1.085  10.371  13.450  0.0360 -0.0364 -0.1382
14139W        W32343   6.973  14.597   1.759  0.1527 -0.0949 -0.2992
14140W        W32344   3.554  16.969   3.503  0.2056 -0.0889  0.0461
14141W        W32345  13.392  13.630   3.330  0.0036 -0.0071  0.1021
14142W        W32346   1.834  15.340  12.790 -0.1418 -0.1700  0.2566
14143W        W32347  11.580   9.288  12.919  0.0396 -0.1251  0.0719
14144W        W32348  13.093   7.909   1.515  0.2829 -0.4992  0.1371
14145W        W32349  16.859   0.773   0.021  0.3333  0.1562  0.0369
14146W        W32350   3.213  14.854  16.796  0.0739  0.2073 -0.0227
14147W        W32351  15.085   3.660   1.320 -0.1061  0.0701  0.2729
14148W        W32352   5.031  15.508   2.140 -0.0910  0.0090 -0.1692
14149W        W32353   0.943  12.799  15.150  0.2561 -0.1377 -0.0220
14150W        W32354   2.273   5.830  15.063 -0.2743  0.2919  0.0963
14151W        W32355  11.157  16.116  15.519 -0.1808  0.2541 -0.2074
14152W        W32356  15.262  10.136  11.129  0.0455  0.1759  0.0199
14153W        W32357   8.049  12.633  14.551 -0.0974 -0.2892  0.3848
14154W        W32358   7.808  11.213  14.196 -0.2502 -0.3837 -0.0652
14155W        W32359  10.075   5.691  16.338  0.2754  0.3469  0.0116
14156W        W32360  13.005  16.124   0.692 -0.1022  0.0261  0.2971
14157W        W32361   1.783  15.814  16.426  0.0176  0.3989 -0.1862
14158W        W32362   8.292   3.578   2.635 -0.2959 -0.4208 -0.1669
14159W        W32363  15.401  10.985  14.694 -0.0777  0.0094 -0.1069
14160W        W32364   8.134  10.412  16.462 -0.2011 -0.2288  0.0898
14161W        W32365  12.693   6.272  14.377 -0.1405 -0.0146 -0.2037
14162W        W32366   6.584   4.067   0.553 -0.0924  0.3273  0.0880
14163W        W32367   2.579  15.883   4.765 -0.1253 -0.0739 -0.2001
14164W        W32368   1.010  15.324  15.304  0.2294 -0.5928  0.0334
14165W        W32369  15.934   6.259   2.113  0.2393 -0.1638 -0.0842
14166W        W32370   3.331  15.783   3.907 -0.0417  0.2934  0.2352
14167W        W32371   6.994  10.036  12.480 -0.2660 -0.2877  0.0719
14168W        W32372   2.200   0.514  13.852 -0.3741 -0.1094 -0.1764
14169W        W32373  14.557  10.410  14.818  0.2398  0.2392 -0.1203
14170W        W32374   8.905   0.123  14.533 -0.0253 -0.0132 -0.0761
14171W        W32375  17.030  12.522  14.141  0.4223 -0.2108 -0.1279
14172W        W32376   2.152   0.065   0.738  0.0185  0.1113  0.1395
14173W        W32377   6.951  13.245  13.850 -0.2454  0.1567  0.1709
14174W        W32378   3.575   9.782  11.446 -0.4635 -0.1739  0.0803
14175W        W32379  11.803  17.100  12.326 -0.2597  0.1149 -0.2085
14176W        W32380  16.008  15.862  16.984  0.0425 -0.1383  0.3825
14177W        W32381  13.367   3.822  16.441  0.0126 -0.3012 -0.2364
14178W        W32382   2.022  15.821  15.036  0.0353 -0.0391 -0.2421
14179W        W32383  12.398   3.245   0.748 -0.2331 -0.1842  0.2260
14180W        W32384   9.054  15.267   1.915 -0.0853 -0.0997 -0.1282
14181W        W32385  16.570   7.985  13.024  0.0591 -0.0540 -0.3546
14182W        W32386   1.792   9.512  15.012  0.1748 -0.1857 -0.0833
14183W        W32387  13.299   7.814   5.138 -0.2168  0.0799 -0.8485
14184W        W32388   7.366   5.395   4.942 -0.0043  0.0048  0.1164
14185W        W32389   8.196   5.618   3.272  0.1594 -0.1342  0.1070
14186W        W32390   3.948   1.723  15.794 -0.1068 -0.0377 -0.2068
14187W        W32391  17.277  10.743  13.739  0.2574  0.3490 -0.0404
14188W        W32392   3.371  16.144  15.613  0.3872  0.0097  0.0057
14189W        W32393   4.548   4.408  13.231  0.0655 -0.1752 -0.2158
14190W        W32394   7.237  12.639  15.623 -0.2311  0.0178  0.0395
14191W        W32395   0.546   1.745   0.038  0.0340 -0.1822  0.3243
14192W        W32396   1.085  16.288   0.098  0.2443 -0.1760  0.1590
14193W        W32397   2.235   4.521   4.577 -0.0518  0.1363 -0.1587
14194W        W32398   1.847   8.296   1.576  0.1665  0.1747  0.2176
14195W        W32399   8.893  16.539   3.911  0.0250 -0.0125  0.2107
14196W        W32400  13.418   0.937   0.700 -0.0749 -0.3090  0.3297
14197W        W32401  15.105   0.887   4.725  0.1054  0.4514 -0.0770
14198W        W32402   8.007   7.151  15.704 -0.0973  0.0342 -0.2426
14199W        W32403  12.493   6.636  13.486  0.1226 -0.2775 -0.0744
14200W        W32404   3.476  14.790  11.880  0.0471 -0.3353  0.5578
14201W        W32405   3.203   7.067   4.008 -0.2263 -0.3368 -0.1830
14202W        W32406   5.505  12.830   4.347 -0.2340  0.0807  0.1024
14203W        W32407   4.157   8.197   2.379 -0.0694  0.0706 -0.0185
14204W        W32408   1.106  10.357   3.094  0.2250 -0.0920 -0.1030
14205W        W32409   9.762  16.493   4.727  0.2853  0.0575 -0.1417
14206W        W32410  15.879   5.194   2.953 -0.0134 -0.0544 -0.0247
14207W        W32411  11.993  10.316  13.103  0.0953  0.0526  0.2125
14208W        W32412   8.826  12.969  15.458 -0.1266  0.3245 -0.0245
14209W        W32413  11.055   1.859  13.509  0.0134  0.0926 -0.2258
14210W        W32414   4.366  11.839   2.090  0.5610 -0.2104  0.0329
14211W        W32415  15.226   1.570  16.592 -0.0892 -0.0027 -0.1972
14212W        W32416  14.601  12.786  15.843 -0.0656  0.1273  0.2487
14213W        W32417   1.483   2.083  12.647 -0.1613  0.0504  0.2307
14214W        W32418  10.219   1.526  15.199 -0.1159  0.0184 -0.2364
14215W        W32419   3.132  15.812   4.726  0.0802 -0.0628  0.0379
14216W        W32420  16.940  11.666  17.114 -0.0894 -0.2132 -0.2936
14217W        W32421   0.012  15.652  17.197 -0.3480 -0.1037  0.0139
14218W        W32422   5.369   6.510  12.024 -0.0470  0.0328 -0.3895
14219W        W32423  14.914   8.853  16.180 -0.1714  0.1530  0.0038
14220W        W32424   9.320   9.400   0.247  0.1148  0.0708  0.0417
14221W        W32425   2.553   4.633   0.386 -0.2207  0.0438  0.0714
14222W        W32426  12.920  10.375  14.136  0.2529  0.0065  0.1921
14223W        W32427   2.260   2.210  15.890  0.0066 -0.2665  0.0354
14224W        W32428   9.544   6.462  13.362  0.0569  0.0448 -0.0626
14225W        W32429  14.938   8.745   6.168  0.0665 -0.1916  0.1341
14226W        W32430   1.612   3.907  16.113  0.2309 -0.3148  0.0012
14227W        W32431   5.440   9.426   1.452  0.2343  0.2114 -0.1562
14228W        W32432   8.254  12.606  14.081 -0.2428  0.0914  0.0361
14229W        W32433  15.874   0.496   0.544  0.3838  0.1345  0.0492
14230W        W32434   5.405   3.898  12.883 -0.0723  0.1165  0.0595
14231W        W32435  11.278  13.167  15.084 -0.2929  0.1036  0.0357
14232W        W32436   9.931  16.906  15.160 -0.0147  0.2158  0.1619
14233W        W32437  17.273   1.423   0.988  0.3892 -0.0169 -0.1183
14234W        W32438  12.176  15.785  14.579  0.2144  0.2332  0.2794
14235W        W32439  11.580   3.474  15.654  0.0734  0.0245  0.1873
14236W        W32440   2.743  14.532  14.742  0.2478 -0.0204  0.0199
14237W        W32441   9.247   7.195  14.870 -0.2315  0.1873 -0.0282
14238W        W32442  17.219  12.503   2.526  0.0606 -0.0069  0.3172
14239W        W32443   3.666   3.208  16.502  0.0059 -0.1045  0.3538
14240W        W32444  10.222  14.859  13.452  0.0626 -0.1475 -0.2336
14241W        W32445   4.215   8.683  15.047  0.1646  0.0768  0.0376
14242W        W32446  13.265   9.759  16.204 -0.2228  0.1422  0.0274
14243W        W32447  16.306   5.948  16.159  0.1016 -0.0224 -0.3233
14244W        W32448  16.943   5.744  13.491 -0.1469 -0.5300 -0.0081
14245W        W32449   7.136   8.068  14.288  0.0492  0.1995 -0.0264
14246W        W32450   3.715   8.150  17.014 -0.0296 -0.2224  0.1832
14247W        W32451  15.989   5.648   2.543 -0.2733  0.0554 -0.1466
14248W        W32452   1.573   6.719   4.896 -0.4662 -0.0489 -0.1462
14249W        W32453  13.360   6.082   3.115 -0.1809  0.1000  0.1508
14250W        W32454  12.731  13.999  15.959  0.1646  0.0609  0.1033
14251W        W32455   1.885   8.865  13.644 -0.1802 -0.2181  0.2275
14252W        W32456   0.491   7.678   3.348  0.0752  0.4040 -0.0499
14253W        W32457  15.040  12.452  14.935  0.0717 -0.0482  0.1085
14254W        W32458   5.191  10.501  13.888 -0.0468 -0.1683 -0.0390
14255W        W32459  10.069  11.923  14.359  0.0353  0.0967  0.1055
14256W        W32460   3.634  14.759   4.106 -0.1015 -0.0954 -0.0110
14257W        W32461   1.751   8.250   5.080  0.4915  0.3090 -0.0629
14258W        W32462   1.436   5.858  14.963  0.0381  0.2105 -0.3009
14259W        W32463   2.317  11.549   0.669  0.1364  0.1707  0.3726
14260W        W32464  11.632  14.176   3.162 -0.0558 -0.1468  0.2421
14261W        W32465  15.921   3.734  14.267  0.1623 -0.0590  0.0263
14262W        W32466   4.660  13.633  13.917 -0.0827  0.0522 -0.1147
14263W        W32467   3.081   3.677   3.121 -0.1698 -0.1630  0.2889
14264W        W32468   2.530   5.349  17.232 -0.1320 -0.0237 -0.2507
14265W        W32469   2.371   7.344   2.941 -0.1508 -0.0803  0.1165
14266W        W32470  15.799   5.213   0.258 -0.0935  0.1706  0.1054
14267W        W32471  16.250   7.643  13.517  0.0882 -0.0924 -0.0363
14268W        W32472   5.444   3.788  15.201 -0.0222 -0.1377  0.0896
14269W        W32473  12.784   9.590   2.534  0.2607  0.0684  0.1753
14270W        W32474  13.640  15.679  13.478  0.1298 -0.1471 -0.1654
14271W        W32475  12.226  11.901   4.265 -0.2638  0.0411 -0.0748
14272W        W32476   7.091  11.844   2.022 -0.1493 -0.0773 -0.0502
14273W        W32477   0.432   2.533   5.198  0.0797  0.0023  0.2774
14274W        W32478  11.319  12.232   3.027  0.0440 -0.0031 -0.2182
14275W        W32479   7.001   9.007  16.574 -0.1409  0.2002 -0.3359
14276W        W32480   1.900   5.576  15.288 -0.0224  0.3493  0.1444
14277W        W32481  15.016   7.988  14.572  0.1643 -0.0698 -0.1168
14278W        W32482   0.100  12.881  12.945 -0.2422  0.2120  0.0820
14279W        W32483  17.506   6.263  15.691  0.0599 -0.2293 -0.1086
14280W        W32484  13.359  14.220  14.412 -0.3874  0.1488  0.1453
14281W        W32485   0.563  17.381   4.620 -0.2540 -0.2644  0.1848
14282W        W32486  17.263   9.841  15.928 -0.2822  0.1353  0.0641
14283W        W32487  15.154  15.915  12.398 -0.1035 -0.3947  0.1090
14284W        W32488   3.123  10.296  13.040 -0.3049  0.0935 -0.1630
14285W        W32489   0.280  16.535  17.206  0.3087  0.0996  0.2789
14286W        W32490   2.115  11.922   3.151  0.1027 -0.0344  0.2363
14287W        W32491   9.902   5.914   3.530  0.0411  0.2796  0.0733
14288W        W32492   2.452   9.616   1.290  0.4225 -0.1452  0.0895
14289W        W32493   5.795  14.412   2.570  0.0230  0.1112 -0.3462
14290W        W32494  17.287   5.667   3.829 -0.1097 -0.1296  0.0093
14291W        W32495  17.253  14.625   4.779 -0.3120 -0.1528 -0.0107
14292W        W32496  15.325  15.247  16.337 -0.0707 -0.1718 -0.1093
14293W        W32497   8.397   8.899   3.615 -0.2433 -0.5158  0.1665
14294W        W32498   1.692   9.123   2.349 -0.1268 -0.0148 -0.0903
14295W        W32499  10.906  12.854  11.628  0.3083  0.2402 -0.2552
14296W        W32500  11.383   2.097  16.520  0.3180  0.1307  0.0713
14297W        W32501   7.266  15.122   4.988 -0.0966 -0.1945  0.0641
14298W        W32502   6.405   9.120  15.197 -0.1277  0.3208  0.1471
14299W        W32503   0.162  10.303   3.271 -0.0009 -0.2170 -0.0775
14300W        W32504   9.805   7.205  15.766 -0.1705 -0.2278  0.1950
14301W        W32505  14.986   9.034   5.788  0.2292  0.1461 -0.2294
14302W        W32506  10.116   2.586  16.447 -0.0362 -0.2722  0.1969
14303W        W32507  16.044   9.319  13.343  0.0158  0.1620 -0.0040
14304W        W32508  15.287  12.558   4.006  0.3545 -0.3184  0.3093
14305W        W32509   8.471   2.377   0.056 -0.2421 -0.0953 -0.0043
14306W        W32510   9.658   9.909  14.895  0.0576  0.1786 -0.1740
14307W        W32511   7.908   4.836  14.164 -0.4328  0.0975  0.1852
14308W        W32512   2.794   8.646  14.848 -0.3008  0.0891 -0.2088
14309W        W32513  13.836   0.506   0.006 -0.1255  0.5768 -0.1476
14310W        W32514   7.912  11.470  16.881  0.2846 -0.3157  0.1017
14311W        W32515  13.081  15.513   0.571  0.0615  0.0726  0.0093
14312W        W32516   3.174   2.536   0.370 -0.2338 -0.0600 -0.3503
14313W        W32517  11.151  10.739   0.141  0.1648  0.0869  0.0283
14314W        W32518  15.496   5.017   1.072 -0.2531  0.0801  0.0530
14315W        W32519  10.028  17.385  13.094  0.0635 -0.2885 -0.0594
14316W        W32520   3.682   6.350  14.076  0.1563 -0.1479  0.4964
14317W        W32521   4.076  11.919   3.381 -0.1146 -0.0074  0.1967
14318W        W32522  14.321  12.550  12.389  0.0171 -0.0393  0.0105
14319W        W32523  10.126  16.387   1.791  0.1238  0.1008  0.1908
14320W        W32524   8.380   3.238   3.965  0.0302 -0.0671 -0.3781
14321W        W32525  15.363  15.379   4.066  0.0921  0.0454 -0.1567
14322W        W32526   4.180   7.791   5.164  0.0572  0.2495  0.2450
14323W        W32527   6.726  12.571   1.583 -0.1994 -0.2404  0.3694
14324W        W32528   8.104  17.047  14.870  0.2095  0.1047  0.2423
14325W        W32529   7.145   0.144  15.124 -0.3325  0.0359  0.2671
14326W        W32530   0.417  12.138  13.443 -0.2402 -0.4025  0.3035
14327W        W32531  11.166   7.752  14.182 -0.3971 -0.2919 -0.1179
14328W        W32532   3.241  12.469  14.665  0.2717 -0.2166 -0.0809
14329W        W32533   6.809  11.697   0.655 -0.1462  0.0433 -0.1179
14330W        W32534  15.999   5.503  15.778  0.0182 -0.0376  0.0765
14331W        W32535   6.179  15.885  14.035  0.2061 -0.4008 -0.2860
14332W        W32536  14.029   4.995  15.463 -0.0287 -0.2488  0.2074
14333W        W32537   9.566  14.950  14.554 -0.0747  0.2797 -0.0678
14334W        W32538  15.612   1.512  14.230  0.0107  0.1433 -0.0147
14335W        W32539  16.134   5.911  14.940  0.0800 -0.0235 -0.3054
14336W        W32540  14.350   1.688  17.127  0.2343 -0.0223 -0.0154
14337W        W32541  12.969   8.666   0.379 -0.0425 -0.2301 -0.0720
14338W        W32542   0.806   1.935   1.631 -0.1142  0.1854 -0.1373
14339W        W32543   9.524   5.763   1.220  0.2691 -0.2045 -0.2408
14340W        W32544   0.516   0.339   0.966  0.1409  0.1012 -0.1372
14341W        W32545   8.385  17.153   1.972  0.0126 -0.1111 -0.0625
14342W        W32546  15.438  16.124  13.516 -0.2103  0.0469 -0.0835
14343W        W32547  11.809   4.714   1.840  0.1518 -0.0601 -0.1461
14344W        W32548  14.376   3.521   3.875  0.2260 -0.0465  0.2633
14345W        W32549  13.072  15.600  15.474 -0.1405 -0.3672 -0.0768
14346W        W32550   8.396   3.832  13.679 -0.0487 -0.2608 -0.4882
14347W        W32551  13.300   2.375  11.701 -0.0510  0.1035 -0.0977
14348W        W32552   0.609   9.885   4.337  0.2165  0.1860  0.1550
14349W        W32553   4.996  11.800  12.755 -0.0655 -0.0494  0.2427
14350W        W32554  10.738   9.298   0.995 -0.4576  0.2063  0.0423
14351W        W32555  10.022  10.831  16.653 -0.0649  0.0096  0.0475
14352W        W32556   4.051  16.606  16.548 -0.0877  0.2005 -0.1439
14353W        W32557  13.312   5.764  14.488  0.0394 -0.0141 -0.0477
14354W        W32558  13.042   5.786  12.812 -0.5146  0.2790 -0.1374
14355W        W32559  10.813  10.615   1.950 -0.0581  0.1635  0.0345
14356W        W32560   9.320   7.843  12.942  0.2515  0.1460  0.0078
14357W        W32561   0.809   4.592   4.763  0.3503  0.1747 -0.1511
14358W        W32562   3.764  10.014  13.425 -0.0821  0.0425 -0.1162
14359W        W32563   0.515  14.209  12.929  0.1301  0.0958 -0.2395
14360W        W32564  11.071   7.841  15.274  0.3406 -0.1442 -0.0786
14361W        W32565  10.586   1.396   1.016 -0.1097 -0.1259 -0.0527
14362W        W32566   7.352   2.601   3.206 -0.0249  0.0497  0.2058
14363W        W32567  10.192  10.600   1.207 -0.0658 -0.1453 -0.1981
14364W        W32568   5.678  12.419  12.752 -0.1663 -0.3364 -0.1271
14365W        W32569   5.336   5.791  13.910 -0.2271 -0.0386  0.1852
14366W        W32570  10.446   4.843   4.227 -0.2036  0.1483  0.0702
14367W        W32571  15.987   3.762  16.591  0.1131  0.1179 -0.0044
14368W        W32572   5.731   6.564   1.556 -0.3996 -0.0465  0.3931
14369W        W32573  14.615   0.234   0.802 -0.2296  0.0910 -0.0951
14370W        W32574  13.327   5.915  15.503  0.1892  0.1365 -0.2293
14371W        W32575  12.219   2.172  14.744  0.2128  0.2285 -0.0374
14372W        W32576  15.472   4.986   4.405  0.2737  0.1464  0.0870
14373W        W32577   8.280  10.879  15.627 -0.0221 -0.1002  0.1349
14374W        W32578   0.579  13.063  16.562 -0.0065  0.0748 -0.0170
14375W        W32579  13.769  15.660   5.953  0.3763  0.1108  0.0427
14376W        W32580   6.894   0.758  14.292 -0.2331  0.0547 -0.2490
14377W        W32581  13.335   1.384  16.991  0.0504  0.1196  0.4407
14378W        W32582  10.314  15.052  16.575  0.5599  0.0665  0.0092
14379W        W32583   1.573   9.371  11.751  0.1142  0.0525 -0.3322
14380W        W32584   5.841  11.828  15.306  0.0199 -0.0291  0.0455
14381W        W32585  16.896   3.498   5.333 -0.2321 -0.1800 -0.1322
14382W        W32586   9.121  13.089   3.469  0.0459  0.0106 -0.2873
14383W        W32587   9.911   6.423  17.134  0.0159 -0.0113  0.1986
14384W        W32588   8.723   2.438   5.034  0.1503 -0.1206  0.0846
14385W        W32589   0.810   0.011  13.486 -0.1455 -0.1007 -0.1430
14386W        W32590   1.781   7.816  13.702 -0.3116 -0.2905 -0.1232
14387W        W32591  15.071   7.338  14.066  0.0741 -0.2061 -0.1568
14388W        W32592  13.544   5.887   1.754 -0.0294  0.4315  0.0958
14389W        W32593  12.833   6.574  13.074  0.1119  0.0356  0.0038
14390W        W32594   3.593   1.238  12.342  0.0616 -0.1836  0.1169
14391W        W32595  15.462   6.554   2.468  0.0946 -0.0184 -0.1103
14392W        W32596   6.608   3.044   1.260 -0.1163 -0.0321  0.1224
14393W        W32597  10.370   5.278   0.824 -0.1496 -0.0465 -0.3037
14394W        W32598  14.365   5.064  15.931 -0.0309 -0.1709 -0.0276
14395W        W32599  14.047  14.961   3.754 -0.0026  0.1214 -0.2131
14396W        W32600  14.715   1.082   1.309 -0.0027 -0.3575  0.1976
14397W        W32601  12.830   9.549   0.880  0.1769  0.0889 -0.0356
14398W        W32602   7.324  11.613   0.270 -0.0808  0.1191 -0.0275
14399W        W32603   5.268   6.923  15.350  0.5745  0.1678 -0.2335
14400W        W32604  15.949   1.979   1.583 -0.1670 -0.2718 -0.1120
14401W        W32605  16.018  15.788   0.194 -0.3399 -0.1360 -0.2402
14402W        W32606  13.514  15.768  16.745 -0.2154 -0.1273 -0.1109
14403W        W32607  15.626  16.739   5.123 -0.1641  0.1149  0.0875
14404W        W32608   7.526  17.337   1.784  0.0866  0.0176 -0.3500
14405W        W32609  12.781  16.384   3.403 -0.1193  0.2153 -0.0676
14406W        W32610   5.730  12.071   3.839 -0.2378  0.2269  0.2899
14407W        W32611   8.438   9.757   5.512 -0.0427 -0.0403  0.1800
14408W        W32612  16.737   9.890   3.582 -0.0467 -0.1779 -0.0102
14409W        W32613   7.539   3.788   3.644  0.1902  0.0069  0.2698
14410W        W32614  16.731   5.144   5.470 -0.1744 -0.1939  0.0290
14411W        W32615   6.090  15.661   2.548  0.2688  0.0918 -0.0999
14412W        W32616   8.867  13.832   3.903  0.4709 -0.1778 -0.1416
14413W        W32617   0.841  10.789   3.183 -0.2175 -0.0083 -0.1043
14414W        W32618  15.164   0.762   1.167  0.1496 -0.1404 -0.0912
14415W        W32619  10.660   0.088  15.480 -0.0084  0.3147 -0.0731
14416W        W32620   1.609  15.311   3.308 -0.2153  0.0166 -0.1662
14417W        W32621   4.894   7.198  15.248 -0.0901 -0.1521 -0.1687
14418W        W32622   1.918   7.378  13.496  0.0344  0.1786 -0.0867
14419W        W32623   9.496   5.344   4.822 -0.4314 -0.1654 -0.0240
14420W        W32624  11.659   7.265   2.618 -0.0575 -0.0578  0.2782
14421W        W32625   5.888   8.095  13.002 -0.1595  0.0051  0.0272
14422W        W32626   7.713   4.801   4.040  0.2046 -0.1397  0.0825
14423W        W32627  15.498  13.180   3.322 -0.1423 -0.1151  0.2682
14424W        W32628   6.902   4.234  12.510 -0.0697 -0.2085 -0.0430
14425W        W32629   1.209   4.702   1.987  0.4491  0.0061 -0.0625
14426W        W32630   8.055   6.360  14.006  0.1340  0.1649  0.1633
14427W        W32631   0.314  10.807   3.108  0.2587 -0.0915  0.0011
14428W        W32632   7.205  15.903  13.877 -0.1078 -0.2838  0.2560
14429W        W32633   7.014  14.264   1.051  0.1662  0.0264 -0.0005
14430W        W32634   5.752   8.238   5.440  0.0719 -0.1803 -0.3647
14431W        W32635   5.341  12.929   3.426  0.1665  0.0194  0.2946
14432W        W32636   4.437  15.155  14.683 -0.1279  0.3104 -0.0290
14433W        W32637   1.109  10.748  12.466  0.1631 -0.3833 -0.1815
14434W        W32638  10.643  11.770   0.555 -0.2849 -0.0827  0.0816
14435W        W32639   0.546  16.649   2.844 -0.0671 -0.4671 -0.1638
14436W        W32640   7.679  17.232   4.569  0.2454  0.1213 -0.0064
14437W        W32641  13.406  11.138  14.986 -0.0688 -0.0488  0.2638
14438W        W32642   8.553  14.478   4.956 -0.1236  0.2084 -0.1168
14439W        W32643   7.353   7.290  13.857 -0.1240  0.0483 -0.0264
14440W        W32644   8.530   2.020   4.752  0.1720 -0.0340 -0.1198
14441W        W32645   1.915   2.412   4.878 -0.0915  0.0549  0.2604
14442W        W32646  17.400  16.871  12.881  0.4816 -0.0965  0.4137
14443W        W32647  10.426   5.237   3.861 -0.2507  0.0314 -0.0107
14444W        W32648  10.625  16.319  16.627  0.3534  0.2422 -0.0086
14445W        W32649   5.856  15.601  15.671 -0.1443  0.0652  0.1954
14446W        W32650  16.934   3.090   2.239 -0.0983  0.1258  0.2754
14447W        W32651   9.411   8.971  14.640  0.0150 -0.0793  0.1145
14448W        W32652   1.228  10.425  11.859 -0.2157 -0.0470 -0.2892
14449W        W32653  13.282  16.131  16.483  0.2154 -0.1181 -0.1372
14450W        W32654  16.654  16.504  17.122 -0.0951 -0.1849  0.0355
14451W        W32655   4.950   6.881   0.271  0.0302 -0.0403  0.2818
14452W        W32656   5.847  14.982   1.421 -0.0440  0.0104  0.2589
14453W        W32657   8.578  13.475  14.922  0.0394 -0.2090  0.0346
14454W        W32658   9.370   7.082   2.588 -0.0505  0.0166 -0.0980
14455W        W32659   2.131   4.517  16.770 -0.0126 -0.2745 -0.0045
14456W        W32660  12.304   8.391   0.522 -0.0477  0.0137  0.0046
14457W        W32661   7.044   2.813   0.642 -0.0703  0.0066 -0.0631
14458W        W32662   9.614  17.067   1.984  0.0342  0.1488  0.0696
14459W        W32663  14.683  15.955   5.859  0.0383 -0.0397  0.0263
14460W        W32664  11.501  14.418  15.417 -0.1057 -0.0763  0.0087
14461W        W32665  16.408   1.721  12.560  0.1631  0.0235 -0.1293
14462W        W32666   2.121   1.949   4.931  0.0571  0.1348 -0.0392
14463W        W32667   5.802  16.060  15.457  0.4014 -0.3049  0.1297
14464W        W32668  11.187  15.196  15.864 -0.0833  0.3099 -0.0535
14465W        W32669   7.783  12.114  16.188 -0.0566 -0.2884  0.1298
14466W        W32670  11.995   6.145  16.462 -0.1642 -0.2398  0.0849
14467W        W32671   3.400  12.827   3.820  0.2080 -0.1961 -0.0244
14468W        W32672  16.936   6.881   4.685  0.1709 -0.0244  0.2970
14469W        W32673  16.316  11.708   6.139 -0.1715 -0.0283 -0.1062
14470W        W32674  10.510   1.063  14.487 -0.1228 -0.0316  0.0830
14471W        W32675   1.136   1.417   1.868 -0.0023 -0.2339 -0.2677
14472W        W32676  15.117   4.395  12.510  0.0318 -0.0248  0.1278
14473W        W32677   3.358  16.502  15.245 -0.1487 -0.0435  0.1842
14474W        W32678  13.296   5.611  13.468 -0.1068  0.1568 -0.1317
14475W        W32679   3.182  16.447   2.449  0.2652 -0.2851 -0.2284
14476W        W32680  15.320  12.772   2.978  0.1293  0.0940  0.0757
14477W        W32681   8.700  13.323   2.528 -0.1894  0.0577 -0.2065
14478W        W32682   6.602  10.499   2.908 -0.1261 -0.3326  0.1007
14479W        W32683   4.468   6.975   2.999  0.1375 -0.0126  0.0647
14480W        W32684   6.445   3.179  15.320 -0.1147  0.1006  0.2469
14481W        W32685   1.747   1.317  14.267 -0.2505  0.1089 -0.0984
14482W        W32686  12.133  16.841   3.715  0.0240 -0.2058 -0.0267
14483W        W32687  17.097  15.932   1.556  0.0061 -0.2135 -0.2457
14484W        W32688  13.892   0.804   0.799  0.1894  0.2487 -0.2084
14485W        W32689   9.926   4.665  11.351  0.1559  0.1224 -0.0558
14486W        W32690  10.283  10.304   4.451  0.0666  0.2270 -0.2338
14487W        W32691  13.763   4.714  12.599  0.1021  0.0313 -0.1893
14488W        W32692  13.286   9.404  14.177 -0.1913  0.3108 -0.1118
14489W        W32693  17.416  11.985  12.798 -0.2151 -0.1228 -0.1201
14490W        W32694   8.122   1.981  13.891 -0.1668  0.3138  0.1566
14491W        W32695   2.964   8.485  12.860  0.0459 -0.0749 -0.1064
14492W        W32696  11.174  16.161   1.516  0.2071  0.1348  0.0954
14493W        W32697   5.041  13.843   5.769 -0.1531 -0.1046  0.1322
14494W        W32698   1.955  12.922   2.968  0.0994 -0.1758 -0.1493
14495W        W32699   6.067  16.387   3.668 -0.1703 -0.1401  0.3000
14496W        W32700  12.740   1.461  14.504 -0.2029 -0.1554  0.1363
14497W        W32701   5.833   0.656   2.173 -0.2896 -0.0612  0.1531
14498W        W32702  16.872   2.022  13.375  0.1599  0.0130 -0.0833
14499W        W32703   6.243  13.077  12.287 -0.2297 -0.3747  0.1955
14500W        W32704   3.428   5.035   2.149  0.1198  0.0034 -0.0558
14501W        W32705   2.624   6.225  17.106 -0.0712 -0.1719  0.1041
14502W        W32706  12.260  15.899   2.891 -0.1155  0.2508 -0.1586
14503W        W32707   3.642   2.399   2.017  0.1550  0.1492  0.1026
14504W        W32708  12.011  11.330   5.966 -0.1941 -0.0369 -0.0081
14505W        W32709   6.031   8.983  14.292  0.1325 -0.3436 -0.1295
14506W        W32710  12.350  13.591  16.602  0.1335 -0.0595  0.1173
14507W        W32711   3.914  17.338   0.864  0.2748  0.2897 -0.1212
14508W        W32712  17.073   8.805   3.747  0.3141  0.2414  0.0942
14509W        W32713   4.659   9.797   4.786 -0.0562 -0.1483 -0.2013
14510W        W32714   0.744  11.441   1.200 -0.1208  0.3049  0.0944
14511W        W32715  14.329  15.281   0.998 -0.0958 -0.1571 -0.0986
14512W        W32716   4.599  17.271   2.410 -0.1118 -0.2126  0.1513
14513W        W32717   5.363   4.030  13.433  0.0140 -0.3015  0.0234
14514W        W32718   2.121  14.507  14.715 -0.0584  0.1533  0.2556
14515W        W32719   1.513  12.744  16.827  0.1798 -0.1280 -0.1016
14516W        W32720  11.313  15.842  12.461  0.3059  0.2596 -0.1269
14517W        W32721  10.221   1.593   2.313  0.0208 -0.0036  0.0953
14518W        W32722   8.374   7.205  11.259  0.3132 -0.0096 -0.4375
14519W        W32723   9.071  15.686   5.066 -0.0418 -0.3624 -0.0593
14520W        W32724  12.781   6.400  13.892  0.0345  0.1071  0.1204
14521W        W32725  11.750  12.609   4.185 -0.2151 -0.3302 -0.0407
14522W        W32726   2.125  12.635  11.981  0.1044 -0.2628  0.0467
14523W        W32727  12.203  16.399   2.605 -0.1464  0.0516 -0.0675
14524W        W32728  14.830   4.416   1.658 -0.1138 -0.0718  0.3004
14525W        W32729   5.657   3.160  13.996 -0.2482  0.4684  0.0005
14526W        W32730   4.987  10.391   0.929 -0.1188 -0.0575 -0.2988
14527W        W32731  12.888   5.820  15.303 -0.2388 -0.0158  0.1072
14528W        W32732  16.428  16.397  13.883  0.2101  0.0314  0.1736
14529W        W32733  10.708  16.593  16.184  0.3732  0.1508  0.1187
14530W        W32734   8.413   0.380  16.975 -0.0581 -0.0493 -0.1197
14531W        W32735   1.684   1.499  12.640 -0.0250  0.1391  0.0677
14532W        W32736   8.672   9.721   3.866 -0.3613  0.2643  0.1223
14533W        W32737   8.301   8.519  15.693 -0.1527 -0.1319  0.1660
14534W        W32738   2.689   8.157  14.890  0.2763 -0.0005 -0.0568
14535W        W32739  15.154   1.923   3.125  0.3625 -0.2136  0.0012
14536W        W32740  10.566   6.253  16.039 -0.3445 -0.4273 -0.0612
14537W        W32741  13.217  11.934   1.387 -0.1927 -0.1254  0.1941
14538W        W32742   3.656   8.524   4.163  0.1345  0.1375  0.0046
14539W        W32743   0.245   7.538   4.308  0.0667 -0.0083 -0.1287
14540W        W32744   9.947   2.764  14.220  0.0059 -0.2462 -0.0684
14541W        W32745  10.395  11.760  15.242 -0.0387  0.0931  0.0867
14542W        W32746   3.882   2.353  16.395  0.1446 -0.2251  0.2428
14543W        W32747   2.991  11.872  15.952  0.0644  0.1041 -0.1301
14544W        W32748   4.219   8.822   2.140  0.2556  0.1155  0.2465
14545W        W32749  16.328   5.824  17.146  0.2272 -0.0550 -0.2746
14546W        W32750  10.554  13.694   4.962  0.1306  0.0862 -0.1944
14547W        W32751  17.080  10.594   1.301  0.0601  0.0144 -0.1082
14548W        W32752   9.263   9.818  15.713 -0.2354 -0.1230 -0.4564
14549W        W32753  10.455  15.155  15.756 -0.3468 -0.1455  0.1317
14550W        W32754   7.020  14.080   4.461 -0.2024 -0.0785 -0.1423
14551W        W32755  16.464  12.782  16.988 -0.1150 -0.1500  0.1791
14552W        W32756   0.725  14.035  15.952 -0.1190 -0.1533  0.1433
14553W        W32757   2.096   0.054   4.287 -0.2356 -0.0098 -0.0599
14554W        W32758   1.336   5.385  12.157 -0.1622  0.1068 -0.0942
14555W        W32759  15.232  10.946  17.005  0.0813 -0.0310 -0.1299
14556W        W32760  15.695   2.993   3.185 -0.1357 -0.0259  0.2244
14557W        W32761   7.767  14.385  14.367 -0.0124 -0.2049 -0.2625
14558W        W32762   7.600   5.839  14.982 -0.1115 -0.0537  0.1615
14559W        W32763   0.083  12.562  15.122 -0.1107  0.1617  0.0134
14560W        W32764  14.926   7.622  12.947  0.1459 -0.2229 -0.2632
14561W        W32765  11.094  13.998   3.615 -0.0802 -0.0560  0.2373
14562W        W32766   8.296  17.503  14.640  0.3316 -0.1054  0.0657
14563W        W32767  10.709  14.151  12.648  0.0083 -0.0762  0.0158
14564W        W32768   8.341  10.655   0.055  0.3292  0.2675  0.2014
14565W        W32769   5.535  10.170  14.093  0.0316 -0.0735 -0.2512
14566W        W32770  11.732   4.307   1.008  0.2205 -0.0436 -0.1878
14567W        W32771   8.800  11.214   1.864 -0.0872 -0.0637 -0.2670
14568W        W32772  10.768  14.390  14.759  0.2373 -0.2444 -0.2124
14569W        W32773  12.642   2.483  13.852 -0.0242 -0.0434 -0.0086
14570W        W32774  10.442  10.283   2.389 -0.1973 -0.3365 -0.2300
14571W        W32775   3.973  12.510   4.107 -0.1918  0.0234  0.1553
14572W        W32776   9.157   2.203  13.721  0.2352  0.0308  0.0993
14573W        W32777   6.117   2.442  15.862 -0.1561 -0.0101  0.3799
14574W        W32778   9.752  14.540   2.312 -0.0407 -0.2274  0.1701
14575W        W32779   0.950  16.855  12.407  0.0393 -0.3781 -0.0338
14576W        W32780  13.265   7.745  15.291  0.1478  0.1065  0.1675
14577W        W32781   0.480   3.069  12.739  0.3879 -0.1131  0.2720
14578W        W32782  16.757   7.547   4.116 -0.2789  0.0947  0.1301
14579W        W32783   8.045  15.903  13.372  0.0351 -0.2068  0.0587
14580W        W32784   5.370  10.941  13.818  0.1213  0.0083 -0.3807
14581W        W32785   7.276  16.766  13.880 -0.3715 -0.1019 -0.0298
14582W        W32786   8.527   6.594   2.652 -0.0878 -0.0187 -0.0547
14583W        W32787   7.754   3.210   3.573 -0.1158 -0.2637  0.3048
14584W        W32788  11.876  16.484  15.237  0.0257 -0.1364  0.1540
14585W        W32789   5.072   3.103  16.821  0.2129  0.1315  0.1062
14586W        W32790  12.980  15.957   4.275 -0.1295 -0.0285 -0.0173
14587W        W32791   3.152   4.561  15.790 -0.1538  0.0575 -0.3309
14588W        W32792   4.758   6.798  15.559  0.2038  0.1799  0.0055
14589W        W32793  14.566   5.576   2.671  0.3762  0.0431  0.3010
14590W        W32794   4.414   3.056   0.287  0.2896  0.0519  0.0196
14591W        W32795  11.593  13.403   1.490 -0.0148  0.0508 -0.0139
14592W        W32796   6.796   1.814  16.025 -0.0193  0.2176  0.2646
14593W        W32797  11.667   3.859   3.670  0.0731 -0.1294 -0.0720
14594W        W32798  17.233  12.108  15.848 -0.0514 -0.2433  0.0326
14595W        W32799  17.304  16.403   3.268 -0.2487  0.0194  0.0960
14596W        W32800  17.498   6.032   2.095  0.0068  0.1527  0.0706
14597W        W32801   8.198   6.053  14.893  0.1561  0.1795 -0.1410
14598W        W32802  11.259  14.014   5.376  0.0746 -0.0571 -0.2058
14599W        W32803   0.622   3.793   5.143 -0.1855 -0.0769 -0.2596
14600W        W32804   9.703   7.456   3.944 -0.2028 -0.2174 -0.2854
14601W        W32805   7.191   1.744  12.814  0.2003  0.2810  0.1865
14602W        W32806  17.079  11.645   1.955 -0.0815 -0.1025 -0.0711
14603W        W32807  14.893   2.634   1.389  0.2194  0.1032  0.0304
14604W        W32808  12.482   4.591  14.013  0.0190 -0.4056  0.1703
14605W        W32809  11.530  12.615   5.437 -0.4154 -0.5080  0.4179
14606W        W32810  13.588  13.769   4.375  0.1501 -0.4033 -0.0229
14607W        W32811  15.425   7.404  15.112 -0.1322  0.0721  0.0325
14608W        W32812  17.503   8.529   1.284 -0.0769 -0.0310 -0.2402
14609W        W32813   5.355  11.934  14.723 -0.0303 -0.1644  0.0158
14610W        W32814  16.497  11.015  12.764 -0.0656 -0.0053  0.1864
14611W        W32815   7.594   4.553   0.603  0.1116 -0.2056 -0.0700
14612W        W32816   3.075   8.841   1.291 -0.2310 -0.3613  0.0303
14613W        W32817   9.155  11.940   5.141 -0.1700  0.1396  0.0042
14614W        W32818   1.485  11.321  13.130  0.0618  0.2716 -0.0588
14615W        W32819   0.653   8.486   2.179  0.0259  0.1684  0.1134
14616W        W32820  11.244   4.154  14.264  0.1486 -0.1476 -0.5502
14617W        W32821  13.588   1.437  15.632 -0.0767 -0.1949 -0.2739
14618W        W32822  11.836  13.871  16.247  0.1969  0.5925 -0.0474
14619W        W32823   0.383   7.505   0.900 -0.1854 -0.2526 -0.0539
14620W        W32824   8.611  15.357   4.800  0.0570 -0.1350 -0.0384
14621W        W32825   9.417   8.994   1.869  0.0117 -0.3251 -0.1757
14622W        W32826   7.398   7.628   3.612 -0.2254  0.0448  0.1519
14623W        W32827   5.630  15.224  12.011 -0.0474 -0.1848  0.2081
14624W        W32828  13.900   9.323   3.476  0.0816  0.0015 -0.1877
14625W        W32829  15.592  10.827   1.443 -0.1848  0.1320 -0.1331
14626W        W32830  15.567   1.224   4.775  0.1079 -0.1073 -0.0596
14627W        W32831  13.955  15.895  16.476  0.0499 -0.1033 -0.0017
14628W        W32832   5.529   9.169  14.676 -0.0483  0.1382  0.1018
14629W        W32833   9.588   1.281  12.846 -0.1426  0.0272  0.2016
14630W        W32834   9.272   5.915  12.644  0.0135 -0.1124 -0.1493
14631W        W32835   5.860  11.573   4.607 -0.1090  0.0945  0.0418
14632W        W32836   0.316   7.615   3.810  0.1137  0.2480 -0.0673
14633W        W32837   6.776   8.263  12.577  0.0185  0.1350 -0.1744
14634W        W32838   7.450  15.646   0.459 -0.1986  0.0793 -0.0286
14635W        W32839  15.135  13.333  13.364  0.0561  0.0395  0.0518
14636W        W32840  14.116  16.928   3.700 -0.1673  0.0110  0.1422
14637W        W32841   4.480   0.913   0.053 -0.2866  0.0440 -0.1316
14638W        W32842  10.428   8.453   2.663  0.0868 -0.0681  0.2304
14639W        W32843   3.808  13.187  16.191 -0.0791 -0.0947 -0.3881
14640W        W32844   1.192  11.818   5.140 -0.3831 -0.2066 -0.0229
14641W        W32845   6.864  12.371   4.972 -0.4724  0.1900  0.2630
14642W        W32846   5.895  14.790   2.185 -0.2025  0.3813  0.0925
14643W        W32847  15.285   6.613  12.581 -0.0649 -0.2996  0.1495
14644W        W32848   6.873   8.901  15.213 -0.0193 -0.1717  0.0121
14645W        W32849   0.493   2.216   4.343  0.0416 -0.0246  0.1493
14646W        W32850   2.863  12.817  14.816  0.1649  0.0224 -0.1569
14647W        W32851   1.875  14.184   1.605 -0.0944  0.0765 -0.3362
14648W        W32852   2.232   3.212   3.330 -0.0151  0.0085 -0.0762
14649W        W32853  10.148   8.145  14.538 -0.1388 -0.0597  0.0627
14650W        W32854   0.760  12.663   0.889  0.2000 -0.0096 -0.0494
14651W        W32855  13.069   3.111   4.670  0.0458  0.4557 -0.0038
14652W        W32856   6.228   2.519   0.157 -0.1782  0.1379 -0.3305
14653W        W32857  14.722   6.961  16.049 -0.1684 -0.3894  0.0098
14654W        W32858  15.388   5.980   3.914  0.4607  0.0843  0.0219
14655W        W32859   7.358   8.590  16.746 -0.2717  0.1165  0.0264
14656W        W32860   6.379  14.852  15.624 -0.0665  0.1017 -0.0774
14657W        W32861   6.532   8.078   2.112 -0.0123 -0.0759 -0.4381
14658W        W32862  17.198  15.913   0.432  0.1003  0.3154 -0.2306
14659W        W32863   3.561   3.534  13.433 -0.0888 -0.0181 -0.1018
14660W        W32864  14.303   6.729  15.783  0.1119  0.1053 -0.1107
14661W        W32865   5.655   4.680  16.856 -0.2475  0.2274 -0.1459
14662W        W32866   2.486  16.605   0.613  0.0881  0.0217  0.0228
14663W        W32867   8.814  16.070  13.428 -0.1113  0.1183  0.4200
14664W        W32868  15.770   7.728  13.525 -0.1100  0.2759 -0.0387
14665W        W32869   8.798   1.093  15.315 -0.0405 -0.2220  0.0655
14666W        W32870  14.110  16.283  14.166 -0.0621  0.3352 -0.2628
14667W        W32871   0.168  16.166  16.230  0.1660 -0.1692 -0.1469
14668W        W32872   1.015   8.475  15.303  0.0244  0.3243  0.1322
14669W        W32873   9.521  11.244  13.645  0.1273 -0.0416 -0.0531
14670W        W32874   6.426  14.086  13.724 -0.1304 -0.0125  0.0098
14671W        W32875   6.087  16.205   2.488 -0.0438 -0.2427 -0.0029
14672W        W32876  17.143   0.237   5.489 -0.0461 -0.2951  0.3728
14673W        W32877   3.765  16.858   5.447 -0.0124 -0.1388  0.5516
14674W        W32878   3.221   9.308   2.646  0.0652 -0.1764 -0.2213
14675W        W32879   2.962   7.470  15.411  0.1652 -0.1835 -0.0398
14676W        W32880  10.958  11.562   4.162 -0.1598 -0.2122  0.1086
14677W        W32881  15.019  15.867  14.317  0.2492  0.4463  0.3039
14678W        W32882  10.389  10.914  17.167 -0.1354 -0.2373 -0.2225
14679W        W32883  16.148   5.537   0.370  0.0146 -0.2061 -0.0220
14680W        W32884   3.916   3.175   0.964 -0.3005 -0.1086 -0.1625
14681W        W32885   4.358   3.812  12.943 -0.2545  0.2938  0.7425
14682W        W32886   2.206   5.023   0.208  0.1959 -0.1177  0.0478
14683W        W32887  11.347   8.076   6.088  0.0134  0.1798 -0.1354
14684W        W32888   7.594   6.018  16.235  0.0402  0.1340  0.0646
14685W        W32889   1.668   6.031   4.329 -0.2070  0.3434 -0.1592
14686W        W32890  10.765  11.014   0.232 -0.1194 -0.1895  0.3340
14687W        W32891   4.024   3.000  12.751 -0.0909  0.0542 -0.0076
14688W        W32892  10.247   5.816   4.438 -0.0879 -0.0451  0.1891
14689W        W32893   5.687  14.677  14.026 -0.0760 -0.1429  0.2657
14690W        W32894  13.465   4.702  15.879 -0.2487  0.3963  0.0883
14691W        W32895   9.780   8.368   3.254 -0.0684 -0.1176 -0.1754
14692W        W32896  10.767  11.023  16.270 -0.0874 -0.0053  0.2820
14693W        W32897   1.069  14.702  14.512 -0.0911 -0.2556  0.0562
14694W        W32898  12.525   3.488   1.212 -0.2366 -0.4404  0.1056
14695W        W32899   9.056  14.938  14.192  0.3489  0.0983 -0.3521
14696W        W32900   2.855  13.478  12.937 -0.1138 -0.1510  0.2039
14697W        W32901  16.349   6.028  16.686  0.0828  0.0649  0.0352
14698W        W32902   8.808  10.708   0.149 -0.0445  0.2664 -0.0140
14699W        W32903  15.700   7.613   4.351 -0.0384  0.0046  0.2135
14700W        W32904   1.469  13.220   4.770 -0.1495  0.1787  0.0227
14701W        W32905   4.871   6.208   3.043 -0.0997 -0.2273 -0.0005
14702W        W32906  13.536  14.238   1.320  0.0408  0.0194 -0.1830
14703W        W32907   6.077  12.002   3.472 -0.2095 -0.0375 -0.1254
14704W        W32908  10.832   3.198   4.393  0.2662 -0.0415  0.0935
14705W        W32909  10.911   7.942   0.076  0.0129  0.0001 -0.1776
14706W        W32910  13.534  11.369   4.609 -0.1316  0.0391 -0.0813
14707W        W32911  11.851  12.244   2.755  0.0294 -0.0367 -0.3502
14708W        W32912  10.083  16.363   4.121  0.1603  0.1365 -0.0359
14709W        W32913   8.263  11.812  17.256 -0.1431  0.2569  0.3211
14710W        W32914  11.031  10.107   3.502  0.2763  0.0305 -0.0462
14711W        W32915  10.687  14.439   0.185 -0.2607 -0.1849  0.0502
14712W        W32916  12.250   5.714   5.352 -0.0608 -0.1294  0.1641
14713W        W32917  16.612   2.499   3.216 -0.0599 -0.0674  0.1260
14714W        W32918  11.567   4.246   2.670 -0.0451 -0.0758  0.1453
14715W        W32919  11.720  17.178  14.768  0.0225 -0.1599  0.1521
14716W        W32920   5.210   4.827   4.933  0.2009 -0.1730 -0.1741
14717W        W32921  15.163  10.758  13.813 -0.1993  0.1322  0.0623
14718W        W32922  16.469  17.529  13.766 -0.3815  0.1615 -0.2706
14719W        W32923  17.454   3.048   4.887  0.0897 -0.3259  0.0710
14720W        W32924   1.191   5.344   2.999 -0.3689 -0.1115  0.1984
14721W        W32925  16.044   6.576  12.848  0.1491  0.0640 -0.1420
14722W        W32926   3.855  17.098  12.467  0.1899 -0.0392  0.3187
14723W        W32927   3.697   5.796  14.937 -0.0551  0.1635 -0.4209
14724W        W32928   3.553   4.417  12.348 -0.1673  0.1181  0.1437
14725W        W32929   2.943   3.691  13.301 -0.0649 -0.3998 -0.0187
14726W        W32930   5.006   3.118   5.041 -0.1914 -0.6714 -0.2121
14727W        W32931   9.756   1.471   5.344  0.0442 -0.0402 -0.3424
14728W        W32932   6.186   2.783  12.232  0.0642 -0.1081  0.1337
14729W        W32933  14.674  15.154  16.675 -0.0105  0.1625 -0.1074
14730W        W32934   4.145   3.296  16.332  0.1315 -0.1378 -0.3337
14731W        W32935  11.115   5.313   4.660  0.0775 -0.2349 -0.0549
14732W        W32936   5.739  16.024   3.961 -0.1387 -0.1338  0.0324
14733W        W32937  16.591  15.749  14.541 -0.0191  0.2021 -0.1058
14734W        W32938  13.988   5.511  16.564 -0.0470  0.1258 -0.0494
14735W        W32939  13.764   3.721   2.250  0.0923 -0.1744  0.1145
14736W        W32940   9.597   0.216   3.871 -0.0454 -0.0782  0.0454
14737W        W32941  11.711  13.326   5.854  0.0155  0.2663 -0.1179
14738W        W32942   6.919   8.494  15.548 -0.1975  0.0438  0.1365
14739W        W32943  10.389  13.797  13.462 -0.0143 -0.2006  0.2131
14740W        W32944  11.980   9.106   4.095 -0.3200 -0.1131 -0.0793
14741W        W32945   8.861   5.336   4.592 -0.2153  0.0922  0.1108
14742W        W32946  11.982   3.362  15.949  0.0439 -0.1232 -0.3817
14743W        W32947   2.253   7.715   1.963  0.2021 -0.0663 -0.0200
14744W        W32948  14.116  11.744  13.564  0.3694  0.0038  0.0256
14745W        W32949   5.619  10.663   1.553 -0.0353 -0.0715 -0.0883
14746W        W32950  10.232   9.863   3.590 -0.1287 -0.0965  0.1547
14747W        W32951   8.683   6.650   2.153  0.2871 -0.2670  0.0348
14748W        W32952   7.001  11.064   4.636  0.1077  0.1913  0.0784
14749W        W32953  12.044   9.627   0.640 -0.2420 -0.0045 -0.0248
14750W        W32954  11.334   0.539  13.336  0.0183 -0.0799  0.0025
14751W        W32955   9.686  11.332  17.282 -0.0406  0.3298 -0.3048
14752W        W32956   5.480   0.259   5.043  0.1936 -0.2453 -0.3875
14753W        W32957  15.273  14.173   3.651 -0.5098 -0.0866 -0.0646
14754W        W32958   4.404  10.703   2.822 -0.0851  0.3924  0.1916
14755W        W32959  13.205  12.775   3.015 -0.0239  0.0557  0.1689
14756W        W32960  14.924  13.105   5.300  0.1525 -0.2059  0.1579
14757W        W32961   7.527   0.510   0.398  0.1629  0.3205 -0.1868
14758W        W32962  15.590   4.878  15.800  0.1640  0.4699  0.0878
14759W        W32963   3.183  14.506  14.991  0.1796  0.0111 -0.1659
14760W        W32964  10.650  14.221   1.553 -0.1090  0.0669 -0.0638
14761W        W32965  13.740   0.383  13.339  0.2052 -0.0026  0.1040
14762W        W32966  15.942   1.002  13.672 -0.2281  0.1454  0.1945
14763W        W32967  15.054  15.785   0.096 -0.2030 -0.0890 -0.3433
14764W        W32968   3.943   7.953  15.794  0.0671 -0.1835 -0.0804
14765W        W32969  15.005   2.800  16.488 -0.0831  0.0118 -0.1061
14766W        W32970   7.399  16.562  16.555 -0.1054 -0.0933 -0.1908
14767W        W32971   6.526   7.191   4.866 -0.0688 -0.2159 -0.0610
14768W        W32972   7.191   2.441   1.009  0.1086 -0.0835  0.0021
14769W        W32973  11.058   1.290   2.367 -0.0979 -0.0862  0.2318
14770W        W32974  16.106   9.846  13.529 -0.4257  0.3529  0.0100
14771W        W32975   1.161  15.893   2.581  0.1576 -0.1893  0.1508
14772W        W32976  13.744   5.142   4.308  0.2351 -0.0909 -0.0861
14773W        W32977   8.934   8.193  12.323  0.2036  0.1701 -0.1833
14774W        W32978  14.074   6.045   0.253  0.0359  0.0145  0.1321
14775W        W32979   1.165   9.091  11.876  0.3062  0.0348  0.1746
14776W        W32980   9.924  15.115   5.016  0.3979  0.3212  0.2246
14777W        W32981  15.363   7.841  14.913  0.1967 -0.0529  0.1930
14778W        W32982   8.041  13.577  14.114 -0.5415 -0.3348 -0.0612
14779W        W32983   9.128   8.135  14.783 -0.2202 -0.2381 -0.1321
14780W        W32984   2.384   3.170  14.766  0.4855 -0.1852 -0.4163
14781W        W32985  10.520   4.030   5.687  0.0883  0.0662  0.3173
14782W        W32986  13.638   1.464   3.910 -0.1076  0.0721  0.0364
14783W        W32987   1.137   8.631   4.473  0.0908  0.0360 -0.0877
14784W        W32988   9.571   6.777   0.146  0.1075  0.3887 -0.3879
14785W        W32989   9.516  11.494  14.068  0.1012  0.2261  0.0716
14786W        W32990   5.484   4.622   0.742 -0.1311  0.0191 -0.2515
14787W        W32991  12.439   4.106  14.221  0.3374 -0.3695 -0.1534
14788W        W32992   8.060  14.674   5.029 -0.1322 -0.0224  0.1140
14789W        W32993  15.887   7.210  14.957 -0.0744 -0.0401  0.2248
14790W        W32994   1.466   4.526   0.079 -0.2165 -0.0359 -0.0257
14791W        W32995  10.628  15.676  11.823  0.1338  0.1918 -0.1586
14792W        W32996   5.981   5.902  16.533  0.1347 -0.2934  0.0811
14793W        W32997   8.662  16.596   2.476 -0.1330 -0.0312  0.0376
14794W        W32998  15.288  17.403  16.217  0.1222  0.2925 -0.1296
14795W        W32999  11.306   5.616   3.862  0.3406  0.1713 -0.0305
14796W        W33000  16.871   3.404   0.582 -0.1527  0.0974 -0.3767
14797W        W33001   6.936   9.994   3.253  0.0922 -0.0901 -0.2624
14798W        W33002   3.666   9.834  16.318  0.0968 -0.0606 -0.0038
14799W        W33003   2.483   1.502  12.251 -0.1628  0.2095  0.0693
14800W        W33004   1.049   9.036  14.041  0.1003  0.0779 -0.0024
14801W        W33005   7.203   1.633   0.515 -0.0762  0.0680  0.0279
14802W        W33006  10.285   2.040   2.056 -0.1465  0.0787  0.0282
14803W        W33007  10.127   6.801  13.978 -0.2819 -0.1453  0.0336
14804W        W33008  15.279  12.783   5.511  0.1406 -0.1742  0.2731
14805W        W33009   4.942  11.014  15.727 -0.0543  0.2001 -0.1219
14806W        W33010  11.798   6.924  15.062 -0.0226  0.0654  0.1149
14807W        W33011   3.097  14.530   2.536 -0.0304  0.0582  0.2275
14808W        W33012   4.412  11.468   4.663 -0.2469  0.1715  0.0917
14809W        W33013  14.602  15.343  14.841 -0.0781  0.5906  0.0206
14810W        W33014   8.482   7.858  12.056  0.0888 -0.3889  0.1486
14811W        W33015   8.712   2.087  12.043  0.4008  0.0536 -0.0998
14812W        W33016  10.322  14.586  15.699  0.0409  0.0727  0.0943
14813W        W33017  12.207   8.930   1.297 -0.2835 -0.0328  0.1175
14814W        W33018  12.861   4.795  12.588 -0.0221 -0.1463 -0.1060
14815W        W33019  16.517   3.596  15.606  0.1173  0.0408 -0.1724
14816W        W33020   0.661   1.456   2.677  0.2137  0.2399 -0.0425
14817W        W33021   5.326   0.501  16.440  0.1625  0.0988  0.1445
14818W        W33022   3.824   6.826   1.164 -0.1194  0.0001  0.0064
14819W        W33023  15.964  13.107  16.560 -0.0407  0.3332 -0.1720
14820W        W33024   7.476   9.010   1.477  0.1734  0.1383  0.1855
14821W        W33025  16.949   2.170  15.348 -0.2279  0.2349  0.0714
14822W        W33026   2.260   0.655  16.455 -0.4090  0.1842  0.2842
14823W        W33027  14.157   8.700   5.475  0.0528  0.1939  0.0022
14824W        W33028  16.237   9.726  12.438 -0.3493 -0.2639  0.1293
14825W        W33029  11.651   8.956  15.318  0.1308  0.0961  0.0635
14826W        W33030  16.849  14.249  16.739 -0.0813 -0.0370  0.0318
14827W        W33031  10.796   3.400   1.488  0.1529 -0.0269  0.0389
14828W        W33032  16.317   3.927  14.481 -0.1930  0.3532 -0.1997
14829W        W33033  16.351   2.019   0.042  0.2475  0.1423  0.0490
14830W        W33034   9.725  15.554   4.209 -0.2011  0.1091 -0.0236
14831W        W33035  12.140  15.452   2.441 -0.0212 -0.1127  0.0334
14832W        W33036   3.661  10.662  12.646 -0.2896 -0.0042  0.1781
14833W        W33037  14.128   6.551  14.542 -0.2508  0.0368  0.0778
14834W        W33038  12.020   1.175  13.395 -0.1836  0.1706  0.2300
14835W        W33039   3.653  12.442  13.783  0.2071 -0.2753 -0.0675
14836W        W33040   9.867  14.026   2.846  0.0124  0.2043  0.1013
14837W        W33041  11.898  11.164   1.691 -0.0916 -0.1133 -0.1707
14838W        W33042  12.960  16.871  13.371  0.2834 -0.0650  0.4366
14839W        W33043   0.405  10.207   1.902  0.0097 -0.0379 -0.4284
14840W        W33044  15.880  14.347  16.432 -0.0437  0.0839 -0.1995
14841W        W33045   2.889   9.063   3.711  0.0323  0.0482  0.3661
14842W        W33046   1.375  16.519   3.187  0.2379  0.2198  0.0813
14843W        W33047   1.778  16.499  12.320  0.1539 -0.2116 -0.2211
14844W        W33048   5.811  11.804   1.892 -0.1043 -0.2760 -0.0655
14845W        W33049   7.866  17.200  15.679 -0.2435 -0.4087 -0.1936
14846W        W33050   0.113   1.924  16.836 -0.3012 -0.2279  0.2845
14847W        W33051  11.178   8.093  16.553  0.2020 -0.0528 -0.2777
14848W        W33052   0.100   6.057   4.003 -0.0703 -0.0504  0.1575
14849W        W33053  14.813   0.518   2.815  0.1073  0.2773 -0.0053
14850W        W33054  10.279   8.164   5.167 -0.0555 -0.2346 -0.1440
14851W        W33055  12.616   7.980  15.170 -0.1263 -0.1771 -0.1573
14852W        W33056   0.819   1.268  13.479  0.2214  0.3162  0.0469
14853W        W33057   8.074   8.305   3.440 -0.0153 -0.0138 -0.1965
14854W        W33058  17.285   5.501  13.222  0.4056  0.1386  0.1014
14855W        W33059  13.628  16.533  15.475 -0.2048 -0.0977  0.2108
14856W        W33060  11.565   3.920   1.277  0.0243  0.1838  0.3235
14857W        W33061   5.675   7.248  13.683 -0.0388 -0.5217  0.1417
14858W        W33062   2.173  12.872  15.981 -0.0976 -0.1447 -0.1999
14859W        W33063  17.243  15.135  12.424 -0.0391 -0.0664 -0.0449
14860W        W33064   9.059  12.028   4.643  0.1905  0.0002  0.1526
14861W        W33065  13.159  15.125  12.745 -0.3231  0.2141  0.4692
14862W        W33066  13.075   4.767  14.077 -0.0153 -0.1326  0.1394
14863W        W33067  13.693   7.977  13.819 -0.0018 -0.0871 -0.1069
14864W        W33068   6.219  16.019   3.961  0.0339 -0.2171 -0.0554
14865W        W33069   9.086   4.036   1.013  0.0986 -0.0584 -0.1394
14866W        W33070   9.900   1.003   4.005  0.0129 -0.0984  0.0462
14867W        W33071   1.805   8.881   0.975 -0.0025 -0.2505 -0.2027
14868W        W33072  14.732  15.892   4.369 -0.5742 -0.0880  0.2455
14869W        W33073  16.052   1.767  13.164  0.1652 -0.1440 -0.2146
14870W        W33074  14.855  16.463  12.184 -0.0672 -0.5007 -0.0436
14871W        W33075   1.165   2.637   5.452 -0.2791 -0.1101 -0.0656
14872W        W33076   4.617   2.575  16.865 -0.1463 -0.0178  0.2078
14873W        W33077   3.481   5.833   3.339  0.2242  0.1172 -0.1425
14874W        W33078   2.924  11.929  13.855 -0.0484  0.1761  0.0571
14875W        W33079   1.589   1.246  13.622 -0.0562 -0.3095 -0.0716
14876W        W33080   8.766  10.175   3.246 -0.0791 -0.1935 -0.1113
14877W        W33081  10.569  11.889  12.682 -0.0007  0.0036 -0.0629
14878W        W33082  15.092   1.593  14.467 -0.0068  0.1330  0.1582
14879W        W33083   6.075   3.263  13.695  0.0694  0.2069 -0.1784
14880W        W33084  14.805   3.902   4.710 -0.0443  0.4934 -0.0786
14881W        W33085   0.162   7.243  15.988 -0.0487 -0.2854  0.0267
14882W        W33086   7.527   9.968  12.694 -0.1700 -0.1791  0.1285
14883W        W33087  10.819  10.176   4.456  0.5120 -0.0564  0.2212
14884W        W33088  10.602   8.891   3.779  0.1010 -0.1665  0.0003
14885W        W33089  16.089  11.987   2.201 -0.0966  0.1367 -0.1977
14886W        W33090  16.271   6.860  12.457 -0.3485  0.1954  0.1575
14887W        W33091  10.135   4.476  15.515 -0.0422  0.2631 -0.1397
14888W        W33092   5.126   2.437   2.943 -0.0508  0.5252 -0.1240
14889W        W33093  11.649  13.714  11.860 -0.1989  0.0154 -0.0871
14890W        W33094  16.076  16.849   1.220 -0.1507 -0.0511  0.0076
14891W        W33095  11.285   0.568  11.794 -0.1250  0.1957  0.4406
14892W        W33096   2.767   2.391  13.105  0.1906 -0.1190  0.1767
14893W        W33097  11.863  15.809  16.841  0.2363 -0.0294 -0.0985
14894W        W33098   9.738   2.088   4.154 -0.1593  0.0706  0.3321
14895W        W33099  10.439   3.159   0.919  0.2457 -0.1538 -0.3461
14896W        W33100   1.184  17.033  16.478  0.3318  0.2856  0.2160
14897W        W33101   2.543   1.057  13.270  0.0975 -0.3129 -0.3273
14898W        W33102  15.673   2.610   4.642  0.4979 -0.2404  0.0645
14899W        W33103  12.728   6.231   2.286 -0.2041  0.1101 -0.0599
14900W        W33104   5.850   5.903   1.707 -0.1597  0.3768  0.0419
14901W        W33105  17.099   5.451  14.838  0.0885 -0.2697  0.1224
14902W        W33106  17.391  13.369   2.537  0.0427 -0.0007  0.1614
14903W        W33107   9.753   2.756  15.442 -0.3468  0.0159  0.2645
14904W        W33108   1.294  12.532  15.993 -0.0188  0.1519 -0.1265
14905W        W33109   4.578   5.215  12.601 -0.1390  0.0778  0.0003
14906W        W33110  17.060  16.311   2.804 -0.2344  0.1743 -0.0199
14907W        W33111  16.657   6.708  14.553  0.1345  0.0166  0.0291
14908W        W33112  17.104   3.817  13.457  0.1497 -0.0731  0.0218
14909W        W33113   5.662  16.205   0.516  0.0569 -0.2317  0.0818
14910W        W33114   4.190   0.492   5.409 -0.0979 -0.1202  0.0405
14911W        W33115  15.198   2.405   0.981  0.2621  0.3580  0.0231
14912W        W33116   2.703   0.924  14.144 -0.1723  0.0887  0.2225
14913W        W33117   1.218   7.254  12.303 -0.1831  0.2835 -0.1757
14914W        W33118  16.163   9.256   2.965  0.1456  0.1226  0.0227
14915W        W33119   6.073   2.620  14.547 -0.1020 -0.4738 -0.0333
14916W        W33120   0.511   3.006  15.449  0.1967  0.2048  0.1786
14917W        W33121   3.464  16.242   4.829  0.2579 -0.0351  0.1186
14918W        W33122   5.153   1.204  14.313  0.0691  0.2662  0.2470
14919W        W33123  15.970   3.706  15.541  0.0029 -0.0444 -0.0286
14920W        W33124  12.116  14.120  15.881 -0.0751 -0.1535 -0.2983
14921W        W33125   3.024   1.776   5.230  0.1070  0.2364  0.0988
14922W        W33126  12.176  15.156  14.295  0.0953  0.0647  0.0602
14923W        W33127   5.618  10.394  16.792 -0.1742 -0.0813  0.3603
14924W        W33128  12.162  12.693   0.704  0.3995 -0.0161  0.0683
14925W        W33129  11.278   0.140   4.832  0.0854 -0.3914  0.0144
14926W        W33130   0.940  16.942   2.437  0.1782  0.1112  0.1425
14927W        W33131   4.976  14.335  13.770 -0.1340  0.1897  0.3474
14928W        W33132   4.214   8.045   1.040 -0.0782  0.0018 -0.0925
14929W        W33133  16.557   5.683  13.189  0.0988  0.2257  0.2237
14930W        W33134   7.800  17.101  13.225  0.1020 -0.5161 -0.2306
14931W        W33135   5.705   5.260   2.504  0.2397  0.3585  0.0945
14932W        W33136   3.087  11.913   3.247 -0.1823  0.0454 -0.2121
14933W        W33137  13.603  12.917  16.593  0.2284 -0.0669  0.0702
14934W        W33138  14.197  12.587   2.007 -0.2396 -0.0615  0.2254
14935W        W33139   5.532  13.380   3.559 -0.0821  0.1176 -0.1905
14936W        W33140  15.644  14.310   1.629  0.2247 -0.1845  0.2236
14937W        W33141   8.135  16.582  13.201 -0.4479  0.0620  0.0339
14938W        W33142   5.687   9.988   0.647 -0.0425  0.0494 -0.2419
14939W        W33143   8.892  15.013  13.091 -0.0412 -0.0454 -0.1757
14940W        W33144  12.394  15.667  16.708  0.0354  0.0321  0.1479
14941W        W33145  15.371  10.387   1.161 -0.0740  0.0604 -0.0336
14942W        W33146  16.827   8.447  13.773  0.4572  0.0769  0.1343
14943W        W33147   6.180   7.928   1.777  0.1330  0.1797  0.3067
14944W        W33148  12.754   2.028  14.088  0.0884 -0.0985 -0.4712
14945W        W33149   1.333   4.301  14.381 -0.0047  0.0944 -0.0032
14946W        W33150  12.037   1.676   1.938 -0.1805 -0.2465  0.1468
14947W        W33151  13.258  14.777  13.093 -0.0777  0.1392 -0.1799
14948W        W33152  17.183   8.556   6.047 -0.0049 -0.0877  0.0606
14949W        W33153   2.625   4.084  16.069  0.1318  0.3345 -0.0881
14950W        W33154  10.244   9.968  12.321  0.0900 -0.2081 -0.0801
14951W        W33155  10.965   2.118  14.963  0.1047  0.3556  0.0227
14952W        W33156   0.322   3.422  15.165  0.1538  0.1809  0.0122
14953W        W33157  15.135  13.452  15.248 -0.1613 -0.0454 -0.1010
14954W        W33158   5.357   7.702  13.510  0.0455  0.0066 -0.0120
14955W        W33159   9.691   0.555   2.476 -0.1888 -0.1002  0.1364
14956W        W33160   0.542  11.249   3.039  0.2995 -0.3786  0.1949
14957W        W33161   3.640  14.923   1.892 -0.0663  0.0134 -0.2272
14958W        W33162   4.028  11.066   4.455 -0.1203  0.0010  0.0707
14959W        W33163   2.420  16.612  15.599  0.3346  0.0174 -0.1368
14960W        W33164   4.741   8.147   0.189  0.1038 -0.0827  0.0019
14961W        W33165   0.581  13.675   2.212 -0.0539  0.1047  0.0145
14962W        W33166  11.292   7.708   3.306  0.3450 -0.0167 -0.1051
14963W        W33167   1.519   0.586   5.992 -0.0359 -0.2763  0.0955
14964W        W33168   2.238  11.208   4.905 -0.0719  0.1266 -0.2165
14965W        W33169   2.652  14.864   0.799  0.3383 -0.2095  0.2556
14966W        W33170  10.333  14.753  14.840 -0.0138  0.0988  0.1523
14967W        W33171  14.309   2.973  13.227 -0.1588  0.0333 -0.1349
14968W        W33172   5.775  15.540  11.661 -0.1512 -0.0342 -0.1109
14969W        W33173   6.663  10.251  17.115 -0.3397  0.0951 -0.0018
14970W        W33174  15.481  13.415   4.488 -0.1878 -0.2339 -0.2693
14971W        W33175  13.197   0.426   5.448 -0.1807 -0.0656 -0.0757
14972W        W33176   9.934   2.809  17.022 -0.0412 -0.0752 -0.0565
14973W        W33177   1.966   6.049  13.077  0.0993 -0.0226 -0.0137
14974W        W33178   4.477   7.622   3.642  0.0432 -0.3574  0.0874
14975W        W33179  16.278   1.344   1.183  0.2372  0.0840 -0.2321
14976W        W33180  14.156   3.867   0.026  0.0479  0.0743  0.0197
14977W        W33181  15.839   8.362  16.336  0.0328 -0.4500  0.2328
14978W        W33182   3.088   3.801  14.755  0.1807  0.1905 -0.3813
14979W        W33183   1.761  16.310   5.229  0.0135 -0.4520  0.0294
14980W        W33184   3.208   6.439  15.404  0.3347 -0.1290 -0.0535
14981W        W33185   1.669   9.413  16.698 -0.0169  0.4923  0.1554
14982W        W33186   3.161  13.162  15.598 -0.1199  0.0765 -0.2517
14983W        W33187   3.809   1.794  12.411 -0.1506 -0.0200  0.1006
14984W        W33188   6.369   7.773   4.803  0.0664  0.1324  0.2772
14985W        W33189   1.152   7.142   2.156 -0.4627  0.2279  0.0342
14986W        W33190   5.596  12.599   3.881  0.3613 -0.0335 -0.2622
14987W        W33191   8.441  13.784  12.681 -0.0238 -0.4206 -0.2985
14988W        W33192  10.868   5.883  16.671  0.1035 -0.1235 -0.3189
14989W        W33193   1.731  16.652  12.908  0.1830 -0.3271  0.4536
14990W        W33194   5.255  15.277  12.335 -0.1528  0.2607  0.0471
14991W        W33195  17.256  14.223   2.007 -0.0628 -0.1831  0.0812
14992W        W33196   0.468   8.611   4.881  0.2289 -0.1806  0.3113
14993W        W33197   1.426  10.124   4.545 -0.0962 -0.1494  0.1753
14994W        W33198  14.562   4.979   4.686 -0.0619 -0.1255 -0.3596
14995W        W33199  10.823   8.806   1.922 -0.1959 -0.2132  0.0091
14996W        W33200   9.553  16.864  12.591 -0.0901  0.2628 -0.0221
14997W        W33201  15.623  13.964   5.248  0.1731 -0.0140 -0.0503
14998W        W33202  11.468  17.417  17.001 -0.0123  0.0243  0.0842
14999W        W33203   0.942   6.817   4.970 -0.2962  0.2108  0.1532
15000W        W33204   1.734  15.358   4.971 -0.1703 -0.0849  0.1516
15001W        W33205   9.692   9.091  16.798 -0.0194  0.2288 -0.0766
15002W        W33206   6.185  11.415   1.998  0.2133  0.1676 -0.1873
15003W        W33207  10.398   7.509  14.074  0.2583 -0.3096  0.1021
15004W        W33208   7.055  11.131   4.127 -0.1711  0.0260  0.1751
15005W        W33209  13.492  12.485   0.211 -0.1094  0.2661 -0.0038
15006W        W33210  13.909   4.272  12.170 -0.2386  0.1467  0.2202
15007W        W33211  12.546  17.395   5.251 -0.0549  0.3400 -0.3249
15008W        W33212   6.889  11.264  12.522 -0.4221  0.0713  0.0295
15009W        W33213   2.985   9.526  14.529  0.0840 -0.1767  0.0828
15010W        W33214   3.735   8.525  14.843  0.1025  0.0232 -0.1496
15011W        W33215   4.746  17.534  13.786  0.2831  0.0047 -0.2316
15012W        W33216  13.283  14.045   4.702 -0.0266  0.0254  0.0849
15013W        W33217  15.986   5.596   5.482  0.0184  0.2056 -0.0035
15014W        W33218   6.123  16.539   0.374 -0.0005 -0.2069  0.0578
15015W        W33219   8.097  10.988  14.578 -0.0593 -0.4524  0.4039
15016W        W33220  10.526   1.380  15.546 -0.0934  0.0927 -0.1072
15017W        W33221   2.691  12.217   1.174 -0.2857  0.1085 -0.1576
15018W        W33222  16.490   5.592   5.475 -0.0826 -0.0261 -0.1386
15019W        W33223   8.767   0.162  16.497  0.1609 -0.0065 -0.4376
15020W        W33224  12.972  15.036  17.073  0.0911 -0.0935  0.2682
15021W        W33225  13.265  12.103  16.061 -0.0302 -0.1796 -0.1533
15022W        W33226   1.339  13.734  13.867  0.1161 -0.1864 -0.2907
15023W        W33227   0.740   0.583  14.101 -0.2909  0.0244  0.4557
15024W        W33228   0.291  10.945  16.772 -0.3198  0.0443 -0.3316
15025W        W33229   9.198   6.566   2.308  0.3438  0.0973 -0.0066
15026W        W33230   5.495  17.076   4.333 -0.2180  0.2884  0.0618
15027W        W33231  12.802   7.431   0.454  0.3966  0.4747 -0.0864
15028W        W33232   6.214   2.248   4.887 -0.0188 -0.2955 -0.0470
15029W        W33233  10.981  14.503  17.029 -0.0825 -0.1041  0.0394
15030W        W33234  15.193  10.270   5.098  0.1886 -0.0263 -0.2033
15031W        W33235   1.061   9.405  12.734 -0.0744  0.2812  0.0428
15032W        W33236   1.480   2.762   3.216 -0.5573  0.4442 -0.3613
15033W        W33237  12.074   9.858   2.119 -0.1080 -0.0448 -0.3943
15034W        W33238   8.387   5.128   0.719 -0.2629 -0.0928  0.2384
15035W        W33239   1.950   8.430  12.668 -0.1455 -0.1663 -0.0590
15036W        W33240  16.283   0.756  16.944  0.1825 -0.0160 -0.1800
15037W        W33241   5.520  10.347   1.037  0.2496 -0.2500 -0.0018
15038W        W33242  10.798   9.849   0.814 -0.1531  0.0073 -0.1209
15039W        W33243   9.794   2.622   0.704 -0.1521  0.0254 -0.3572
15040W        W33244  17.259  17.440   4.732 -0.0512 -0.1524  0.0282
15041W        W33245   6.537  10.576   4.016 -0.3341 -0.2042 -0.3214
15042W        W33246   9.408   7.867  14.415 -0.1242 -0.0253 -0.2112
15043W        W33247   3.786   0.894   3.397  0.0854  0.0893  0.1721
15044W        W33248   4.938   9.868   3.339 -0.4796 -0.1265 -0.3921
15045W        W33249   7.044   6.870   1.449 -0.0955  0.2192  0.2645
15046W        W33250  15.959   8.236  15.328 -0.3357  0.0685  0.0122
15047W        W33251   7.228  13.326  12.367 -0.1021  0.0131 -0.0616
15048W        W33252  16.944   8.240  16.186 -0.1534  0.2967 -0.1982
15049W        W33253   7.185  15.288  14.585  0.1927  0.0883 -0.1046
15050W        W33254   1.406  13.244   4.232 -0.0946 -0.0758  0.0112
15051W        W33255   7.363  12.573  16.821  0.0147 -0.1778 -0.0345
15052W        W33256  15.323  16.580   6.281 -0.1962  0.0688 -0.0475
15053W        W33257  13.846  15.975  13.798 -0.3206  0.1060  0.0304
15054W        W33258   3.962   0.636  15.790  0.1859  0.4210  0.2343
15055W        W33259  17.518  15.853  12.604  0.0232 -0.0834  0.0390
15056W        W33260  16.891  11.262  16.408 -0.0758 -0.3461  0.1023
15057W        W33261   6.100  11.335   4.192 -0.0305  0.0400 -0.2331
15058W        W33262  12.712   0.330  16.326  0.0652  0.1942 -0.0337
15059W        W33263  15.309  14.362   5.584 -0.1040  0.0189  0.0958
15060W        W33264  13.002  12.726   4.004  0.1436  0.0755 -0.1789
15061W        W33265  15.990   3.347  12.230  0.0894  0.2120  0.0395
15062W        W33266   2.515  12.051   0.667 -0.1633 -0.0873  0.2882
15063W        W33267  11.966   6.999   0.148 -0.0942 -0.0961  0.2264
15064W        W33268   4.435  10.759   0.652  0.1312  0.0662  0.1501
15065W        W33269  13.957   1.978  15.162 -0.1197  0.1044  0.0629
15066W        W33270   3.879   2.943  15.549 -0.2768  0.1715  0.1689
15067W        W33271  17.339   6.034  13.364  0.0496 -0.0246 -0.0892
15068W        W33272  12.479   0.181   4.165  0.0587  0.0032 -0.1898
15069W        W33273   9.198   1.975   2.310  0.3163  0.0732 -0.0591
15070W        W33274   8.413  16.228   3.765 -0.2110  0.3279  0.2606
15071W        W33275  14.258   0.600  11.739 -0.0478  0.0394 -0.1330
15072W        W33276   1.117   6.863   4.001  0.0764  0.1443  0.0618
15073W        W33277   5.177   6.942  15.809 -0.3114  0.2954  0.2320
15074W        W33278   5.290   5.693  12.432  0.3886  0.1179 -0.0131
15075W        W33279   1.187  14.951  13.294  0.0314 -0.2607  0.0843
15076W        W33280  15.885   0.180   2.137  0.2747  0.2957  0.3000
15077W        W33281  13.960   8.332   2.432  0.1084  0.0784  0.0365
15078W        W33282   4.755  13.741   4.882 -0.2296  0.1463 -0.3199
15079W        W33283   0.728   9.037   3.943 -0.2529  0.0537  0.0352
15080W        W33284   5.210   5.281  13.777  0.0150 -0.1689 -0.0103
15081W        W33285   4.737   6.482   1.069 -0.2854  0.1333 -0.2097
15082W        W33286   7.739   5.923  14.425 -0.1872 -0.0749 -0.1293
15083W        W33287   8.703   5.471  12.241  0.1423 -0.2004  0.1573
15084W        W33288   3.915   2.273  12.607  0.2605  0.0423 -0.1143
15085W        W33289  15.060  16.735   3.030  0.0640  0.0553 -0.1859
15086W        W33290   8.359   6.624   3.233 -0.1747  0.0371 -0.0450
15087W        W33291  10.351   1.981   2.653 -0.1202  0.0727 -0.0854
15088W        W33292   0.462   0.264  13.797  0.1180 -0.1692  0.2967
15089W        W33293   9.751  11.961   1.363 -0.0444  0.2415  0.0201
15090W        W33294   3.741  16.983   2.160 -0.2359 -0.2921 -0.0147
15091W        W33295  10.654   3.660  16.665  0.0095 -0.0878  0.3000
15092W        W33296   9.264  13.318  15.631  0.3331  0.0411 -0.0159
15093W        W33297   5.523   3.672  14.220  0.0989  0.0302 -0.1003
15094W        W33298   6.215   7.431  15.363  0.0835 -0.1984 -0.3241
15095W        W33299  16.319  10.411  15.719 -0.0861  0.0248  0.1795
15096W        W33300   8.966   2.517   3.550  0.0351 -0.2029  0.1526
15097W        W33301  17.054  10.208   1.996  0.1039 -0.2841  0.2810
15098W        W33302  11.609  10.339  11.760  0.0803 -0.0900 -0.2426
15099W        W33303  17.493  14.277  10.890 -0.0485 -0.1322  0.0398
15100W        W33304   7.613   1.505  15.283 -0.3558  0.0659  0.1609
15101W        W33305   2.442  15.665   3.882 -0.1190 -0.0256 -0.3126
15102W        W33306  11.448   1.231  12.732 -0.0501 -0.2225  0.1162
15103W        W33307   6.754   0.574   3.981  0.3539  0.0080 -0.1731
15104W        W33308   8.534  10.051   2.489 -0.0393 -0.0404  0.1009
15105W        W33309  15.002  15.116  13.704  0.1331 -0.1060 -0.1243
15106W        W33310  15.658  16.583  16.497 -0.0092 -0.1608  0.1599
15107W        W33311  13.063  11.833   3.219 -0.2756 -0.1406  0.1208
15108W        W33312  10.742  16.218   5.260  0.1582 -0.0368  0.2424
15109W        W33313   0.606   5.862   5.012 -0.4092 -0.5052  0.0845
15110W        W33314   4.441   5.015   3.129 -0.1034  0.0321  0.2015
15111W        W33315   5.277  10.722   2.625 -0.0829 -0.2090  0.2610
15112W        W33316  10.178   8.573   3.560 -0.2501 -0.1632 -0.0823
15113W        W33317  10.459   1.665   0.401 -0.0101 -0.3130 -0.2989
15114W        W33318  13.735   0.835   4.684 -0.1234 -0.2184 -0.1969
15115W        W33319  12.132   7.806   2.836 -0.3345 -0.1347 -0.0881
15116W        W33320  15.264  12.632  16.186 -0.0696 -0.1419 -0.1144
15117W        W33321   0.401   6.725  13.122  0.3434  0.0129  0.1005
15118W        W33322   3.202   5.414  13.030 -0.2425  0.2617  0.0260
15119W        W33323   6.358  14.625   1.700 -0.0352  0.1743  0.1263
15120W        W33324  12.697   7.228   4.603 -0.0981  0.2310  0.1250
15121W        W33325   4.462   8.258   4.624 -0.0742  0.3346  0.1269
15122W        W33326   1.479  17.430  16.302 -0.1355 -0.0664  0.0222
15123W        W33327  16.615  10.442   2.316 -0.1114 -0.1239  0.1883
15124W        W33328   1.329   1.314   6.122 -0.0278 -0.0917 -0.3200
15125W        W33329   9.417   5.483  17.145 -0.3098  0.1486  0.1735
15126W        W33330   5.634   2.532  15.811  0.2539 -0.1199 -0.1674
15127W        W33331  12.438   7.156  16.602 -0.1020  0.1067 -0.0188
15128W        W33332  10.811   1.098   2.798 -0.1142  0.3072  0.0444
15129W        W33333   0.589   8.227   0.624  0.2074  0.2422 -0.1443
15130W        W33334   2.813   6.585   2.425  0.0708 -0.1999  0.0932
15131W        W33335  16.170   7.701   4.767 -0.0241  0.0298  0.1985
15132W        W33336  14.703   1.707   2.162  0.0797  0.4248  0.1093
15133W        W33337   8.575   2.029  12.866 -0.1620  0.0768  0.0494
15134W        W33338   1.380   0.908   4.153  0.0054 -0.1025 -0.1547
15135W        W33339  11.911   9.361  14.541  0.0736  0.0821 -0.0291
15136W        W33340   6.173   0.204   3.201 -0.0539  0.1199 -0.0732
15137W        W33341   0.818   9.590   2.497  0.1346 -0.0277 -0.1028
15138W        W33342  13.606  16.776  12.469 -0.1504  0.3232 -0.2967
15139W        W33343  10.333  12.792   1.150 -0.1480  0.1940 -0.0256
15140W        W33344  16.715   9.001  13.715 -0.1937  0.0728 -0.3879
15141W        W33345  12.030  11.243  16.499 -0.0541  0.0217 -0.0779
15142W        W33346   5.323   2.483  16.255 -0.2146 -0.2917 -0.3345
15143W        W33347   7.087   4.681   2.664  0.3023  0.3055  0.0183
15144W        W33348  17.542   1.673  12.556  0.0715  0.1297 -0.2029
15145W        W33349   1.864   2.872   2.425  0.1875 -0.1882  0.2086
15146W        W33350   2.566  12.848  11.836 -0.0374  0.3185  0.0819
15147W        W33351   2.970   2.087  14.879 -0.4276 -0.0589 -0.3841
15148W        W33352   9.497   8.080  15.782  0.1138 -0.2276 -0.1089
15149W        W33353   1.388  15.017  14.558  0.1088 -0.1615  0.0003
15150W        W33354   5.735  13.164   5.741  0.0743 -0.0802  0.1057
15151W        W33355  17.187   6.407   0.756 -0.0684 -0.1876 -0.2049
15152W        W33356   0.154  17.137  12.106  0.1933  0.2264 -0.0479
15153W        W33357   8.902  14.169   0.955 -0.0135 -0.0768 -0.0448
15154W        W33358   6.353  16.804  12.930 -0.1487  0.0556 -0.2313
15155W        W33359   0.195   2.722   2.606 -0.3074  0.0814  0.1593
15156W        W33360   8.334   7.884  13.068  0.0227 -0.0758 -0.1276
15157W        W33361   0.591  13.810  14.802 -0.5029 -0.0662 -0.2799
15158W        W33362   4.173  16.286   3.835  0.1017  0.3824 -0.2966
15159W        W33363   7.374   7.395  16.273 -0.3184 -0.0763  0.1707
15160W        W33364   9.696  12.646   0.424 -0.0400  0.0179  0.2232
15161W        W33365   7.860   1.284   5.022 -0.2148  0.1991  0.4611
15162W        W33366   8.675   5.043  15.583 -0.1609  0.1361  0.0546
15163W        W33367   1.297   5.209  15.916  0.1188  0.1387 -0.5105
15164W        W33368   3.729   1.787   4.574 -0.1375  0.2529 -0.1922
15165W        W33369  16.367   8.840   1.110 -0.0423 -0.1316 -0.0392
15166W        W33370   5.588   3.237  15.098  0.1212 -0.0422  0.1008
15167W        W33371   7.243   6.784   4.939 -0.2281  0.0886 -0.0827
15168W        W33372   8.734   8.666   2.598 -0.0379  0.1797 -0.0151
15169W        W33373  10.075  14.351  12.096 -0.0956  0.1498 -0.1296
15170W        W33374   3.931   0.290   4.830 -0.0698 -0.0386  0.2071
15171W        W33375   5.550   6.006  13.512  0.1267 -0.1971 -0.0708
15172W        W33376   1.401   0.686  14.913 -0.3531 -0.2127 -0.1050
15173W        W33377  10.572   3.539   0.597  0.3604  0.1044 -0.0174
15174W        W33378  16.431  15.094   3.282 -0.1074 -0.0442  0.1585
15175W        W33379  12.594   2.292  12.533 -0.1569 -0.0537  0.0279
15176W        W33380   3.088   2.066  16.928  0.0550 -0.0746 -0.0420
15177W        W33381   8.395   5.521   3.701 -0.0335 -0.0124 -0.2151
15178W        W33382   7.518   8.369   4.136  0.0022 -0.2109  0.1049
15179W        W33383   7.871   3.640   2.321  0.1950  0.0573 -0.1378
15180W        W33384  15.516   8.851  13.776 -0.0698 -0.0758  0.5022
15181W        W33385  12.475   9.335   5.006  0.0290 -0.1624  0.2686
15182W        W33386   0.185   1.127   3.364  0.1931  0.0032 -0.1540
15183W        W33387  11.409  14.780  16.205  0.0965 -0.0406  0.1510
15184W        W33388  10.529  14.334  14.330  0.0377  0.4572 -0.1771
15185W        W33389  10.266  11.042  16.272 -0.0484  0.2679  0.2468
15186W        W33390   3.497   8.236  15.403 -0.3410 -0.0880 -0.1573
15187W        W33391  11.863  16.027   0.156 -0.1208  0.1340  0.0653
15188W        W33392  10.406  14.223   3.983 -0.1845 -0.3148  0.1552
15189W        W33393   2.318  13.785   5.402  0.1856 -0.1462  0.1654
15190W        W33394  15.936   6.292  14.632 -0.3407  0.0373  0.1809
15191W        W33395   1.613  12.307   0.601  0.1187  0.1373  0.0804
15192W        W33396   4.989   2.021  13.292 -0.1446 -0.2383 -0.2726
15193W        W33397   1.726   5.919  13.840 -0.2060 -0.0710  0.1377
15194W        W33398   8.643   7.341  14.188  0.2800 -0.0117 -0.1952
15195W        W33399   9.703   4.224   0.017  0.1598 -0.0000  0.2044
15196W        W33400  12.196  15.923   0.872  0.3495  0.1686 -0.1564
15197W        W33401  13.773  16.363  16.471 -0.0153 -0.1818 -0.1477
15198W        W33402  15.961  17.371  12.364 -0.0769  0.0738 -0.0222
15199W        W33403   2.299   1.556  12.720 -0.3529  0.1190  0.1717
15200W        W33404   4.125  11.474  17.241  0.0934  0.3435 -0.2974
15201W        W33405   2.888  10.676   5.023 -0.1986  0.3700 -0.1002
15202W        W33406  15.419   8.413  14.402 -0.0611 -0.1011  0.0355
15203W        W33407   2.320   8.070  12.694 -0.0017 -0.1951 -0.1384
15204W        W33408  13.527   7.086   4.175 -0.1956  0.2434 -0.1346
15205W        W33409   7.626  13.149   4.177 -0.0290  0.0142 -0.2152
15206W        W33410  15.106   8.811   0.937  0.4503  0.1157 -0.1259
15207W        W33411   3.190   3.015   0.183  0.0818  0.1992 -0.1669
15208W        W33412   6.708   3.349  14.881  0.1308 -0.2288 -0.1502
15209W        W33413   7.867   0.243   2.886 -0.1256  0.0973 -0.0747
15210W        W33414   2.132   5.220  12.765 -0.1003 -0.0412  0.0230
15211W        W33415   6.850  10.720  13.567  0.1083 -0.1462 -0.3479
15212W        W33416   8.219  16.698   3.621 -0.2477  0.0565 -0.1945
15213W        W33417  13.399   2.133  16.225  0.2497 -0.0351  0.0021
15214W        W33418   3.556   4.177  12.791 -0.0847 -0.3065 -0.0648
15215W        W33419   2.592  17.252   2.845  0.1264  0.2256  0.3405
15216W        W33420   5.173  13.679   0.054 -0.3811 -0.1194 -0.1962
15217W        W33421   5.533  10.728   4.152 -0.3165 -0.0855  0.0101
15218W        W33422  16.721  16.471   2.242 -0.0339 -0.0423  0.0627
15219W        W33423  16.104  14.531   2.713  0.0181  0.0226  0.1378
15220W        W33424  16.858  12.060   3.862 -0.1088 -0.4731  0.0638
15221W        W33425   8.228   6.522   4.498  0.0852 -0.1821  0.5467
15222W        W33426   0.965   7.128  17.160 -0.1919  0.1444 -0.2311
15223W        W33427   8.626   3.533  14.457  0.0685  0.1039 -0.0366
15224W        W33428   2.009  13.980  13.136  0.0120 -0.3214 -0.2507
15225W        W33429   8.676   5.358   2.263  0.1883  0.2494  0.2281
15226W        W33430   2.343   7.694  15.822 -0.0606 -0.2490 -0.1028
15227W        W33431  14.288   0.528   6.242  0.1419 -0.0367 -0.0927
15228W        W33432   5.035  16.842  16.903  0.1826  0.0853 -0.0153
15229W        W33433   9.252  11.331  14.798  0.0880 -0.4749  0.2280
15230W        W33434   3.117   9.060  14.330 -0.1651 -0.1136  0.1141
15231W        W33435  10.488   6.620  15.086 -0.1013 -0.0134  0.0895
15232W        W33436   9.706  16.671   3.890  0.1539  0.1247  0.0683
15233W        W33437   8.801   9.543  13.455  0.1851 -0.2705 -0.1305
15234W        W33438   4.685   0.705   3.186 -0.3385 -0.0225  0.2113
15235W        W33439   7.305   7.564  14.380  0.0898 -0.3015  0.0297
15236W        W33440   0.924   5.324   0.496 -0.1651 -0.1433 -0.2475
15237W        W33441   5.757   3.183   3.827 -0.2573  0.2275  0.2791
15238W        W33442  10.206  13.399  13.686  0.2813  0.0728  0.0901
15239W        W33443  12.135   7.229  16.972  0.2295 -0.1730 -0.2376
15240W        W33444  17.295   4.138  13.766 -0.1630 -0.0369 -0.1761
15241W        W33445   5.956   6.296   2.033  0.1004 -0.4290  0.0465
15242W        W33446   6.413  15.504  15.141 -0.0008 -0.2555  0.2100
15243W        W33447   1.637   1.007  16.030 -0.0992 -0.0303 -0.1183
15244W        W33448   7.295   8.427   2.066  0.1413 -0.0679  0.0522
15245W        W33449  15.784   5.077   3.992  0.2795  0.1180  0.0957
15246W        W33450   2.265  13.655   2.198  0.0202 -0.0283  0.1400
15247W        W33451  13.051   9.347   1.380  0.0445  0.1830 -0.1679
15248W        W33452  17.024  14.718   3.204  0.2457 -0.0638  0.1710
15249W        W33453   0.164   4.175   1.681 -0.1422 -0.0438  0.1456
15250W        W33454  13.729   9.134  16.199 -0.5094  0.0308  0.0390
15251W        W33455  16.906   5.174   2.284  0.1536  0.2573  0.2495
15252W        W33456  15.602   1.387  16.268 -0.1029 -0.0923  0.1169
15253W        W33457   1.083  15.920  15.859  0.0561  0.0738 -0.2651
15254W        W33458   1.426  15.482  14.318  0.1773 -0.1692 -0.2950
15255W        W33459   3.537  11.367  16.404 -0.1794  0.2886 -0.2017
15256W        W33460   4.119   6.129  13.651  0.0416 -0.0868 -0.2408
15257W        W33461  12.925  14.942   2.678 -0.5930 -0.0444 -0.3062
15258W        W33462  15.942  10.441   2.833  0.1557  0.0517 -0.0999
15259W        W33463   7.195   9.831  14.438 -0.0279  0.1710  0.1846
15260W        W33464   0.387  14.959  15.056  0.0682  0.1556  0.4127
15261W        W33465   5.918  10.867   3.421 -0.1646  0.1315  0.1056
15262W        W33466  16.222  14.535  13.984 -0.0053 -0.1088  0.1256
15263W        W33467  15.917  10.246  15.376  0.2215 -0.0497 -0.1204
15264W        W33468  12.120  13.067  11.869 -0.1020 -0.0638  0.1320
15265W        W33469   6.893   1.088   3.908  0.0934  0.4941  0.0038
15266W        W33470   6.423   7.657  13.336 -0.1115  0.0083  0.0441
15267W        W33471   5.505  13.025   2.627 -0.0334  0.2960 -0.0810
15268W        W33472  15.046  10.353  15.627  0.3507  0.1191 -0.0299
15269W        W33473  16.246   4.369  14.860 -0.2122 -0.0297 -0.0718
15270W        W33474   0.389   6.716   0.400 -0.1777 -0.0071  0.2682
15271W        W33475   1.405   3.057  14.805 -0.3101 -0.0338  0.0196
15272W        W33476   7.945  10.095  14.966  0.0686  0.1492 -0.3599
15273W        W33477  16.388   9.860   4.727  0.1668 -0.2333  0.1230
15274W        W33478  10.775   3.532  14.903 -0.1536  0.1576 -0.0600
15275W        W33479   5.377  15.778   0.583  0.2302  0.0384 -0.0508
15276W        W33480   5.582  11.700   1.134 -0.2624  0.1636 -0.0484
15277W        W33481   4.673   7.500  12.128  0.1822 -0.1073 -0.0702
15278W        W33482   9.299  16.563   0.004  0.0077 -0.0531  0.1786
15279W        W33483   8.047  16.281   3.360 -0.0060 -0.2715  0.1263
15280W        W33484   9.831  12.613  12.369  0.0472 -0.1511  0.2743
15281W        W33485  10.805  15.277   4.000  0.2232  0.0841  0.1288
15282W        W33486  15.128   7.414   0.010 -0.0747  0.1187  0.0022
15283W        W33487  17.355  17.043   1.141 -0.1985  0.0662 -0.1079
15284W        W33488   9.166  12.163   2.836  0.3002 -0.1619 -0.2480
15285W        W33489   2.082   5.045   4.482  0.0762 -0.0726  0.3483
15286W        W33490  16.134  12.289   3.407  0.0530  0.3988  0.1393
15287W        W33491   1.909  15.399   2.928  0.0628 -0.2397 -0.3599
15288W        W33492  11.054   9.840  15.659 -0.2210 -0.1697  0.2223
15289W        W33493   0.653   4.949  14.695 -0.3261  0.2354  0.2464
15290W        W33494   7.417   6.303   4.923  0.1037  0.0937  0.0702
15291W        W33495  11.048  11.216  15.809  0.5085 -0.0718 -0.2991
15292W        W33496   1.575   6.547   1.044 -0.2361 -0.1077 -0.3652
15293W        W33497  14.219   8.607   3.962 -0.3783 -0.0474  0.1938
15294W        W33498   2.922  11.198  13.214  0.2310 -0.0108  0.0276
15295W        W33499  13.416   8.306  13.297  0.0894 -0.0599 -0.1294
15296W        W33500   7.396  12.952   5.438 -0.0280  0.0415  0.0679
15297W        W33501  12.535   3.733   0.067 -0.2642 -0.0460 -0.1128
15298W        W33502  15.873  14.600  13.168 -0.0560  0.0179  0.2874
15299W        W33503  15.255  15.655   0.886  0.0654 -0.2710  0.0447
15300W        W33504   1.565  10.511   2.458 -0.0719 -0.1883 -0.0288
15301W        W33505  14.205   9.350  12.383  0.0377 -0.2320  0.0921
15302W        W33506   7.216  14.271  16.576 -0.0462  0.2948 -0.2081
15303W        W33507   7.888  10.464  12.480 -0.1785  0.1040 -0.0952
15304W        W33508  14.339  11.714   3.604 -0.0574 -0.0988  0.1210
15305W        W33509   0.110  17.478  16.149 -0.0169 -0.2236 -0.1171
15306W        W33510   1.199   8.138  11.697 -0.2516 -0.1820  0.1265
15307W        W33511   9.862   4.001   0.427 -0.0559  0.3939  0.0894
15308W        W33512  10.029  12.920   5.253  0.1721 -0.0089 -0.2712
15309W        W33513  10.097  13.871  17.085 -0.0623  0.0708  0.0007
15310W        W33514  10.608   4.554   1.797 -0.0592  0.3895 -0.0006
15311W        W33515  12.345  13.003  13.819  0.1083  0.0875  0.1285
15312W        W33516   2.074   1.731  14.387 -0.1564 -0.0914  0.1456
15313W        W33517   5.963  10.636  15.016  0.1431 -0.1751 -0.1592
15314W        W33518  16.470  11.867  14.804  0.2014  0.2354 -0.0340
15315W        W33519  15.566  11.163   5.234  0.1906  0.0797  0.2358
15316W        W33520   6.602  16.755   4.851  0.1901  0.2405 -0.1040
15317W        W33521   1.973   5.463   3.575  0.0338  0.1486 -0.1831
15318W        W33522   1.483  10.237  13.727  0.1393 -0.0619  0.2568
15319W        W33523  16.943   0.878  15.489 -0.0132  0.0231 -0.2391
15320W        W33524  15.816  17.507  13.727  0.1767  0.0696  0.0564
15321W        W33525   3.195   5.013   3.547  0.1687 -0.2173  0.1797
15322W        W33526   0.701  17.135  13.736  0.0617 -0.0536  0.3623
15323W        W33527   2.059  15.602   5.639  0.0053  0.1918  0.1184
15324W        W33528   5.471  12.733  16.955 -0.1389  0.2437 -0.0213
15325W        W33529  15.048   0.098   2.471  0.2331 -0.0224  0.0091
15326W        W33530   9.657  11.173   0.879 -0.1633  0.0812  0.1439
15327W        W33531  14.790   1.301  12.039 -0.2917 -0.3338  0.0256
15328W        W33532  12.329  15.811  14.015 -0.1126 -0.4361 -0.1598
15329W        W33533   8.465  16.742   1.111 -0.2267  0.1607 -0.0680
15330W        W33534   7.795   5.908  13.097  0.0291  0.0785 -0.3081
15331W        W33535   4.892   5.585  14.049  0.4051  0.2365  0.0790
15332W        W33536  14.718  15.339   2.119 -0.3380  0.0010  0.2162
15333W        W33537  15.697   8.995   3.119 -0.0280 -0.1894  0.1100
15334W        W33538   7.771   2.132  16.729  0.0263  0.2243 -0.0618
15335W        W33539   9.865   6.923   6.588  0.2365 -0.0096  0.0131
15336W        W33540   6.443  10.014   2.334 -0.2361 -0.1108  0.0038
15337W        W33541  11.166   2.698  11.601 -0.0383 -0.3326 -0.0618
15338W        W33542   4.279   2.794  13.104  0.3763 -0.1919 -0.2616
15339W        W33543   8.889   4.948   4.220 -0.0674  0.1049  0.0812
15340W        W33544   3.690   7.729   4.456 -0.1332  0.0062  0.1715
15341W        W33545   4.908   9.411  16.118  0.0346 -0.4046  0.2767
15342W        W33546   3.649   8.073  14.913  0.0878 -0.4083 -0.0327
15343W        W33547  17.374   8.572   2.776  0.1290  0.2979  0.2441
15344W        W33548  17.267   1.387   4.513  0.0352 -0.0318  0.2526
15345W        W33549   4.929   6.728   4.919 -0.0340  0.2007  0.1670
15346W        W33550  12.256   4.132  15.964 -0.0470  0.0707 -0.2744
15347W        W33551  16.358   1.958  16.816  0.1049 -0.2760 -0.5250
15348W        W33552  14.200  16.919   1.839 -0.2338 -0.1507  0.1571
15349W        W33553   0.935   5.775   3.020 -0.0712  0.0064 -0.1786
15350W        W33554  17.257  10.093  16.774 -0.0738  0.0465 -0.1258
15351W        W33555  13.494   2.838  12.696  0.0898  0.0714 -0.0663
15352W        W33556  11.368  12.741  15.383  0.0055  0.3116  0.2391
15353W        W33557   6.485   8.560  15.766  0.0419 -0.1523 -0.0814
15354W        W33558  12.882  16.661   4.761 -0.0164  0.2553 -0.0509
15355W        W33559   6.190   8.147   4.489 -0.2458 -0.0417  0.1925
15356W        W33560   0.035  11.332  14.274  0.2887 -0.1052 -0.2387
15357W        W33561  17.286   3.051  14.050 -0.1457 -0.1411  0.0267
15358W        W33562   2.035   4.138  15.329  0.1927  0.0145  0.0570
15359W        W33563  16.142  16.865  16.539  0.0617  0.3018 -0.0126
15360W        W33564  15.718  13.436  16.856  0.0985 -0.3461  0.1679
15361W        W33565   8.615  11.200   4.756 -0.3147 -0.2800  0.0182
15362W        W33566  11.196  11.253   0.134 -0.0008  0.0323 -0.1071
15363W        W33567  11.360   8.357  15.823 -0.0937 -0.0535  0.2299
15364W        W33568   2.774  16.912   1.963  0.1674  0.0377 -0.2852
15365W        W33569   0.158   7.598   1.488 -0.2459  0.0525 -0.0006
15366W        W33570   6.532  12.221   3.591  0.0749 -0.1024 -0.0722
15367W        W33571  12.102  10.535  16.234  0.2186 -0.1561  0.4405
15368W        W33572  12.053   8.408   2.000 -0.2039 -0.3323 -0.2242
15369W        W33573  15.483  11.291  11.751 -0.1242  0.3152  0.1404
15370W        W33574   5.413   5.126  15.090  0.2423  0.1557  0.3528
15371W        W33575   5.377  11.009   2.245  0.2285  0.1318  0.1049
15372W        W33576   7.503   3.705  16.654 -0.3212  0.4351 -0.0139
15373W        W33577  10.251   9.962   0.785  0.0341  0.1529 -0.5602
15374W        W33578   7.811   7.545   4.624 -0.1140  0.3018  0.4927
15375W        W33579   0.020  12.914   2.384  0.0780 -0.1068 -0.0962
15376W        W33580   7.849   5.682   2.006 -0.0232 -0.0242  0.0509
15377W        W33581  12.511  11.947  16.190  0.0863 -0.3397  0.3243
15378W        W33582  13.830   1.849   0.519 -0.4401 -0.0452 -0.3126
15379W        W33583   8.933  13.282  14.620  0.0697 -0.0506  0.3659
15380W        W33584  15.449   9.546  12.649 -0.3218  0.1313  0.3548
15381W        W33585  12.598  14.992   3.189 -0.2305 -0.0207 -0.2914
15382W        W33586  13.740  12.435  16.864 -0.3275 -0.1507 -0.0786
15383W        W33587   2.593   6.297   4.002  0.0206  0.1036  0.0419
15384W        W33588   4.879   9.945  13.335  0.1336  0.1549  0.0132
15385W        W33589   7.483  14.171   0.789 -0.0179  0.1773  0.0881
15386W        W33590   6.923  15.168   2.073 -0.1194  0.1075 -0.1925
15387W        W33591   1.266  14.513  17.071  0.2074  0.0766 -0.1329
15388W        W33592   8.878   0.375   2.925  0.0713 -0.0068  0.2618
15389W        W33593  11.192  11.855   3.824 -0.2135 -0.1527 -0.3374
15390W        W33594  14.614   9.238  13.877 -0.3037 -0.1421 -0.1666
15391W        W33595  16.205  10.810   2.288  0.1506 -0.0836 -0.0055
15392W        W33596   5.350  12.300  15.209 -0.0445  0.1085 -0.0813
15393W        W33597  11.177  13.660  16.977  0.2606  0.0524  0.1244
15394W        W33598   1.981   4.359   3.323 -0.0886  0.0374  0.0761
15395W        W33599  14.988   4.691   3.706  0.1224  0.0161 -0.0175
15396W        W33600   3.475   0.141   3.897  0.1157 -0.0936 -0.0709
15397W        W33601  13.405  11.983  12.964 -0.1031  0.2833 -0.1605
15398W        W33602   2.598   4.679  15.646  0.0203 -0.0355  0.5203
15399W        W33603   8.878   6.963   5.173 -0.0193  0.1585  0.1609
15400W        W33604   7.632  11.363  15.333  0.1034 -0.1590  0.0321
15401W        W33605  13.954  14.588  11.923 -0.0383 -0.0544 -0.1550
15402W        W33606  14.063   6.502  13.150  0.0862 -0.0451 -0.1034
15403W        W33607   1.982  12.306  14.166  0.2947 -0.1675 -0.2268
15404W        W33608  16.509   1.753  15.404  0.1247  0.0072 -0.2185
15405W        W33609   3.136   2.651  12.536  0.0296  0.0223  0.0078
15406W        W33610  16.989   4.528  16.167  0.1924 -0.2336 -0.0703
15407W        W33611   7.710  12.274   2.759 -0.1458  0.0410  0.1778
15408W        W33612  12.397   6.207   1.071 -0.0600  0.0608  0.0819
15409W        W33613  15.212   8.020  16.861 -0.3247  0.3896  0.3504
15410W        W33614  12.031  11.710  14.255  0.1126 -0.1566 -0.0417
15411W        W33615   3.402  11.441  15.819 -0.0772  0.0857 -0.2433
15412W        W33616  13.320  11.074   1.412  0.2903  0.1446  0.2676
15413W        W33617   9.793  15.171   3.551 -0.0260 -0.2072  0.2484
15414W        W33618  12.234  13.486   5.066 -0.0064  0.0289  0.0710
15415W        W33619  15.148   0.381   0.016 -0.0561 -0.0542 -0.4397
15416W        W33620   9.482   9.501  16.538 -0.2294 -0.0580 -0.4093
15417W        W33621  14.565   5.235  13.448  0.1826  0.2195  0.1149
15418W        W33622   9.128   7.103  11.458 -0.1920 -0.0809  0.0706
15419W        W33623   9.333  15.708   1.859 -0.0361 -0.1627  0.1107
15420W        W33624  10.529  10.349  12.153  0.0543  0.0059  0.0100
15421W        W33625   0.587  14.786  14.551  0.2298 -0.0146 -0.0732
15422W        W33626   9.156   4.515   1.222 -0.2449 -0.3836 -0.0406
15423W        W33627   4.725   8.613   2.240  0.1314  0.1096  0.0554
15424W        W33628  11.839   1.361   0.623 -0.0163 -0.1614  0.2339
15425W        W33629  14.601   1.655  12.500 -0.2357  0.0878 -0.3288
15426W        W33630   3.928  12.276   5.001  0.0211  0.4165 -0.0873
15427W        W33631   8.864   6.889   1.591  0.0640  0.2057 -0.1981
15428W        W33632   5.128   0.176  12.565  0.3113  0.0145  0.1274
15429W        W33633   6.442  15.556  16.318  0.1767  0.0789  0.0492
15430W        W33634  12.529  12.440   1.742  0.4019 -0.2023 -0.0663
15431W        W33635  13.339   2.349   1.907  0.1438  0.1030  0.0934
15432W        W33636  12.673   3.217  13.341 -0.1695  0.0020  0.1946
15433W        W33637   5.489   8.780  15.480  0.1630 -0.0771 -0.1125
15434W        W33638  15.648   5.736   1.589 -0.2153  0.2221  0.1289
15435W        W33639   9.880   8.568  11.957 -0.2206  0.1077 -0.3277
15436W        W33640  16.099   7.759   0.788  0.0068  0.1392 -0.2826
15437W        W33641   0.757  14.219   5.251 -0.0546 -0.1641  0.3118
15438W        W33642  13.543  16.225   0.074  0.0950 -0.1619  0.1982
15439W        W33643  17.349  14.277   0.191 -0.0512 -0.1269  0.1199
15440W        W33644   0.552   2.166  17.028  0.1396  0.1974  0.0745
15441W        W33645  10.110   0.894   4.902 -0.2372  0.0550  0.0975
15442W        W33646   6.217  13.833   1.028 -0.0691  0.0208 -0.0987
15443W        W33647  16.470   4.662   3.423  0.1695 -0.0778  0.1280
15444W        W33648  10.953   7.428  12.234  0.1799 -0.0871  0.3220
15445W        W33649   4.900  16.637  14.760 -0.2710 -0.3530  0.2077
15446W        W33650  12.520  16.900  14.815  0.0079  0.0910 -0.1276
15447W        W33651  11.494  13.881  14.262  0.1780 -0.0864 -0.1451
15448W        W33652  10.581  12.883  12.512 -0.0165 -0.4027 -0.0581
15449W        W33653   7.314  15.831  13.361  0.1353  0.1279  0.0166
15450W        W33654   7.377  10.906  15.311 -0.1159  0.4410  0.2418
15451W        W33655   1.807   6.465  16.873 -0.1541 -0.2964  0.1922
15452W        W33656  17.171   2.144   0.288  0.2120 -0.4253 -0.0541
15453W        W33657   5.275   6.531  14.384  0.1449  0.2212  0.0225
15454W        W33658   6.909  13.312   0.855  0.2089 -0.0386 -0.1014
15455W        W33659  10.475  15.685  16.311  0.2351 -0.1623 -0.1222
15456W        W33660   7.898   4.744   1.530 -0.0669  0.0415 -0.2895
15457W        W33661  13.030   9.342  16.875 -0.2099 -0.3532 -0.1417
15458W        W33662   9.628   3.699  16.619 -0.3181 -0.1941 -0.0902
15459W        W33663  10.537   2.918   4.681 -0.0210  0.2675  0.2338
15460W        W33664   0.124   1.992   0.459  0.0920 -0.1276  0.1445
15461W        W33665  14.034  11.404   4.577  0.0398  0.1790 -0.0288
15462W        W33666   0.436  14.993   3.323 -0.0010 -0.4474  0.2390
15463W        W33667   3.297   8.915  12.605  0.1532  0.0086  0.1891
15464W        W33668  14.032  17.438   3.575  0.1970 -0.3351  0.2077
15465W        W33669  14.096  10.743   2.137 -0.0513  0.1301  0.1798
15466W        W33670   7.907   5.201   0.925 -0.0367  0.0879  0.3315
15467W        W33671   2.572  17.327  12.709  0.1671 -0.1984 -0.0646
15468W        W33672   4.969  16.599   3.759  0.0692 -0.0240 -0.2315
15469W        W33673  16.867  13.061  11.996 -0.1472  0.4007 -0.0182
15470W        W33674   4.902   9.424   0.446 -0.1007  0.1603  0.0381
15471W        W33675  10.280  10.628   5.320 -0.0801 -0.3265 -0.1819
15472W        W33676  14.581   8.673   4.658 -0.1682  0.0353  0.2455
15473W        W33677   0.770   0.208   5.048 -0.1852 -0.1325  0.5129
15474W        W33678   4.795   5.188  15.436  0.1476  0.0539  0.0191
15475W        W33679   4.343   0.096   4.486  0.2400  0.0387  0.2474
15476W        W33680   4.109  10.859   3.975 -0.1701  0.3241 -0.2103
15477W        W33681   5.719   2.302  13.612  0.0558  0.1714 -0.1414
15478W        W33682   9.715   2.006   5.581  0.0966 -0.1789 -0.0287
15479W        W33683  11.501   9.513  15.515 -0.0778  0.3040  0.2324
15480W        W33684  13.042   3.388   1.378  0.2256 -0.0459  0.2867
15481W        W33685   3.088   1.970  12.043 -0.0579 -0.0362 -0.0075
15482W        W33686  16.450   5.158   4.654  0.0269  0.0059  0.1802
15483W        W33687  14.388   2.717  14.368 -0.0633  0.0884 -0.0900
15484W        W33688   7.337   5.912   2.906 -0.1647  0.2073 -0.0172
15485W        W33689   2.073   1.116   4.788 -0.0556  0.0128 -0.0785
15486W        W33690   9.920   8.089  16.215 -0.1369  0.1647  0.0637
15487W        W33691   9.221  11.003   0.716  0.0601  0.0726 -0.0128
15488W        W33692  13.082   7.332  15.008  0.0795 -0.0233  0.3795
15489W        W33693   4.315  16.099   4.382 -0.2629  0.2855  0.3450
15490W        W33694  11.991   1.434   2.825  0.0133 -0.1506  0.0841
15491W        W33695   8.832  15.538   0.952 -0.3990  0.1909 -0.1223
15492W        W33696  10.095   1.979  14.180 -0.3663 -0.0063  0.2813
15493W        W33697   7.281   8.723  11.005  0.0580 -0.6122 -0.0351
15494W        W33698  10.642   3.344  13.078  0.2446  0.0548  0.0274
15495W        W33699   2.462  14.753   2.245  0.0996  0.5701  0.0798
15496W        W33700  15.340   8.762   1.902  0.0552 -0.1431 -0.1023
15497W        W33701  14.802  12.525   4.157  0.0071 -0.0176  0.3726
15498W        W33702  10.274  10.530  16.302  0.2247  0.0480 -0.2264
15499W        W33703   1.155   7.667   0.194  0.0237  0.0472 -0.2020
15500W        W33704   6.008  14.503   0.282 -0.1232  0.0155  0.0982
15501W        W33705   2.266   0.268  12.820 -0.2806 -0.0335  0.0255
15502W        W33706  10.745  13.494  15.109 -0.0949  0.0678 -0.1602
15503W        W33707   6.415   0.327  14.667 -0.0102 -0.0497  0.0291
15504W        W33708  11.798   8.879  12.738 -0.4097  0.2460 -0.1323
15505W        W33709   6.881  16.755  12.904 -0.3545  0.2209 -0.1011
15506W        W33710   2.348  13.220   3.206  0.2019  0.1237  0.0118
15507W        W33711  12.869   7.526  11.937  0.2257  0.0827  0.3390
15508W        W33712   7.108  11.917   4.008  0.1081  0.1793 -0.0697
15509W        W33713   2.961  14.604  15.498 -0.0567  0.0457  0.0350
15510W        W33714  15.502   0.653  12.466 -0.0742 -0.0586 -0.1497
15511W        W33715   0.420  12.887   3.496 -0.3895  0.2804 -0.1305
15512W        W33716   2.616   9.766   4.025 -0.2487  0.1687 -0.3132
15513W        W33717   0.390  17.312  11.241 -0.1053 -0.0102 -0.1480
15514W        W33718  14.596   9.016  16.689  0.1845  0.3671  0.1296
15515W        W33719  10.701  14.606  13.397  0.1132  0.1417  0.0695
15516W        W33720  13.020   6.407   5.417  0.1882 -0.1521 -0.0479
15517W        W33721   7.220   1.993  16.647 -0.0552  0.1092  0.0502
15518W        W33722  13.851   9.155   6.273 -0.1788 -0.0261  0.0811
15519W        W33723   2.146  12.729  11.496  0.2622 -0.1611  0.1218
15520W        W33724  11.574  14.208  11.775  0.1495 -0.0021 -0.1101
15521W        W33725  14.087   2.809   2.537  0.1504 -0.2694 -0.3128
15522W        W33726  10.939   5.848   1.406  0.0886  0.2924 -0.0774
15523W        W33727  15.661  13.538  14.650 -0.0233 -0.2013 -0.2494
15524W        W33728   2.133  13.039   5.448 -0.3136 -0.0277  0.2920
15525W        W33729  16.096  14.739   0.934  0.0002  0.0540  0.3472
15526W        W33730  15.393   6.022   0.936 -0.0763  0.0270 -0.0408
15527W        W33731  17.371   8.552   4.135  0.0990 -0.0345  0.0217
15528W        W33732  14.713  13.223   2.289 -0.2008  0.1135  0.2449
15529W        W33733   2.249  17.050  12.125 -0.0863  0.0454 -0.0257
15530W        W33734   3.481  14.766   0.464  0.0341  0.2106 -0.1433
15531W        W33735  13.262   0.822   2.819 -0.0494  0.2561  0.0582
15532W        W33736   7.639   2.915  13.062  0.0763 -0.3093  0.0346
15533W        W33737   3.795   1.842   3.804  0.0240  0.3364  0.1863
15534W        W33738  16.370   1.894  14.634 -0.0599  0.1701  0.0751
15535W        W33739  13.197  17.073   0.301  0.2247 -0.1095 -0.0352
15536W        W33740  15.125   1.175  15.744 -0.1176  0.1488  0.1771
15537W        W33741   2.394   7.055   1.502 -0.2068 -0.0367  0.3043
15538W        W33742  14.592  11.708  15.657  0.0656  0.1885  0.0011
15539W        W33743   1.176   2.293  15.792 -0.1083 -0.0943 -0.0124
15540W        W33744   5.542   5.483   3.817  0.0723  0.1004  0.0422
15541W        W33745  13.140  11.046   3.712  0.0063 -0.3841 -0.0454
15542W        W33746   6.774   0.577  12.140 -0.1090 -0.1033 -0.2349
15543W        W33747   5.240  13.790  14.092 -0.0413 -0.0726 -0.2209
15544W        W33748   1.971  12.752   2.051 -0.2778 -0.0361  0.0342
15545W        W33749  10.187   9.155   0.803 -0.1033  0.3314 -0.0381
15546W        W33750  14.349   4.831   0.552  0.3768 -0.3339  0.0900
15547W        W33751   8.965   8.658   4.226  0.4219 -0.1149 -0.0979
15548W        W33752   0.180   5.328  13.145 -0.0194 -0.0773 -0.1518
15549W        W33753   8.575   6.109   0.937  0.1062 -0.1889  0.0003
15550W        W33754   5.603  14.751  14.919 -0.1133 -0.1033  0.0386
15551W        W33755   4.669  13.439  15.209 -0.2819  0.0537  0.3197
15552W        W33756   0.339   5.749   2.777  0.5008 -0.2115  0.0958
15553W        W33757   5.043   3.694   1.196 -0.3224  0.1773  0.1432
15554W        W33758   3.547   6.622  11.699 -0.2750  0.0436 -0.1299
15555W        W33759   4.789   2.725   3.199 -0.1594 -0.1236  0.2460
15556W        W33760   2.563  10.716  12.390 -0.1532 -0.3837 -0.0997
15557W        W33761   3.891  13.987  16.298 -0.3820  0.1767  0.0137
15558W        W33762   1.057   2.387   1.704 -0.1264 -0.1188 -0.1588
15559W        W33763   0.991   5.692   2.005 -0.0250  0.0291 -0.1350
15560W        W33764  15.344   9.156   5.447  0.1292 -0.2586 -0.0431
15561W        W33765  15.072  16.382  14.062  0.1422  0.2542  0.1077
15562W        W33766   8.152  10.258  16.967  0.2956  0.2852 -0.1733
15563W        W33767  12.075   1.567   4.806 -0.1412  0.0623 -0.3538
15564W        W33768   4.782   4.143   1.129 -0.1916  0.1436  0.0893
15565W        W33769   4.395   7.043   0.092  0.0216  0.1801  0.1330
15566W        W33770   2.184  10.982  16.039 -0.0500 -0.1327  0.2092
15567W        W33771  15.484   1.094   1.483  0.0069  0.0301 -0.2297
15568W        W33772  15.569   6.957   0.489 -0.0674 -0.0210  0.1820
15569W        W33773   5.524  15.323  15.929  0.1385 -0.0881  0.0638
15570W        W33774   2.435   9.714   2.474 -0.0778 -0.4078  0.0347
15571W        W33775  13.935   2.050  14.608 -0.1665  0.2888  0.0219
15572W        W33776  16.838  15.524   0.203  0.0308 -0.1644  0.0384
15573W        W33777   7.511   9.618  15.386  0.2556  0.1680 -0.0213
15574W        W33778   2.425   7.539  14.760  0.2085 -0.0699 -0.1704
15575W        W33779   6.118   4.568   1.639 -0.0895 -0.0001  0.1612
15576W        W33780   5.768   7.321  15.024  0.0954 -0.3124 -0.2365
15577W        W33781   2.884   9.251  12.259  0.0438 -0.0116 -0.1756
15578W        W33782   5.770  17.466  15.131 -0.0617  0.1962  0.1977
15579W        W33783   2.167   5.459  14.639  0.2089 -0.1381  0.4409
15580W        W33784   8.206   4.410  16.665  0.2266  0.0160  0.0588
15581W        W33785   8.997   4.757  13.941  0.3600 -0.0082  0.0228
15582W        W33786  13.886   2.543  13.547  0.5224 -0.1547  0.1001
15583W        W33787  11.398  12.002  17.254  0.2104  0.0763 -0.1167
15584W        W33788  12.961  17.162   5.570  0.0605  0.0445  0.1232
15585W        W33789   5.351   2.912   3.030  0.1481  0.1592  0.1199
15586W        W33790   8.173  15.311  15.422  0.2037  0.0606  0.0316
15587W        W33791   5.176  11.377  13.531 -0.1812 -0.1418  0.1615
15588W        W33792  11.010   6.157  14.160  0.1021 -0.0378 -0.0570
15589W        W33793  14.476   5.092  12.153  0.1490 -0.3884  0.0354
15590W        W33794  12.285  15.743  12.025  0.2466  0.2599 -0.2392
15591W        W33795   8.859   2.865  16.022 -0.4467 -0.4884 -0.1294
15592W        W33796   7.249   6.522  11.759  0.3082  0.0024 -0.0728
15593W        W33797  16.985   0.980   2.777  0.3681  0.3270 -0.1318
15594W        W33798   3.003   3.160   2.941 -0.0159  0.3342 -0.0373
15595W        W33799   3.331   9.875  13.139  0.3328  0.2840  0.2497
15596W        W33800   6.723   2.794   3.537  0.0031  0.2238 -0.1772
15597W        W33801  10.001   3.244  14.466 -0.1450  0.1874 -0.1076
15598W        W33802   5.391   8.414  14.195  0.1693 -0.0675  0.0402
15599W        W33803   8.575   5.875   1.614 -0.4446 -0.0035 -0.1649
15600W        W33804  15.345  14.680   3.920  0.2498  0.2037 -0.1521
15601W        W33805  14.273   4.362   0.851  0.0304  0.1101  0.1922
15602W        W33806  15.762  16.645   0.248 -0.2469  0.1843 -0.3295
15603W        W33807  11.900   6.525   0.004 -0.2347  0.1342 -0.0449
15604W        W33808   8.692   7.788   2.751 -0.1232  0.2328 -0.2644
15605W        W33809   2.427  12.259   3.463 -0.1658  0.2505  0.3893
15606W        W33810  17.539   3.048   3.404 -0.0677 -0.0188  0.3196
15607W        W33811   1.897  16.242   2.408 -0.1973  0.0829  0.2437
15608W        W33812   3.653   4.746   4.148  0.0541  0.3094  0.1473
15609W        W33813  14.808   8.946   2.608 -0.0020  0.2815 -0.2016
15610W        W33814  17.017  12.585   0.352 -0.2219 -0.1179 -0.0921
15611W        W33815  11.471   7.166  16.448 -0.0771  0.3826  0.0398
15612W        W33816   9.110  16.327  16.051  0.2134 -0.0806 -0.1425
15613W        W33817  16.796  15.419  14.909  0.1077  0.1660  0.0374
15614W        W33818   0.978  13.547  15.680  0.1232  0.0504 -0.0712
15615W        W33819   8.863  15.796   0.174  0.1109 -0.0055  0.0219
15616W        W33820   1.734   3.115   3.490 -0.1447  0.2339 -0.3913
15617W        W33821   7.178  10.413  14.369 -0.0928 -0.2625 -0.2073
15618W        W33822   1.445   4.762  16.874  0.0958  0.0761  0.1479
15619W        W33823   5.934   9.662  16.892 -0.1950 -0.0304  0.0504
15620W        W33824   6.261   8.498  13.114  0.3553  0.0354 -0.2616
15621W        W33825   8.545   2.866   4.862 -0.0427  0.2246 -0.1229
15622W        W33826  10.016   6.942   2.650 -0.1334  0.1407  0.0238
15623W        W33827   6.586  10.352   4.460 -0.3130  0.1708 -0.1635
15624W        W33828   1.915  15.185  16.451 -0.0737 -0.0392  0.2661
15625W        W33829   7.581  12.886  13.641  0.1587  0.0625 -0.2676
15626W        W33830   4.266   6.081   5.378 -0.1676 -0.1395  0.1138
15627W        W33831  16.366   8.039   3.442 -0.0168 -0.0221 -0.4683
15628W        W33832  12.477   8.534  14.349  0.1221  0.1071  0.1643
15629W        W33833   4.155  11.635  12.889  0.0844 -0.0058  0.3086
15630W        W33834  10.857  11.035   4.730  0.2913  0.0696 -0.0866
15631W        W33835   7.001  13.298  15.192 -0.1716 -0.2638 -0.0109
15632W        W33836  17.362  11.075  16.374 -0.0877  0.1196  0.0581
15633W        W33837   6.021   4.111   1.386 -0.0449  0.1217  0.0188
15634W        W33838  11.743  16.281  15.713 -0.2022  0.1315  0.3273
15635W        W33839   1.384  16.192  16.115 -0.0143 -0.0433 -0.3366
15636W        W33840  14.327  17.259   0.884  0.0983 -0.1338 -0.0790
15637W        W33841   1.032   6.530  16.389 -0.1448 -0.3972 -0.1649
15638W        W33842  14.091  11.520  15.573 -0.1158 -0.0965  0.1466
15639W        W33843  10.269   7.954   2.843 -0.0130 -0.0707 -0.0188
15640W        W33844  10.282   5.307  16.573 -0.2387 -0.3513 -0.0800
15641W        W33845  11.065  11.501   1.232 -0.1758  0.0945 -0.1028
15642W        W33846  14.010  15.165   1.431 -0.0145 -0.1648  0.2317
15643W        W33847  13.220  10.205  12.117 -0.0851  0.0879 -0.0378
15644W        W33848  15.577   9.449  14.188 -0.1050 -0.3372  0.0344
15645W        W33849   1.560   0.937  15.415 -0.1295 -0.1534 -0.1415
15646W        W33850   9.111  17.191  14.587  0.0172  0.1140 -0.1123
15647W        W33851  12.528  14.617   2.696  0.0376 -0.0594 -0.1335
15648W        W33852   7.510  13.185   2.287  0.0478  0.1518  0.0928
15649W        W33853   2.352  14.791   1.190  0.1946 -0.0813 -0.2507
15650W        W33854  10.042   4.886   1.033 -0.1031  0.0116  0.0111
15651W        W33855   3.961   0.102   0.447 -0.2967  0.1475 -0.3389
15652W        W33856  11.568  13.794  12.380 -0.2038  0.1728  0.1643
15653W        W33857   1.130  16.801  13.907  0.0582 -0.1238 -0.0544
15654W        W33858  12.646  14.421   6.281 -0.2156  0.2828  0.1719
15655W        W33859  14.648   0.185  13.979  0.0353 -0.0622  0.0522
15656W        W33860   2.570  11.172  16.467  0.0163  0.0902  0.2153
15657W        W33861   4.975   2.752  14.024  0.0141 -0.0258  0.1813
15658W        W33862   0.381  16.441   1.656  0.1316 -0.0963 -0.0992
15659W        W33863  13.321  15.035   2.266 -0.0654  0.2163 -0.1914
15660W        W33864  13.669   0.862  13.132 -0.4777  0.0123  0.1409
15661W        W33865   8.111   4.859  16.569  0.2561  0.0756  0.0784
15662W        W33866  15.230  11.789   2.563 -0.0899 -0.0958  0.1449
15663W        W33867   5.848   9.600  14.679 -0.1850  0.1403  0.1408
15664W        W33868  16.735  12.633  11.802 -0.2396 -0.0218  0.0452
15665W        W33869   0.825   9.532   3.967  0.2033  0.0863  0.2406
15666W        W33870  17.017  11.953  12.197  0.0622 -0.0085  0.0358
15667W        W33871  17.331  16.995  12.377  0.0004  0.1548  0.1656
15668W        W33872   6.308   2.337   3.550  0.0735 -0.0671  0.1420
15669W        W33873   2.985  10.565   3.629  0.2531 -0.1636 -0.1870
15670W        W33874  11.287   9.170   2.940 -0.1785 -0.2971 -0.1614
15671W        W33875   6.230  13.183  16.357 -0.1469 -0.2518 -0.0106
15672W        W33876  16.052   1.335   0.743  0.4063 -0.2241 -0.1625
15673W        W33877  17.419  12.088   3.832  0.5834  0.2193  0.1825
15674W        W33878  15.603   3.948   3.207  0.2419 -0.2397 -0.2606
15675W        W33879   9.410  10.368  14.926 -0.1435  0.1945  0.0406
15676W        W33880  10.742   5.123   1.096 -0.2815  0.3540  0.0215
15677W        W33881   2.766  14.937  17.119 -0.1449  0.0240  0.1503
15678W        W33882  12.925   9.475   1.826 -0.0718 -0.1013  0.0875
15679W        W33883   8.833   6.270  16.103 -0.0220 -0.1957  0.2224
15680W        W33884  10.623  15.036  12.463  0.0059 -0.0288  0.1834
15681W        W33885   2.011   6.926   3.103 -0.0227  0.0931  0.3496
15682W        W33886   6.129   8.866  14.762  0.3552 -0.0296  0.1982
15683W        W33887  10.061  11.844   3.979 -0.1010  0.0842 -0.3848
15684W        W33888   9.594   1.246   0.485 -0.2470 -0.2395 -0.0727
15685W        W33889   9.494   9.429  14.778 -0.1135  0.1006  0.0946
15686W        W33890   5.636   4.328   0.315  0.3149 -0.1950  0.0579
15687W        W33891   7.400  17.485   0.371 -0.1416  0.0225  0.0753
15688W        W33892  14.376  14.110  12.035 -0.0027  0.2084 -0.0018
15689W        W33893   0.947   0.488   0.129 -0.1301 -0.0918 -0.0252
15690W        W33894   2.787   6.858  16.213  0.3220  0.1319 -0.0169
15691W        W33895   1.539   7.641  13.170 -0.2806 -0.1822 -0.1281
15692W        W33896  11.611   4.396  13.512  0.0146  0.2107 -0.2426
15693W        W33897   0.356   0.672   3.634 -0.2439 -0.1290 -0.1831
15694W        W33898  13.228   7.436  12.712  0.0156  0.1038 -0.1030
15695W        W33899  17.469   3.140   5.474 -0.1618  0.1680  0.4003
15696W        W33900   6.172   8.175  15.963 -0.0557  0.1038  0.0221
15697W        W33901  12.407  11.419  14.099 -0.2058  0.0592  0.0515
15698W        W33902   3.096   2.300   3.421 -0.1718 -0.1060  0.2996
15699W        W33903   7.084  13.463   6.019  0.0345  0.0775  0.3118
15700W        W33904   8.978  13.814  14.042 -0.0414  0.5180  0.3217
15701W        W33905   8.509   4.583   5.009  0.0725  0.2782  0.3080
15702W        W33906   8.228  15.969   4.621 -0.0398  0.2493 -0.0936
15703W        W33907   0.516  10.857  15.037 -0.3235 -0.0171 -0.1809
15704W        W33908  16.430  12.251  17.020 -0.2402  0.1551  0.3136
15705W        W33909   0.798  11.295   1.687  0.2751 -0.0843 -0.1642
15706W        W33910  12.293  10.436  16.751  0.2356 -0.0447  0.1054
15707W        W33911  11.962   6.463   4.921 -0.0910  0.0284 -0.1703
15708W        W33912  16.212  12.466   3.960  0.1723 -0.3507  0.1814
15709W        W33913   5.199   1.437  13.861  0.0013 -0.1890  0.2054
15710W        W33914  12.926   0.777   0.420 -0.1922 -0.0139  0.0238
15711W        W33915  13.266   3.117   1.814 -0.0519  0.1654 -0.0667
15712W        W33916   9.705   8.001   0.177  0.0629 -0.1561  0.0542
15713W        W33917  15.802  17.065   0.816  0.3184 -0.0813 -0.1203
15714W        W33918   8.591   3.722  11.949  0.0870 -0.2723 -0.2581
15715W        W33919  17.371  11.117  12.482 -0.2567 -0.2140 -0.1134
15716W        W33920   0.746   3.647  15.236  0.0460 -0.3392 -0.1285
15717W        W33921   8.096  12.283   1.856  0.1765  0.1298  0.1560
15718W        W33922   1.365   3.947   2.486  0.1728  0.2620  0.0875
15719W        W33923  10.425  14.546  13.872 -0.1335  0.0617 -0.0409
15720W        W33924   4.959  16.123  13.415  0.1837  0.2050 -0.1848
15721W        W33925  13.473   2.628  14.503 -0.0263 -0.1131  0.2182
15722W        W33926  17.217   0.166   0.436  0.0131  0.0951  0.2429
15723W        W33927   0.311   3.499   5.449  0.0493  0.0254  0.4910
15724W        W33928   0.424  11.003  11.766  0.0874 -0.2337  0.0883
15725W        W33929  13.640  14.728  12.748 -0.2335 -0.1441  0.0219
15726W        W33930   1.369  16.885   1.303 -0.3400 -0.0702  0.0684
15727W        W33931   5.617   8.456   3.217 -0.0657 -0.2188  0.1262
15728W        W33932  12.638  12.375  16.881  0.0714  0.0045  0.1049
15729W        W33933   3.861  11.413   0.445  0.2135 -0.1867  0.1965
15730W        W33934   6.897   7.068   3.637  0.2513 -0.2481 -0.1181
15731W        W33935  15.574  16.528  14.904  0.1968  0.1345 -0.0982
15732W        W33936   9.737   3.318  15.416  0.3517  0.1995  0.2087
15733W        W33937  12.484  14.796  13.353 -0.0662  0.1560 -0.0787
15734W        W33938   8.815  15.954  14.811 -0.0372  0.0850  0.0871
15735W        W33939   4.512   4.222   0.652  0.0540 -0.4705 -0.2648
15736W        W33940  12.502  13.195   5.508  0.2616  0.1141 -0.1626
15737W        W33941  11.065   2.138   3.363 -0.1311 -0.1791 -0.0822
15738W        W33942   4.674  15.786   2.457 -0.1435 -0.1056  0.1954
15739W        W33943   1.876   1.824   0.314 -0.3081  0.0762 -0.2388
15740W        W33944   5.166   2.350   4.249  0.0544  0.0987  0.2834
15741W        W33945   5.967  16.198  15.019  0.2926 -0.0711 -0.0130
15742W        W33946   7.126   3.512  12.833 -0.0534  0.0441 -0.0878
15743W        W33947  12.422  16.942   1.490 -0.1836  0.0358  0.0558
15744W        W33948  15.580   6.045  17.249 -0.1056 -0.2599  0.0437
15745W        W33949  14.931   8.698  12.186  0.0866  0.0491 -0.2363
15746W        W33950   8.518   4.041   5.080  0.0539 -0.2841  0.0975
15747W        W33951   8.094   8.068  13.711  0.1621  0.1815 -0.0358
15748W        W33952   0.127  17.265   3.863  0.2380 -0.1485  0.0856
15749W        W33953   0.288  12.658   2.993 -0.1103  0.2196  0.3291
15750W        W33954  13.987   5.485  17.072  0.1142  0.1926  0.0133
15751W        W33955   1.215   2.611  13.846 -0.0103 -0.0526 -0.0506
15752W        W33956  12.682  15.367   1.747 -0.0441  0.1129 -0.0077
15753W        W33957   6.326  11.169   1.322 -0.2160 -0.1965  0.1226
15754W        W33958  14.155   3.104  12.753  0.3263  0.0775  0.0017
15755W        W33959   3.779   6.251  13.274  0.1612 -0.1553 -0.1813
15756W        W33960   5.738   0.785   4.973  0.0060 -0.1434  0.0827
15757W        W33961  14.353   1.097  11.913  0.2170 -0.2311 -0.0900
15758W        W33962  13.410  10.608  14.943  0.0167  0.0351  0.0667
15759W        W33963  15.325  17.543  12.941  0.1749 -0.0096  0.1270
15760W        W33964   4.202  15.138   3.846 -0.0123 -0.1311 -0.0747
15761W        W33965   4.924   9.367   4.137  0.0289  0.0037  0.0350
15762W        W33966   5.455   7.403   1.639  0.1715  0.0058  0.0503
15763W        W33967  17.524  16.930   3.543 -0.5922  0.2516 -0.2786
15764W        W33968   5.757   5.554   1.339 -0.0730 -0.2753  0.1201
15765W        W33969   1.464   7.596  14.302 -0.0694 -0.1269 -0.0366
15766W        W33970   6.417   0.801   0.832 -0.2096  0.3540  0.2045
15767W        W33971   3.597   3.527   3.434  0.0704  0.0604 -0.2066
15768W        W33972   9.519   3.141   2.442 -0.2697 -0.1647 -0.3931
15769W        W33973   0.227   2.179   3.258 -0.1103 -0.2542  0.0813
15770W        W33974   8.866  16.334   3.445 -0.3071  0.3567  0.0421
15771W        W33975  12.735   5.924   4.803 -0.1276  0.1195  0.2154
15772W        W33976  15.131  10.830   4.002  0.0655  0.0046 -0.0272
15773W        W33977   0.857  10.053   2.131 -0.0281 -0.0008 -0.1648
15774W        W33978  16.456  13.585   4.129 -0.1394 -0.0136  0.1060
15775W        W33979   8.075   6.769   0.188  0.0320  0.0717  0.1768
15776W        W33980   8.552  17.331  14.269 -0.0527  0.1031 -0.1004
15777W        W33981   9.428   5.159  15.908  0.0815  0.0043  0.2375
15778W        W33982   6.278  16.453  14.716 -0.0531 -0.0894 -0.2171
15779W        W33983   0.204   6.282   3.532  0.2752 -0.2536 -0.5807
15780W        W33984   3.045  15.064   0.372 -0.1250  0.0973 -0.3280
15781W        W33985   4.328   6.368   4.494  0.2101 -0.0007 -0.1208
15782W        W33986   3.781  14.038   5.215 -0.1107  0.0432 -0.2812
15783W        W33987  16.259  16.484   3.446  0.0446  0.4186 -0.2107
15784W        W33988  15.187   4.451  13.008 -0.1063 -0.1285  0.1085
15785W        W33989  13.257   5.121  15.876  0.1018  0.0706 -0.0283
15786W        W33990  13.251   0.058   4.809 -0.2299 -0.0929 -0.2842
15787W        W33991  14.023  16.212   2.907 -0.2305 -0.1600  0.2523
15788W        W33992   4.320   3.441   4.079 -0.0956  0.0616 -0.0746
15789W        W33993  16.096   8.772  16.281  0.1285 -0.0565  0.0776
15790W        W33994   9.499  14.211   1.975 -0.0384 -0.2337  0.0110
15791W        W33995   3.386  12.834  17.181  0.7245  0.0199  0.0606
15792W        W33996   7.990   9.747   2.430  0.0266 -0.3182 -0.0201
15793W        W33997   1.591   4.550  15.297  0.1610 -0.1890 -0.0345
15794W        W33998   1.924   8.912  14.625  0.2213  0.3682  0.1222
15795W        W33999   4.058   6.026  16.524 -0.1939 -0.3199  0.0829
15796W        W34000   6.133  13.177   2.835 -0.1050  0.3129  0.0358
15797W        W34001  15.918   2.003  14.300 -0.1433 -0.1261 -0.2301
15798W        W34002   6.550  12.138  13.503  0.0585  0.1331  0.2868
15799W        W34003  10.101  10.674   2.675 -0.0790 -0.1099 -0.3579
15800W        W34004   2.822  16.451   2.871  0.0906  0.2190 -0.0215
15801W        W34005  16.857  17.157   1.106  0.3333 -0.0835 -0.0717
15802W        W34006   5.911   1.079   0.132 -0.0839 -0.2422  0.4293
15803W        W34007   2.789  12.337  14.403  0.1045 -0.1192  0.1554
15804W        W34008  12.885   9.853  12.822 -0.2095  0.1030 -0.0015
15805W        W34009   5.527  14.279  13.830  0.0498  0.0051  0.1922
15806W        W34010  11.779  12.498  14.432 -0.3916  0.1076  0.0495
15807W        W34011  16.975   6.275  15.450  0.1081  0.1303 -0.0439
15808W        W34012  12.772   2.264   3.397  0.0896  0.3179 -0.0828
15809W        W34013  10.595   2.586   1.581  0.1310  0.2328 -0.2794
15810W        W34014   1.164   5.867   1.289  0.0707  0.0590 -0.0344
15811W        W34015  13.650   8.696   2.659  0.1845  0.2731  0.0036
15812W        W34016   7.123  10.589   3.825  0.1555  0.3727 -0.0891
15813W        W34017   5.130  15.300   3.547 -0.2479 -0.1402 -0.2417
15814W        W34018   7.711   8.176  11.581 -0.0640  0.0426 -0.1665
15815W        W34019   7.759   8.509  13.556 -0.0177 -0.1170  0.1007
15816W        W34020  10.027   7.647   3.592  0.1239 -0.0366  0.0872
15817W        W34021  16.760  11.359   1.744 -0.1687 -0.0021  0.0260
15818W        W34022   5.990   6.304  15.393 -0.2581 -0.3262  0.1712
15819W        W34023   8.123   2.295  14.868 -0.0623 -0.0292 -0.1998
15820W        W34024  12.552   6.079  16.587  0.0470 -0.1695 -0.3158
15821W        W34025   3.450  14.186  16.025  0.1404 -0.1651  0.0263
15822W        W34026  15.925  16.196   5.134  0.2137  0.1191 -0.1949
15823W        W34027   7.456  11.677  15.719 -0.0805 -0.1776  0.1354
15824W        W34028  14.289   2.057   2.025  0.0465 -0.0362  0.2271
15825W        W34029  10.295  16.464   4.791 -0.0024 -0.0585 -0.2080
15826W        W34030   2.847   7.852  16.707  0.1972 -0.4269 -0.3999
15827W        W34031  14.699  15.422  12.451 -0.0627  0.0326  0.3239
15828W        W34032  10.611  17.111   4.171  0.0630 -0.3835 -0.0370
15829W        W34033   3.748   8.270   3.549  0.0678 -0.1332  0.0190
15830W        W34034  15.990  11.685   0.216 -0.3832  0.2974 -0.0256
15831W        W34035   7.634   2.080  13.701 -0.3680  0.0027  0.2485
15832W        W34036   1.906  11.804  14.450  0.2599  0.1175 -0.1756
15833W        W34037   1.817  16.776   5.448  0.0193  0.2084  0.0345
15834W        W34038   1.515  17.021  16.029 -0.0691  0.0561 -0.0285
15835W        W34039   8.268  15.034  12.295 -0.0716 -0.0236  0.0335
15836W        W34040  11.704  17.317   4.304  0.3430  0.0517 -0.1821
15837W        W34041  11.098   8.259  14.383 -0.0688 -0.0779  0.1415
15838W        W34042   0.429   1.703  16.277 -0.0407  0.0308 -0.2629
15839W        W34043  10.195   1.555  14.479  0.2289  0.1626  0.0035
15840W        W34044  14.453   5.553  16.635 -0.3170 -0.2160  0.0103
15841W        W34045   7.056  15.452  13.643  0.1779  0.0585  0.1819
15842W        W34046   8.658  12.497  16.699  0.1943 -0.1602 -0.2413
15843W        W34047   4.940  11.169   1.999  0.1944  0.0366  0.0220
15844W        W34048  14.770  15.670  16.903  0.0769 -0.1894  0.0308
15845W        W34049  15.722  14.971  15.600  0.1209  0.0854  0.0667
15846W        W34050   3.283   3.374   4.729 -0.2151  0.1310  0.4133
15847W        W34051  16.314   5.314  16.073  0.1294 -0.1136  0.0139
15848W        W34052  17.533   9.284   4.864 -0.0096 -0.1987 -0.2109
15849W        W34053   8.618  14.984   2.289  0.0180 -0.2027 -0.0862
15850W        W34054  11.067  14.991  13.651  0.1194 -0.1044  0.1563
15851W        W34055  14.112  15.566  13.586 -0.0420  0.0342  0.1137
15852W        W34056  11.455  11.464  15.945  0.1223  0.0915  0.2046
15853W        W34057  15.257  15.494  13.958  0.2219 -0.1741 -0.2422
15854W        W34058   6.753  13.983   0.208 -0.0241 -0.0398 -0.2641
15855W        W34059  10.574   0.714   1.826 -0.2012  0.0769 -0.0435
15856W        W34060  15.754  16.253   4.186  0.0911 -0.0201 -0.2699
15857W        W34061   5.447  13.236   5.294 -0.2015 -0.0481 -0.0302
15858W        W34062  10.102   1.255  16.958  0.0745 -0.1536 -0.2212
15859W        W34063   3.524   3.220   2.251  0.1925  0.0378 -0.1034
15860W        W34064   9.002  17.381   0.826  0.2627 -0.1932 -0.1055
15861W        W34065   1.700   9.988  15.796  0.2481 -0.0105 -0.2024
15862W        W34066  17.438   0.733  16.067  0.2536  0.5409  0.1837
15863W        W34067  15.106   9.186  12.496  0.0393  0.1783 -0.0067
15864W        W34068   0.435   0.670  17.287 -0.1799 -0.0682  0.0800
15865W        W34069   9.886  11.763   1.765  0.0605 -0.4247  0.1456
15866W        W34070   8.775   6.367   3.096 -0.0478 -0.2835  0.1470
15867W        W34071  15.957  13.693  15.171  0.2546  0.1729 -0.1139
15868W        W34072   1.280   7.226  14.677 -0.1798  0.0558  0.1608
15869W        W34073   7.703   7.297   1.947  0.0233  0.0568 -0.1060
15870W        W34074  10.379   3.960  16.388 -0.1760 -0.1100  0.2488
15871W        W34075  13.364  11.252  14.167  0.0295  0.0416  0.1672
15872W        W34076   4.713   8.533  12.391 -0.0370 -0.4593  0.0575
15873W        W34077   6.922  17.117  13.684  0.2296 -0.1924  0.3999
15874W        W34078  16.441   4.628   4.384 -0.1963  0.1748 -0.0931
15875W        W34079   5.377  13.085   3.952  0.0075  0.3821  0.0514
15876W        W34080  10.090  10.120   4.006 -0.0210  0.0504 -0.3927
15877W        W34081   0.380  17.476  17.044  0.0733 -0.3253 -0.0479
15878W        W34082  11.120   7.600  16.541 -0.2168 -0.3952  0.0607
15879W        W34083   8.493  14.759  16.303  0.2433  0.1411  0.0051
15880W        W34084   9.274   7.713  13.470 -0.0707  0.0162 -0.0966
15881W        W34085   2.421   4.801  15.112 -0.0376  0.0770 -0.0391
15882W        W34086   2.150   2.401   4.324 -0.6101 -0.2204  0.0280
15883W        W34087  14.255   5.412   1.679 -0.0223  0.1216 -0.1187
15884W        W34088  10.117   5.679   0.020 -0.2995  0.0801  0.0404
15885W        W34089   8.073   1.953  12.959  0.0134  0.0989  0.1987
15886W        W34090   3.680  16.602  14.020  0.0813  0.1254  0.1774
15887W        W34091   5.354  11.313   0.205  0.1870 -0.0798 -0.0786
15888W        W34092   6.835   0.782  13.769 -0.1804 -0.2095 -0.0852
15889W        W34093  12.065   9.572   4.863  0.2848 -0.1598  0.2538
15890W        W34094  13.479   0.062  12.952 -0.3096 -0.2066 -0.1103
15891W        W34095  13.476  15.846   1.561 -0.1515  0.1654  0.2621
15892W        W34096   1.510   1.682  15.025 -0.0185  0.1397  0.1035
15893W        W34097  15.122   7.223   1.374  0.2654  0.1053 -0.1797
15894W        W34098   3.794   2.959  13.332  0.1090  0.4736 -0.2662
15895W        W34099   0.883   1.386  16.662 -0.0975  0.1421 -0.2969
15896W        W34100   5.223   5.641  13.344 -0.2648 -0.1198 -0.1261
15897W        W34101  14.081   8.871  14.128  0.1902 -0.1368  0.3653
15898W        W34102   2.795   5.831   3.859 -0.1103  0.3432 -0.0990
15899W        W34103   8.529   5.375   1.772 -0.3526  0.1239 -0.0008
15900W        W34104  14.772   7.301   1.875 -0.2664 -0.0889  0.0055
15901W        W34105   6.616   0.139  13.850  0.2668  0.3369  0.0063
15902W        W34106  16.605  15.848  15.111  0.0221  0.1298  0.2350
15903W        W34107  14.547  13.038   1.829  0.1520  0.0798 -0.0381
15904W        W34108   1.491  11.583  16.028  0.0060  0.0770 -0.2026
15905W        W34109  14.891   5.008   1.877  0.0139 -0.2179  0.2826
15906W        W34110   2.463  17.166   0.587 -0.0457  0.0652 -0.2439
15907W        W34111   5.092   1.190   0.719 -0.1180  0.0633  0.3516
15908W        W34112   2.737  14.458  16.858  0.2767 -0.2966 -0.0599
15909W        W34113   3.920   7.534   3.183 -0.0498 -0.1252  0.0466
15910W        W34114   1.434   2.573  12.909  0.1083  0.0587 -0.1099
15911W        W34115   0.503  12.426   4.759  0.0313  0.4198 -0.1459
15912W        W34116   8.428   8.419   3.804 -0.0313  0.2711  0.2237
15913W        W34117  16.789  16.067  13.920  0.1428  0.0859  0.2371
15914W        W34118   2.709   1.238   2.309 -0.1065  0.0978 -0.0903
15915W        W34119   4.503  15.491  14.349  0.2476 -0.2778 -0.0729
15916W        W34120   3.544   0.315  15.901  0.2854 -0.3014  0.0405
15917W        W34121   0.355   0.574  15.204 -0.1843 -0.1318 -0.1343
15918W        W34122  12.986   0.653  17.200  0.1346 -0.0618 -0.3976
15919W        W34123   0.617  10.490  14.114 -0.1036 -0.2119  0.2929
15920W        W34124  15.052   5.786   0.561 -0.1017  0.3144  0.1283
15921W        W34125   5.635  15.138  13.858 -0.0288  0.2569 -0.1440
15922W        W34126   5.410   6.797  17.200  0.1409 -0.2465 -0.0383
15923W        W34127   2.084   0.043   3.764 -0.1932 -0.3555 -0.1020
15924W        W34128   2.745  15.342  14.406  0.1689  0.1507  0.3801
15925W        W34129   6.084   9.949   1.559 -0.1928  0.3490 -0.0607
15926W        W34130   4.272   4.718   1.020 -0.1170  0.2861 -0.3686
15927W        W34131  10.420   7.143  13.651 -0.2202 -0.0594  0.3059
15928W        W34132   3.232   1.021  12.055  0.4078 -0.1880 -0.1281
15929W        W34133   0.791  14.703  14.064 -0.0758  0.1615  0.1653
15930W        W34134   3.807   9.507  15.383  0.1569 -0.1381 -0.0872
15931W        W34135   0.742   2.413  15.574 -0.0497  0.2438 -0.1038
15932W        W34136  17.496  11.612   2.373  0.1597  0.1919  0.0627
15933W        W34137   3.477   1.578  14.180  0.2955 -0.0318  0.0810
15934W        W34138   1.563  15.789   3.881  0.2889  0.1122  0.0723
15935W        W34139   0.151   2.714  12.542 -0.0679  0.2056  0.1362
15936W        W34140   5.979  11.431   1.545 -0.1457  0.0747 -0.0367
15937W        W34141   8.006   2.031  14.418 -0.1014 -0.2235  0.1949
15938W        W34142   0.553   7.230   4.603  0.0435 -0.0206 -0.2467
15939W        W34143   8.810   0.422  13.789 -0.0924 -0.2843 -0.3074
15940W        W34144  10.010  15.622  13.920 -0.1918 -0.1894 -0.0149
15941W        W34145  16.188   5.086  16.499 -0.0793 -0.0372 -0.0657
15942W        W34146  16.090  11.359  16.005  0.1539 -0.1549 -0.0896
15943W        W34147   5.785  15.608  14.391  0.0952 -0.2131 -0.1202
15944W        W34148   9.924  13.035   2.042 -0.1872 -0.0708  0.0647
15945W        W34149  13.886   9.329   1.832 -0.0905 -0.0447 -0.1384
15946W        W34150  16.333   0.415   0.560 -0.0355  0.1643 -0.0336
15947W        W34151  12.375   2.204   5.173 -0.2004 -0.0325  0.4259
15948W        W34152  12.270  13.649  13.679  0.1222  0.1873  0.0378
15949W        W34153   7.631   1.956   0.513 -0.0122  0.0024 -0.0845
15950W        W34154  13.881  11.078   2.469 -0.1943 -0.1295  0.0094
15951W        W34155  14.434   2.695   1.266 -0.1828  0.1343  0.0521
15952W        W34156   0.079  11.329  13.282 -0.4062  0.1469  0.0061
15953W        W34157   0.915  14.448   1.513 -0.1749 -0.2603  0.0330
15954W        W34158  16.234   1.496  14.923 -0.1568 -0.1685  0.0749
15955W        W34159   5.866  11.038   1.863 -0.2705 -0.0346 -0.2063
15956W        W34160  11.590   0.088   2.345  0.0640  0.2719 -0.0616
15957W        W34161  14.915  11.041   4.621 -0.0545 -0.0928  0.1359
15958W        W34162  12.580   9.197   2.961 -0.0140 -0.2419  0.1900
15959W        W34163  15.802  16.216  17.274  0.2453 -0.2489  0.2664
15960W        W34164  13.784  16.447  12.899 -0.1091  0.0293 -0.1306
15961W        W34165   8.035   3.907   3.302  0.2671  0.2062 -0.1821
15962W        W34166   1.050   6.166   0.831  0.1025 -0.3346  0.1469
15963W        W34167  13.837  15.723  17.189 -0.1690  0.0324  0.0459
15964W        W34168   7.389   8.101   3.276 -0.0355  0.2782 -0.0786
15965W        W34169  11.473   4.633   5.057  0.0086  0.1447  0.1508
15966W        W34170  12.102   1.774  12.962  0.0083 -0.1098 -0.0081
15967W        W34171  11.380  16.432   1.964  0.1819 -0.1452 -0.2810
15968W        W34172   5.617  12.074  16.704 -0.0089  0.2560 -0.1038
15969W        W34173   0.994   6.154  15.561  0.1993  0.0853  0.0752
15970W        W34174   9.939   3.349   4.125 -0.1879  0.1200 -0.0224
15971W        W34175  12.482   0.253   2.334 -0.0696 -0.2971 -0.4125
15972W        W34176   7.525  15.916  16.421  0.0352 -0.1885  0.0531
15973W        W34177   7.613   0.317   5.372  0.0380 -0.1410 -0.0421
15974W        W34178   8.529  15.142  13.379  0.2242  0.3057 -0.0936
15975W        W34179   9.349   9.444   2.186  0.1240 -0.1225 -0.2872
15976W        W34180   6.187  12.273  12.747  0.0508 -0.0035  0.0335
15977W        W34181   2.960  13.984  13.780  0.3511  0.3917 -0.1716
15978W        W34182   8.659  12.812  12.745 -0.4668 -0.0303 -0.2187
15979W        W34183  10.361  14.204   2.107  0.1692  0.1901 -0.3232
15980W        W34184  13.452   6.613   0.566 -0.1222  0.5172 -0.2955
15981W        W34185   0.887   3.777   0.856  0.1760 -0.0015 -0.3614
15982W        W34186  17.083   9.279   2.329  0.1335  0.0507 -0.2512
15983W        W34187   6.289  16.729  13.593  0.2838  0.4574  0.2152
15984W        W34188  11.797   2.252  14.351 -0.0350  0.3153  0.0331
15985W        W34189  10.959  14.771   4.827 -0.0928 -0.0509  0.0131
15986W        W34190   4.023   4.128   0.596 -0.0972  0.2889  0.0569
15987W        W34191  13.825   1.302   2.105  0.0121 -0.1389 -0.1284
15988W        W34192   9.667  11.290  15.871  0.0743  0.2372 -0.2626
15989W        W34193   7.140  13.013  16.598 -0.4643  0.1160  0.1112
15990W        W34194   1.672  10.389  15.418 -0.0655  0.0420  0.0607
15991W        W34195  13.312  17.057  14.871  0.4663 -0.4930  0.0880
15992W        W34196  11.148   3.518   4.725 -0.4292 -0.0651  0.1519
15993W        W34197   6.671   9.397  14.871 -0.0428 -0.1512 -0.1032
15994W        W34198   7.239  11.049  13.792  0.1451 -0.1291  0.2905
15995W        W34199   0.768  13.769   3.679  0.0924 -0.0992  0.0428
15996W        W34200   0.754  10.806   2.579 -0.0058  0.0319 -0.1093
15997W        W34201   1.006  11.756  15.979 -0.1177 -0.3329  0.1417
15998W        W34202  16.967  16.198   3.583 -0.2592 -0.2069 -0.1397
15999W        W34203  12.035  14.763  13.548  0.3608 -0.0613  0.3157
16000W        W34204  11.307  16.466  14.539  0.2978  0.0092  0.1685
16001W        W34205   8.843   0.507   4.250 -0.2220  0.2661  0.1306
16002W        W34206   2.576   8.005   2.283 -0.0730  0.1316  0.0331
16003W        W34207   1.756   7.810  15.829 -0.0932 -0.3635 -0.0086
16004W        W34208  11.861  13.050   0.652 -0.2558 -0.0210  0.0351
16005W        W34209  10.840   3.162  14.520 -0.2183  0.0581  0.0323
16006W        W34210  11.734   6.995   4.953 -0.1546  0.2656 -0.1377
16007W        W34211   0.931  12.073   0.314  0.1309 -0.0445  0.1399
16008W        W34212   5.410   6.907   1.772  0.0167  0.2566  0.3090
16009W        W34213   3.944   1.042   2.607  0.2385 -0.4310 -0.3704
16010W        W34214  14.498   6.856   4.254  0.0527  0.2543 -0.3877
16011W        W34215   6.536   6.882  13.451 -0.0181  0.0823 -0.2351
16012W        W34216  14.637  12.164  14.846  0.0330  0.2743 -0.3926
16013W        W34217  12.116  17.462   2.453 -0.3223  0.2929 -0.0012
16014W        W34218  12.022  10.109   4.908  0.0698 -0.0760 -0.0106
16015W        W34219   7.873  10.747   0.281 -0.2188 -0.3394 -0.0169
16016W        W34220  10.670   0.395  15.054  0.3455 -0.1274 -0.0206
16017W        W34221  15.145   0.278  12.516 -0.2766 -0.2998 -0.2142
16018W        W34222  13.496   7.493   0.471 -0.3148 -0.0695  0.0397
16019W        W34223   6.120   1.697   4.831  0.0663 -0.0155 -0.3284
16020W        W34224   6.317   1.061   3.049  0.1242 -0.1342  0.0687
16021W        W34225  11.235   8.492   3.070 -0.1917  0.1560  0.3229
16022W        W34226   4.429  16.390  14.483 -0.1853 -0.1279  0.1257
16023W        W34227   5.801  14.941   0.206 -0.1926  0.0072 -0.0055
16024W        W34228  13.356  15.409   4.372 -0.1735  0.0464 -0.0894
16025W        W34229   6.319  16.102   3.368 -0.0020 -0.1701  0.2768
16026W        W34230   0.644   9.052  13.722 -0.1477 -0.1068  0.1817
16027W        W34231  15.766   4.940  15.009 -0.0934 -0.2484 -0.2225
16028W        W34232   3.900  10.092   4.471 -0.2740 -0.1795  0.3920
16029W        W34233  17.388  16.221  15.558 -0.3392  0.3549 -0.3125
16030W        W34234   4.818  14.755  15.513 -0.3120 -0.1728  0.2401
16031W        W34235   6.218  16.194   1.852 -0.2102 -0.4131  0.1545
16032W        W34236   5.045  11.729  14.338  0.2412  0.1251  0.2049
16033W        W34237  14.997   2.944  15.642 -0.0317 -0.1491  0.0018
16034W        W34238  10.100  12.536  10.938 -0.2471  0.0207  0.1463
16035W        W34239   2.396   2.909  13.076 -0.0864 -0.0649 -0.1273
16036W        W34240   2.346  12.595  14.417  0.0408  0.0566  0.0187
16037W        W34241   0.448   1.677   4.629 -0.0451  0.3479 -0.0135
16038W        W34242   7.427   0.320  15.967 -0.0003 -0.0508 -0.0788
16039W        W34243   0.939   2.484   4.413  0.2619 -0.0291 -0.0919
16040W        W34244   2.875   2.685   2.664  0.1917 -0.2431  0.0537
16041W        W34245   3.013   1.409   2.644 -0.3062  0.2215 -0.3595
16042W        W34246   3.975  11.047  12.437  0.0919  0.2409  0.2963
16043W        W34247  13.392   6.807   2.835  0.1214 -0.0072  0.3641
16044W        W34248   3.479  12.888   5.951  0.1892  0.0313  0.1489
16045W        W34249   0.601  15.674   0.666 -0.2205 -0.0138  0.1379
16046W        W34250   4.211   9.543   1.172 -0.1019 -0.0120  0.1325
16047W        W34251  15.633   0.026   2.565 -0.0517  0.1979  0.2166
16048W        W34252  17.309   1.022  13.045 -0.2310  0.0291 -0.3622
16049W        W34253   2.658   9.850  12.578 -0.1008 -0.0817 -0.1903
16050W        W34254  14.953   6.033   5.357 -0.2125  0.0286  0.1556
16051W        W34255  11.723   0.287   5.788  0.1688 -0.1550  0.4559
16052W        W34256  11.793  15.778  12.224 -0.3160 -0.0047 -0.0424
16053W        W34257   2.909   8.332   0.232 -0.2981 -0.3975 -0.1158
16054W        W34258   8.417  11.733  15.498 -0.0943 -0.2764  0.0318
16055W        W34259   3.364   9.329   1.167 -0.0208  0.0138 -0.1411
16056W        W34260  12.543   1.828  11.603  0.0153 -0.1895 -0.2183
16057W        W34261   3.329   9.840  14.256  0.0248  0.0711 -0.1903
16058W        W34262   0.021  14.637  14.807 -0.0730  0.1778 -0.2111
16059W        W34263  11.333  16.530  16.817 -0.0498  0.3735  0.3028
16060W        W34264  15.834   1.473  12.762  0.0409 -0.0706 -0.0921
16061W        W34265   0.112  13.597  12.249  0.1050 -0.1344 -0.0448
16062W        W34266  14.896   5.853  16.597 -0.2572  0.0560 -0.1329
16063W        W34267   8.505  14.318  13.903 -0.1710  0.1584 -0.3397
16064W        W34268  13.984  13.106   0.765 -0.1060  0.0106 -0.1091
16065W        W34269  13.999  15.338   0.589 -0.1017  0.1837 -0.2140
16066W        W34270   7.184   6.397   0.431  0.0116 -0.2378  0.5102
16067W        W34271   8.045   6.930   1.874  0.2707 -0.4676  0.0062
16068W        W34272   4.419   3.820  16.157  0.0345  0.2073  0.0908
16069W        W34273   3.095  14.900  16.160  0.1749 -0.1188  0.1470
16070W        W34274  15.066  11.856  14.829  0.0206  0.2929  0.0625
16071W        W34275  17.328  13.701   2.104  0.0462 -0.1107 -0.1131
16072W        W34276  15.951  15.970   1.238 -0.2515 -0.0516 -0.1496
16073W        W34277  16.470  12.955   1.628  0.2049  0.6053  0.0932
16074W        W34278   9.953  14.431  13.164 -0.0406  0.0147  0.0988
16075W        W34279   9.858   4.946  12.213  0.2380  0.0360 -0.0085
16076W        W34280   7.467   2.059  12.041 -0.0638 -0.2508  0.0649
16077W        W34281  13.501  15.742   2.135  0.1800  0.0183 -0.3662
16078W        W34282  16.752  17.534   3.861 -0.0310  0.0577  0.1053
16079W        W34283   9.318  13.288  16.184 -0.1202 -0.0661 -0.0218
16080W        W34284  14.633  13.231   2.917  0.2099 -0.1872 -0.1360
16081W        W34285   9.863  17.088  12.138  0.1793 -0.2148 -0.0002
16082W        W34286   2.838   7.995  15.505  0.0529 -0.0807 -0.0958
16083W        W34287   4.436  16.706   3.583  0.2519 -0.2138 -0.1542
16084W        W34288  16.766  17.331   4.779  0.2219  0.1141 -0.2429
16085W        W34289  12.827   1.752   3.635 -0.1497 -0.2632 -0.2156
16086W        W34290   7.700   9.870   5.139 -0.0386  0.0133 -0.1030
16087W        W34291  10.237  14.244  13.502  0.0456 -0.1005  0.0001
16088W        W34292  11.722   6.143  13.646  0.0475 -0.1656 -0.3926
16089W        W34293   3.943  15.380   1.505 -0.0958 -0.0388 -0.0364
16090W        W34294   6.422   3.480  15.706 -0.1947  0.0035  0.0682
16091W        W34295  15.157   7.403  16.003  0.0746  0.0482 -0.1169
16092W        W34296   6.652   1.195   1.802 -0.2101  0.1339 -0.1872
16093W        W34297  15.540  17.262  15.269  0.0011  0.2025 -0.2121
16094W        W34298   6.665   9.501   4.981 -0.2404 -0.2114 -0.1345
16095W        W34299  14.000   2.554   1.562 -0.1338 -0.0021 -0.0829
16096W        W34300   7.314  15.007  13.762  0.0869 -0.3161 -0.1003
16097W        W34301   8.897  12.839   2.394 -0.1860  0.1121  0.2893
16098W        W34302   9.908   5.398  15.940  0.1402  0.2090 -0.2588
16099W        W34303   7.588   9.792   4.603 -0.0424 -0.0035 -0.1482
16100W        W34304  11.745  13.877   1.645 -0.2584 -0.3445  0.1187
16101W        W34305   0.470   0.264  14.764  0.2421 -0.1537 -0.2703
16102W        W34306   4.582   0.289  15.503 -0.1624 -0.2214  0.2467
16103W        W34307   2.351   5.318   2.371 -0.0689  0.0344  0.3139
16104W        W34308   8.119   9.129   3.948 -0.1704  0.0105  0.0913
16105W        W34309   1.611  14.735   2.366 -0.0677 -0.1607  0.2411
16106W        W34310  13.852   2.914  12.326 -0.0259  0.4197 -0.1174
16107W        W34311  13.549  10.453  12.709 -0.0317 -0.0516  0.2984
16108W        W34312   0.669   2.161  15.136 -0.2660 -0.0630  0.0154
16109W        W34313  11.102   5.286   0.225  0.0297  0.1966 -0.2444
16110W        W34314  11.130  10.841   6.252  0.1151 -0.0055 -0.0066
16111W        W34315   2.148  14.157   3.458  0.0882  0.1522 -0.1228
16112W        W34316   4.651  13.715   4.283  0.2674 -0.2567 -0.1806
16113W        W34317  13.812   4.651   3.435  0.0814  0.3234  0.3700
16114W        W34318  17.542  10.451   4.803 -0.1897  0.0507  0.2299
16115W        W34319  10.876  14.144   0.977 -0.2120  0.0712  0.0139
16116W        W34320   5.008   4.605  12.277 -0.1067  0.0920 -0.0686
16117W        W34321   4.669   5.227   1.681  0.4021  0.3158 -0.3180
16118W        W34322   3.437   1.601  15.703 -0.2039  0.2190 -0.1697
16119W        W34323   2.396  14.264  12.801 -0.1738  0.0099 -0.1200
16120W        W34324   7.594   7.678  13.517  0.0850  0.1940  0.0941
16121W        W34325   1.640   0.949  14.602  0.1769  0.0212  0.1342
16122W        W34326   4.200   4.679  14.068 -0.1247 -0.0191  0.1515
16123W        W34327   5.075  10.643  14.928  0.1717 -0.1249 -0.1404
16124W        W34328  11.910   3.895   0.814  0.0765  0.0766  0.1006
16125W        W34329   5.019   0.877  13.930 -0.2086  0.2096 -0.2220
16126W        W34330  14.098   9.652  13.145 -0.0367  0.0720  0.2729
16127W        W34331  10.942  17.150  13.407  0.1280  0.1359 -0.0041
16128W        W34332   9.537   5.474  12.407  0.0107  0.0727  0.2080
16129W        W34333  10.946  12.360  12.813  0.0368  0.1095  0.1054
16130W        W34334   1.206  13.689   1.379 -0.1215  0.0623 -0.0907
16131W        W34335   0.604   8.997   3.090 -0.0977  0.1108 -0.0472
16132W        W34336   3.196   7.733   4.039  0.1173 -0.0907 -0.1279
16133W        W34337  10.800  15.727   5.063 -0.0651 -0.1000 -0.0006
16134W        W34338   4.288  13.527  13.172 -0.2194 -0.4746 -0.0089
16135W        W34339   0.840   3.334   0.083 -0.0661 -0.1875 -0.0798
16136W        W34340  13.851   7.506   2.172 -0.1997  0.0057  0.2284
16137W        W34341  11.541   1.528   2.672 -0.2821 -0.2410 -0.2217
16138W        W34342  11.632   9.855   4.849  0.0921  0.0572  0.0956
16139W        W34343  14.925  14.721   5.604 -0.0493  0.4773  0.0744
16140W        W34344  11.347   0.425   5.312 -0.4930 -0.0279 -0.0732
16141W        W34345   7.050   5.906   3.350 -0.1211 -0.0278  0.1512
16142W        W34346   7.583  14.453  12.250  0.1103 -0.0627 -0.3253
16143W        W34347   9.213  15.678   4.218  0.1019  0.2028  0.1107
16144W        W34348  11.002   9.068   2.465 -0.2761  0.0696  0.4180
16145W        W34349  12.461  13.673   2.684 -0.0445 -0.1130 -0.0890
16146W        W34350   2.969   4.460   3.430 -0.1371 -0.2571  0.1570
16147W        W34351   2.938   5.092  12.145  0.0117 -0.1066 -0.1217
16148W        W34352  13.874  13.448   5.427  0.3055  0.1291 -0.2381
16149W        W34353   8.066  14.986   0.384  0.0404 -0.0203  0.2337
16150W        W34354  11.920   9.471   1.623 -0.1188 -0.0451  0.5640
16151W        W34355   3.761  13.904   0.222  0.1580  0.1302 -0.0002
16152W        W34356  11.589   0.240  13.033  0.0069  0.2756 -0.1349
16153W        W34357  17.256  16.683  15.804 -0.0584 -0.1296  0.1967
16154W        W34358   6.139   9.268   1.033 -0.0962 -0.1815 -0.2736
16155W        W34359  16.076   3.861   1.449  0.0917  0.0411  0.0572
16156W        W34360   3.791  11.125  12.910  0.0307 -0.3804  0.0164
16157W        W34361  14.067   7.872   0.844 -0.4405  0.2571 -0.0699
16158W        W34362   1.076  13.227   1.626 -0.2073  0.0637  0.0491
16159W        W34363   4.144   9.191   4.589 -0.1508  0.1408 -0.1325
16160W        W34364   9.630   6.929   3.945  0.1656 -0.0022  0.0486
16161W        W34365  11.824   6.342  15.145 -0.1175 -0.1370 -0.1727
16162W        W34366  11.486  10.489   1.656  0.0822  0.0363 -0.2830
16163W        W34367   3.627   3.755   4.365 -0.1239  0.0561 -0.1096
16164W        W34368   6.911   2.965   3.989 -0.0967  0.0037  0.1214
16165W        W34369   8.172  15.597  14.281 -0.1877 -0.0330 -0.2484
16166W        W34370  16.716  13.494  16.236  0.0912  0.0063 -0.3136
16167W        W34371  11.289  13.082   5.615  0.1383 -0.0865  0.0281
16168W        W34372  16.831   7.472  14.197  0.1069  0.1685  0.0758
16169W        W34373   7.780   4.654   1.062 -0.0658 -0.0215 -0.0250
16170W        W34374  15.959   6.336  15.141 -0.0990 -0.2279  0.2179
16171W        W34375   0.152   3.464  16.717 -0.1096 -0.2545 -0.0404
16172W        W34376   4.862   9.808   1.911  0.0085 -0.1917 -0.3077
16173W        W34377   6.882   3.226  12.521  0.1358 -0.2619  0.0558
16174W        W34378   8.571   4.975   4.630  0.2760  0.1667  0.2586
16175W        W34379  12.521   5.256   2.106  0.1603  0.0023 -0.0693
16176W        W34380  15.056  15.185   5.410  0.1181 -0.3266  0.0462
16177W        W34381   3.798  14.235  13.388  0.1767  0.1184  0.0647
16178W        W34382  10.581  12.345   1.949  0.0073  0.3545 -0.0669
16179W        W34383   4.341   0.559  16.941 -0.0293 -0.0809 -0.0407
16180W        W34384  16.670   5.171  15.050  0.0223  0.3348  0.3986
16181W        W34385  10.608  13.644  13.018  0.0039 -0.0144 -0.0234
16182W        W34386   1.799   1.448   6.106  0.1465 -0.5498  0.2482
16183W        W34387  17.493  13.617   0.817  0.2567  0.1774  0.1675
16184W        W34388  10.795   0.027  12.875 -0.1735  0.0261  0.0506
16185W        W34389   4.444   0.427  15.997  0.1236 -0.2221  0.0658
16186W        W34390  12.763   6.939  12.187 -0.1108  0.3130  0.1264
16187W        W34391  14.868   2.715   2.596  0.0880 -0.1474 -0.1049
16188W        W34392  13.059  13.310   1.083  0.2717  0.1102  0.1487
16189W        W34393   8.386   3.055  15.844 -0.1469 -0.1305  0.1707
16190W        W34394   9.447  10.252   0.835 -0.1524  0.2042  0.0754
16191W        W34395  17.325  12.966  13.375 -0.1258  0.0687 -0.1164
16192W        W34396   5.429   7.004  12.153  0.2669 -0.0572  0.1685
16193W        W34397  14.186  14.952   5.166  0.0953 -0.0853 -0.0374
16194W        W34398  15.636   1.702   5.012  0.2261 -0.2034  0.0956
16195W        W34399  14.867  10.586   4.794 -0.0500 -0.3364 -0.1222
16196W        W34400   4.288   8.711  14.483 -0.1524 -0.1098  0.1008
16197W        W34401  14.650   2.392  15.027 -0.0074  0.2521  0.0276
16198W        W34402  16.854   9.564   4.939  0.2036 -0.2829  0.3909
16199W        W34403   9.613  13.663  16.602 -0.2701 -0.2184 -0.0605
16200W        W34404   6.517  15.254   2.363  0.4056  0.0201  0.0129
16201W        W34405  10.019  15.239  12.550  0.1714  0.2669  0.0299
16202W        W34406  15.907  16.708  16.013 -0.2521 -0.1516  0.2929
16203W        W34407   7.176   7.952  14.853 -0.2237 -0.1005  0.0835
16204W        W34408   8.619   7.842   1.200 -0.1797  0.2494  0.3818
16205W        W34409  13.814   3.271   3.593 -0.1458  0.0888 -0.2178
16206W        W34410  13.547   5.222  14.319 -0.0561 -0.0954  0.1162
16207W        W34411   8.232   5.810   5.031  0.0575  0.1062  0.0207
16208W        W34412  15.324   4.856  12.595  0.0912  0.3455 -0.1068
16209W        W34413   6.211   1.358   1.483 -0.3936  0.3050 -0.2607
16210W        W34414   0.036   7.668  14.710  0.4342 -0.0268 -0.1226
16211W        W34415  11.489  10.091  15.513  0.3509  0.1388 -0.2989
16212W        W34416  11.231   6.159   1.639 -0.2186 -0.0385 -0.0550
16213W        W34417  15.683   2.751  13.243 -0.1461  0.0503 -0.0911
16214W        W34418   0.032   8.602   5.073 -0.1123  0.5170 -0.2907
16215W        W34419   1.557  10.380  12.999 -0.2193 -0.2142 -0.1993
16216W        W34420  15.998   9.337  15.400 -0.0523 -0.3049  0.1072
16217W        W34421   0.843   5.991  11.408 -0.3387  0.0170  0.0579
16218W        W34422   4.907   8.913   2.709  0.3312 -0.4392 -0.3224
16219W        W34423   6.458   3.766   1.035 -0.0513  0.0233  0.0605
16220W        W34424   4.675  16.067  15.968 -0.0274  0.0730  0.0616
16221W        W34425  11.780   9.542   0.186  0.2101  0.4190  0.1798
16222W        W34426  17.389  15.013   5.477 -0.0399 -0.1337  0.2296
16223W        W34427  16.905  16.714   5.403 -0.1241 -0.0983  0.1162
16224W        W34428  11.016   5.091   2.964 -0.0880 -0.0429  0.2429
16225W        W34429  16.497   0.105   2.252  0.1696 -0.0520 -0.2171
16226W        W34430   2.855  11.593  12.188  0.3132 -0.1066 -0.3539
16227W        W34431   4.609   3.963  15.702 -0.1018 -0.3864 -0.1679
16228W        W34432   4.670  11.578  13.615 -0.2228 -0.1334  0.1939
16229W        W34433   3.198  12.026   2.782 -0.2057  0.0456  0.0996
16230W        W34434   1.669   2.665  15.705  0.0470 -0.1444  0.2252
16231W        W34435   7.043   0.609   3.117 -0.0276 -0.0568 -0.3295
16232W        W34436   6.945  13.740   3.873 -0.1408  0.4559  0.1472
16233W        W34437   4.314   9.607  12.508 -0.0203 -0.1685  0.1518
16234W        W34438  14.251  10.568  13.890 -0.0297  0.1278 -0.0529
16235W        W34439  12.187  10.092   3.037 -0.0768  0.3895  0.2119
16236W        W34440  10.005   2.545  13.514  0.0325  0.1835  0.5082
16237W        W34441  14.811   1.017   3.966 -0.3811  0.1425  0.2474
16238W        W34442  10.841   9.614  12.672 -0.1758  0.1663 -0.3113
16239W        W34443   0.378   0.244   3.134 -0.0670 -0.5858  0.1405
16240W        W34444  14.988   5.979  12.417  0.0666  0.0889  0.0185
16241W        W34445   4.118  12.972   2.577 -0.1603 -0.0962 -0.1929
16242W        W34446  12.431  16.353  15.252 -0.3673 -0.0095 -0.2183
16243W        W34447   7.580   8.191  13.880  0.0005 -0.0866  0.2653
16244W        W34448   5.521   8.056   0.963  0.1263  0.0464 -0.0901
16245W        W34449   4.153  16.872   4.653  0.1860 -0.0419  0.0143
16246W        W34450  15.810   6.693  13.266 -0.2605  0.0491  0.3843
16247W        W34451   2.125  14.176   2.908 -0.3620 -0.1641  0.3917
16248W        W34452  13.183  13.074  16.893  0.3711 -0.0617  0.0285
16249W        W34453   9.806  10.181   3.568 -0.1827  0.1038  0.1444
16250W        W34454  13.783  12.309  16.025 -0.0382 -0.1555 -0.3068
16251W        W34455   6.501   2.175   5.257 -0.1290  0.0862 -0.0623
16252W        W34456   1.477   3.587  13.611  0.1512  0.0557 -0.1491
16253W        W34457  12.189   9.537   3.016 -0.0138 -0.1145  0.3825
16254W        W34458  15.633  12.205  12.784  0.2606 -0.1623  0.0280
16255W        W34459   2.568   7.470  12.026  0.2583  0.3368 -0.0539
16256W        W34460   8.308  17.262   5.226  0.2088  0.3890 -0.0623
16257W        W34461  13.022   6.564  15.651 -0.1957  0.0277 -0.1600
16258W        W34462   4.866  11.493   1.603  0.1953  0.3834 -0.0792
16259W        W34463   2.967  10.062  14.509  0.1291 -0.3014 -0.3535
16260W        W34464   1.401   2.114   2.638 -0.1645 -0.0727  0.0053
16261W        W34465  10.811  16.734  13.695 -0.1889 -0.0563  0.0464
16262W        W34466   4.577  16.078   2.901 -0.0795 -0.2789  0.1454
16263W        W34467  16.590  11.205  16.907 -0.0264  0.0658 -0.2000
16264W        W34468   4.141   7.177   2.428  0.1009  0.2784  0.0619
16265W        W34469  16.261   8.779   4.081 -0.0217 -0.1546  0.1898
16266W        W34470  13.974  13.445   1.195  0.2326 -0.0692  0.2933
16267W        W34471   1.438  13.554   2.887 -0.0242 -0.0179  0.3337
16268W        W34472   7.087   8.332  13.804  0.0666 -0.0105  0.2085
16269W        W34473  16.574   1.656  13.232  0.2222  0.1972  0.0983
16270W        W34474  13.386   3.478  14.259  0.2244  0.2923  0.1185
16271W        W34475   9.042   1.547  15.357 -0.0982 -0.1496  0.0956
16272W        W34476   4.271   2.477  14.909  0.0472 -0.1511 -0.0732
16273W        W34477   4.517   5.562   0.004  0.1298  0.0242  0.1593
16274W        W34478   7.716  13.537   1.366 -0.1119  0.1301  0.0968
16275W        W34479  12.711   8.888  17.189 -0.3307 -0.2395 -0.0009
16276W        W34480  13.112  15.332   5.508 -0.0082  0.0813 -0.2032
16277W        W34481  11.240  14.492   0.202 -0.0828 -0.2580  0.0138
16278W        W34482  14.520   8.215   3.809  0.1908  0.0676 -0.0585
16279W        W34483   0.409   7.107   1.599  0.1431 -0.0940  0.2185
16280W        W34484   6.192   5.894  13.405 -0.2275 -0.3960 -0.0048
16281W        W34485   4.331   0.911   4.100 -0.0662 -0.1427 -0.1467
16282W        W34486  10.781  10.891   3.315 -0.3473  0.1690  0.1649
16283W        W34487   8.996   6.102   0.538  0.0020 -0.5224 -0.1196
16284W        W34488   8.485   7.752  14.504  0.0757 -0.1250  0.1314
16285W        W34489   2.807   2.440  12.104 -0.2085 -0.0368  0.0722
16286W        W34490  16.075   4.193  16.824  0.1635 -0.0935 -0.1025
16287W        W34491   3.594   9.485  17.192  0.1882 -0.0242 -0.0144
16288W        W34492   5.577  13.521  15.544 -0.3849  0.0837 -0.1965
16289W        W34493  14.743  10.818  13.267 -0.1494 -0.3582 -0.0033
16290W        W34494   9.840   8.483  13.681  0.1273 -0.1675  0.0541
16291W        W34495  16.767   1.090   4.905  0.1006  0.1167  0.0071
16292W        W34496  12.641   5.558  15.657  0.0655 -0.0738  0.1808
16293W        W34497  13.549   2.909   4.675  0.2281 -0.2503  0.2143
16294W        W34498  12.892   0.978   4.486  0.1481  0.0625 -0.2424
16295W        W34499  13.849   4.097  12.872 -0.1709 -0.0543  0.2371
16296W        W34500  15.561  16.478  13.806 -0.3570  0.0269 -0.0848
16297W        W34501  15.496  16.572  15.730 -0.0067  0.1772 -0.1460
16298W        W34502   4.040   9.930  12.183  0.2826  0.2259 -0.0240
16299W        W34503  13.327  14.881   0.418  0.1421 -0.3002 -0.0067
16300W        W34504   8.483   2.496  16.740 -0.1154 -0.1194  0.0823
16301W        W34505   9.221   5.596  15.637  0.0525  0.0741 -0.0444
16302W        W34506  15.509  13.787  11.975 -0.2047 -0.1774  0.2969
16303W        W34507   9.369  10.886   0.129  0.1252  0.0495  0.1914
16304W        W34508  14.362  12.705   6.437  0.2178 -0.0156  0.2512
16305W        W34509  16.024   4.687  16.776  0.2373 -0.2914 -0.0409
16306W        W34510  10.060   5.384   1.799  0.2868 -0.1528  0.1008
16307W        W34511  15.853   1.732   1.117 -0.1463 -0.1883 -0.0616
16308W        W34512  16.542  17.486  17.145  0.0345 -0.0954  0.2758
16309W        W34513   7.216  10.020   2.766 -0.1699  0.1462  0.3919
16310W        W34514   1.002   5.812  12.509 -0.1904  0.0223  0.2171
16311W        W34515   2.536  15.772  15.185 -0.2064 -0.0158 -0.2579
16312W        W34516   3.931  12.142  14.118 -0.3842 -0.0971 -0.3132
16313W        W34517   0.307   5.634   4.079  0.0681  0.0830  0.2144
16314W        W34518   0.866  13.887   4.192  0.3704  0.2486  0.0894
16315W        W34519  14.757  14.873  14.735 -0.0070 -0.1725  0.1166
16316W        W34520   1.894   6.099  12.461 -0.2494  0.2387 -0.0378
16317W        W34521  10.866   7.610   3.601  0.0634  0.1690  0.2009
16318W        W34522   3.102  13.767  14.341 -0.1331 -0.1126  0.0511
16319W        W34523  10.110  11.389   1.058 -0.0177  0.0748 -0.0925
16320W        W34524   2.400  16.513  16.911  0.1138  0.2203  0.5759
16321W        W34525  17.315  14.337  16.850  0.0180  0.0918 -0.2294
16322W        W34526  11.153  16.960  17.103  0.0604 -0.2006  0.2098
16323W        W34527   8.356   8.798   5.198  0.0883 -0.2051 -0.1699
16324W        W34528  15.366  16.431   1.031  0.1046  0.2253  0.0267
16325W        W34529  11.718  13.615  17.138  0.0031 -0.2523 -0.0460
16326W        W34530  10.637   0.852   2.300  0.0271 -0.1050  0.0054
16327W        W34531  14.365  10.752  15.219  0.0528  0.0348  0.1337
16328W        W34532  16.907  14.323   5.006 -0.1682  0.5284 -0.2382
16329W        W34533  15.565  16.176   6.138  0.0890  0.1104  0.0694
16330W        W34534   2.700  10.330  12.788 -0.0690  0.1942 -0.2322
16331W        W34535   8.091  13.006   0.030  0.1720  0.4143 -0.0926
16332W        W34536  13.979  10.786  17.144 -0.0783  0.0080  0.1389
16333W        W34537  17.070  17.266   5.733 -0.2062  0.2599 -0.0318
16334W        W34538   1.776  10.862  16.992  0.1491  0.1552  0.0361
16335W        W34539  15.528   3.388  17.276  0.0433 -0.0362 -0.2332
16336W        W34540   3.584   9.052  16.985 -0.0344 -0.1849 -0.1183
16337W        W34541   4.655  15.916  16.832 -0.1628  0.1877  0.2370
16338W        W34542   1.352   1.233   0.406  0.3077 -0.0994  0.2005
16339W        W34543   0.874  17.224  15.084  0.0404 -0.0264  0.2409
16340W        W34544  14.715   3.238   1.379  0.3923  0.1564  0.0900
16341W        W34545  16.227   7.385  15.342  0.0110  0.1293 -0.0586
16342W        W34546   5.443  12.344  13.813  0.2740 -0.0231 -0.0793
16343W        W34547  17.234   7.341   4.423 -0.1519 -0.0971 -0.0000
16344W        W34548  13.510   5.891  13.099 -0.1792  0.4476 -0.1034
16345W        W34549  12.480  12.870   3.883 -0.0917 -0.0850  0.0910
16346W        W34550   1.689  15.205   0.121 -0.0669  0.0431 -0.2254
16347W        W34551   1.889   4.770   2.923  0.0342 -0.0962  0.1819
16348W        W34552  15.992   1.361   4.981 -0.2873 -0.2023 -0.0518
16349W        W34553   6.789   3.649   2.378  0.0469 -0.1875  0.0528
16350W        W34554   2.775   5.054  14.869  0.1234  0.1213  0.1671
16351W        W34555  12.478   0.001  16.774  0.0978  0.0341  0.1481
16352W        W34556   6.274   3.733  13.683  0.1368  0.1820  0.0662
16353W        W34557  11.745   2.155  13.197  0.3432  0.0542  0.0739
16354W        W34558   7.548  12.241  17.236 -0.3256 -0.2994 -0.0221
16355W        W34559  17.373   0.440   1.122  0.0765  0.3000  0.3486
16356W        W34560   9.517  13.887   4.225  0.1302 -0.3239 -0.3270
16357W        W34561   4.768   5.623  16.851 -0.0584 -0.0009  0.0220
16358W        W34562   8.038  13.308   2.115 -0.3016 -0.1246  0.1085
16359W        W34563  12.276  13.464  14.153 -0.1653 -0.0752  0.1110
16360W        W34564  12.870   3.399  17.060 -0.0281 -0.1478 -0.0787
16361W        W34565  15.731   2.257  15.285 -0.0721 -0.0892 -0.2238
16362W        W34566  16.743   5.805  16.395  0.0726  0.2864  0.1359
16363W        W34567   9.414  16.532  16.327  0.0215 -0.2894 -0.0597
16364W        W34568   3.835   0.481  16.453 -0.1714  0.1049 -0.0565
16365W        W34569   0.238  15.598   2.340  0.2872 -0.3263  0.0960
16366W        W34570  15.670   8.867  14.671  0.0824  0.2195 -0.3683
16367W        W34571   0.552   7.764   0.496  0.2312 -0.3020 -0.0413
16368W        W34572  12.238  11.231  13.104 -0.1135  0.0345 -0.0954
16369W        W34573   9.277   1.064  15.074  0.2515 -0.1842 -0.0551
16370W        W34574  10.117   5.510   0.499 -0.0163 -0.0977  0.1727
16371W        W34575  15.969  16.203  13.751 -0.2000 -0.1872  0.0340
16372W        W34576  11.529  13.473   5.379 -0.2545  0.1825 -0.1958
16373W        W34577  14.396   0.826   0.121  0.0035  0.0418  0.0354
16374W        W34578  10.507   0.153  16.875 -0.2699 -0.1121 -0.1780
16375W        W34579   7.244  10.655   2.269  0.2820 -0.2804 -0.1285
16376W        W34580   0.875   7.400   0.520 -0.0995 -0.0660  0.1533
16377W        W34581   5.048   5.041   4.379  0.3246  0.5453  0.0158
16378W        W34582   9.244   7.215   3.852  0.0554 -0.0676 -0.1971
16379W        W34583  15.818  12.023   0.532  0.1738  0.1739 -0.0540
16380W        W34584   4.639  13.033  14.834  0.0293  0.0553 -0.2244
16381W        W34585  14.331   8.897  15.435  0.2517 -0.1520  0.0090
16382W        W34586  12.504   7.186  11.722  0.0684 -0.3072 -0.2438
16383W        W34587  12.348  14.413  15.151  0.4084 -0.0796 -0.0563
16384W        W34588  17.290  14.236   5.293  0.0517 -0.4531  0.0896
16385W        W34589   8.347   0.824   0.200 -0.0407 -0.0054  0.1719
16386W        W34590   2.876  10.143   0.170  0.1621 -0.2019 -0.1012
16387W        W34591  10.666   6.277   0.806 -0.2147  0.0651  0.1540
16388W        W34592  13.928   6.944  16.019  0.0929  0.1284 -0.0595
16389W        W34593  17.063   8.083   4.226 -0.0552  0.0558 -0.0468
16390W        W34594   8.572   6.258   4.879 -0.1113  0.1676 -0.0914
16391W        W34595   0.011  16.083   0.161  0.0475  0.4452  0.1630
16392W        W34596  15.448   4.684  14.699 -0.1258  0.2426 -0.2931
16393W        W34597  17.395  10.700  16.034 -0.1922  0.0247  0.0301
16394W        W34598   0.210  13.501   1.758 -0.1126 -0.3509  0.0579
16395W        W34599   2.288   9.512   0.573 -0.0149  0.2402  0.1949
16396W        W34600  10.981  14.697   1.352 -0.0862 -0.1315 -0.0455
16397W        W34601   6.892   8.479  16.039  0.5431 -0.1094 -0.0411
16398W        W34602   7.486  10.037  15.169 -0.0635  0.1002  0.3607
16399W        W34603   2.443  12.764   2.226  0.1897 -0.0869 -0.0565
16400W        W34604   0.373  12.851   1.248  0.0473  0.2091  0.0239
16401W        W34605   6.978   2.211  17.096 -0.1454 -0.2140 -0.0474
16402W        W34606   8.687   2.438   4.525 -0.1117 -0.0155 -0.2703
16403W        W34607   2.397   5.795   2.613  0.2885  0.1669 -0.2144
16404W        W34608  14.000   5.139  14.124 -0.0437 -0.2457 -0.1729
16405W        W34609  17.006   5.194   1.176  0.1218  0.2403 -0.2276
16406W        W34610   5.822  16.685  14.922  0.0170  0.1068 -0.1742
16407W        W34611   0.621   9.472   4.710 -0.0904 -0.3640 -0.0486
16408W        W34612  15.598  16.350   4.682 -0.1593 -0.0509 -0.1475
16409W        W34613   9.875  15.175  16.686  0.0398 -0.1376  0.1459
16410W        W34614   8.494  13.691   4.888 -0.1964 -0.2479  0.0683
16411W        W34615   5.466  13.802  16.886  0.3774  0.1148 -0.1075
16412W        W34616  13.011   9.130   2.726  0.2722  0.0609  0.0953
16413W        W34617  16.706   3.292   2.654  0.0048  0.0882 -0.0307
16414W        W34618  14.375   2.591  13.871  0.1944  0.0544 -0.0240
16415W        W34619   8.719   4.620  13.563 -0.1445 -0.2174  0.3405
16416W        W34620  16.448   9.787  16.542 -0.1462 -0.2033  0.2260
16417W        W34621  15.673   0.063   1.698 -0.1378  0.1076 -0.2093
16418W        W34622   7.775   0.447   1.964  0.2889  0.1153  0.0577
16419W        W34623  11.727  12.784  11.953  0.2614  0.2699  0.0054
16420W        W34624  14.202  13.350   2.268 -0.1102 -0.3662 -0.2738
16421W        W34625   5.092   3.824   1.911  0.5269 -0.0142 -0.2363
16422W        W34626  13.903  11.836   4.850 -0.1934 -0.1227  0.0995
16423W        W34627  12.904   4.659   1.171  0.0141 -0.1541 -0.2006
16424W        W34628  13.874   9.908   3.185  0.0982  0.1168  0.2303
16425W        W34629  16.507  16.594  15.955 -0.1818 -0.1294 -0.0769
16426W        W34630   9.147  10.567   0.496  0.2447 -0.0572 -0.0186
16427W        W34631  13.246   0.636   4.244 -0.1598 -0.1687 -0.0007
16428W        W34632   9.454   3.755   0.884  0.1407  0.0152  0.1505
16429W        W34633   0.225   0.372   6.271  0.0297  0.0304 -0.0048
16430W        W34634   8.519  14.733   4.014  0.4118 -0.0718 -0.1448
16431W        W34635  10.497   4.825   2.258  0.1258  0.0562 -0.1331
16432W        W34636   5.499   0.744  13.640 -0.4233 -0.0378  0.1238
16433W        W34637  16.722   6.703   5.112  0.0465  0.0495 -0.0691
16434W        W34638  13.509   5.071   5.271 -0.1430 -0.0243  0.0171
16435W        W34639   2.655  15.640   1.683 -0.2615 -0.2959 -0.0579
16436W        W34640  16.980   5.771   3.426  0.2046  0.5155 -0.0434
16437W        W34641  15.265   2.458   0.471 -0.1034  0.2953  0.1352
16438W        W34642   5.049  12.634   3.915  0.1312  0.0190  0.2818
16439W        W34643  12.056   4.532   4.176  0.2070  0.1286  0.1285
16440W        W34644   1.244  13.652  15.197 -0.0698 -0.0604  0.4587
16441W        W34645   0.488   2.971   2.175  0.2478 -0.1997  0.2572
16442W        W34646   3.608   5.360  14.075 -0.0840  0.1912  0.1906
16443W        W34647  10.636   8.638   3.281 -0.1406 -0.1764  0.0982
16444W        W34648   0.499  10.078  12.582 -0.1694 -0.1772 -0.1278
16445W        W34649   3.232  12.027   2.256  0.0068  0.1814 -0.1017
16446W        W34650   3.800  10.319  17.081 -0.0974  0.1064 -0.3754
16447W        W34651   2.724   4.366  12.435 -0.0056 -0.2462  0.0881
16448W        W34652  11.052   9.051  16.930 -0.0651  0.2273  0.2175
16449W        W34653   1.230   0.289  14.049  0.0307 -0.0675 -0.0637
16450W        W34654   3.903   0.305   0.905 -0.2278 -0.3077  0.1074
16451W        W34655   7.726   7.614  14.066  0.1410  0.1012 -0.1599
16452W        W34656  17.057   7.878   3.413  0.1917 -0.0806 -0.2772
16453W        W34657  11.290  15.651  16.798 -0.0862  0.0380  0.1171
16454W        W34658  17.356   4.392   1.340  0.1661  0.3212  0.0755
16455W        W34659  11.952   1.284  16.691 -0.2805  0.1069  0.0449
16456W        W34660  14.086  12.047   3.313  0.0051 -0.0976 -0.0318
16457W        W34661   3.756  14.822   6.428 -0.0035 -0.0625 -0.0488
16458W        W34662  14.613  10.777   3.140 -0.1768  0.2214  0.0352
16459W        W34663   9.623  13.088   3.672  0.0556 -0.0439 -0.1940
16460W        W34664  15.387   1.313  15.288 -0.0114  0.4332  0.1418
16461W        W34665   8.574   8.188  15.392  0.1009 -0.1532  0.1216
16462W        W34666   4.378   2.519   3.500 -0.1929 -0.2742  0.2421
16463W        W34667   9.093   8.920  17.146 -0.1633  0.0579  0.0300
16464W        W34668  14.809  17.428   4.160  0.2501 -0.1609 -0.0525
16465W        W34669   9.664  17.338  15.161 -0.2040  0.1650 -0.2785
16466W        W34670   8.782  16.995  13.627 -0.0046  0.0398 -0.4278
16467W        W34671   3.904  14.569  16.133 -0.0827  0.2614  0.0825
16468W        W34672  10.305   7.027  17.041  0.3114 -0.1191  0.1219
16469W        W34673  13.729   4.590  15.353 -0.3849 -0.0488 -0.1411
16470W        W34674  14.705   3.454  15.779  0.3994  0.0689 -0.0088
16471W        W34675  13.512   8.932  16.594  0.1673  0.2202  0.3126
16472W        W34676   0.953  13.745  14.408  0.2617 -0.2793  0.0708
16473W        W34677  11.646  15.663   1.560  0.2178  0.0511  0.3162
16474W        W34678   0.185   8.692   3.052  0.4580 -0.0704 -0.2084
16475W        W34679   4.382   9.294  14.724  0.0494  0.1860 -0.2141
16476W        W34680   0.523   6.373  14.415  0.0335  0.3374 -0.0037
16477W        W34681   9.424   6.133   2.731 -0.1047 -0.0065 -0.1900
16478W        W34682  10.279  11.662   4.904  0.1539  0.0028 -0.1803
16479W        W34683  10.209  11.066  12.342  0.2331  0.1015  0.0453
16480W        W34684  16.410   5.798  12.714 -0.0769  0.0214  0.1559
16481W        W34685  16.373  14.739   1.918 -0.1331 -0.3741 -0.1529
16482W        W34686  17.324   4.321   1.944  0.1515 -0.0520 -0.2176
16483W        W34687  17.032  16.071   4.501 -0.0899 -0.2149  0.0413
16484W        W34688  16.584  14.683   4.460 -0.1787 -0.0343  0.3076
16485W        W34689   1.803   2.781   4.176  0.2939  0.4534 -0.3670
16486W        W34690   5.104  12.115   2.210  0.1107  0.1479 -0.0064
16487W        W34691   4.840   8.005  15.764 -0.0923  0.4004  0.0300
16488W        W34692  16.618  15.281  12.842  0.1330 -0.1249 -0.3729
16489W        W34693  14.477   6.659   2.640 -0.2896 -0.4337  0.0481
16490W        W34694   7.679  13.206  17.094 -0.0892 -0.1765 -0.0178
16491W        W34695  13.197  11.999  15.519  0.1957  0.3062  0.1686
16492W        W34696   9.659  11.967   0.151 -0.0641 -0.0538  0.1934
16493W        W34697  14.873   4.025   1.996 -0.0703  0.3417  0.3715
16494W        W34698  12.410  11.512   3.844 -0.0184  0.1105 -0.1228
16495W        W34699   4.669  15.764  13.703 -0.0757  0.2367  0.1305
16496W        W34700  15.573   1.480   2.918  0.3551 -0.0900 -0.2146
16497W        W34701   8.289  12.266   4.445  0.1324  0.3727  0.1219
16498W        W34702   0.703   0.001   2.248  0.0679 -0.2199  0.1317
16499W        W34703   5.581  16.145  14.154 -0.2490  0.0785  0.0829
16500W        W34704   5.534  10.685   3.136 -0.2200 -0.0802  0.0198
16501W        W34705   5.318   9.335   0.028  0.2302 -0.0401  0.0417
16502W        W34706   6.371  16.071   4.951 -0.0251  0.1652  0.1162
16503W        W34707  10.081  16.286  15.086  0.0880 -0.0828  0.1615
16504W        W34708   8.921   3.927  14.344  0.3963  0.0513 -0.1355
16505W        W34709  11.175   5.673  17.089 -0.0186  0.1453 -0.0430
16506W        W34710   7.999   0.130  17.127 -0.4213 -0.1575 -0.0381
16507W        W34711   0.384   1.006  16.023 -0.2266  0.0101 -0.1924
16508W        W34712   1.251  14.149  14.444 -0.0809  0.4102  0.2210
16509W        W34713  11.302   8.784   1.626  0.2134 -0.0989  0.0455
16510W        W34714   9.260  12.409   0.547 -0.1550 -0.1238 -0.1825
16511W        W34715  13.586   0.691  15.798 -0.4230 -0.2157  0.0601
16512W        W34716  12.415   5.246  13.302 -0.0138  0.0936 -0.0532
16513W        W34717  15.376   2.429   3.317  0.0298  0.0903  0.2630
16514W        W34718  16.990   1.495  13.391 -0.1975 -0.0053 -0.1287
16515W        W34719   1.865   9.832  13.806  0.0378 -0.2202 -0.1630
16516W        W34720   1.833  15.545  14.625  0.1747  0.0437  0.0853
16517W        W34721   0.216   7.161   3.534  0.0005  0.0040 -0.1028
16518W        W34722  15.545   2.225  12.278  0.2954  0.1163  0.4172
16519W        W34723   4.160   8.265  14.810 -0.1613  0.1262 -0.0748
16520W        W34724  10.385  12.734  13.224  0.2736  0.3600 -0.1891
16521W        W34725   2.214  14.670  12.490 -0.3448 -0.1046  0.0860
16522W        W34726  14.268   0.134   2.086 -0.0092 -0.2732 -0.2601
16523W        W34727   8.845   0.437   2.326 -0.2407  0.1483 -0.2099
16524W        W34728  11.056   2.675   2.635  0.0950 -0.1208  0.1104
16525W        W34729   3.474   0.211   0.459  0.1959  0.1352  0.1811
16526W        W34730   4.347  10.812   1.384 -0.0541  0.2120  0.0026
16527W        W34731   8.898   8.159  13.695 -0.2173  0.0819  0.2169
16528W        W34732   2.963   1.283   1.612 -0.1943 -0.1995 -0.0860
16529W        W34733  16.390   4.505  15.515 -0.1202  0.1393  0.2830
16530W        W34734  16.397   1.866   2.375  0.2818 -0.1166 -0.0365
16531W        W34735   2.114   3.206   0.800  0.1653  0.1303 -0.2909
16532W        W34736   9.512  17.262  14.015 -0.2962 -0.1496 -0.2790
16533W        W34737   8.114  12.922   1.434  0.2126 -0.0405  0.0354
16534W        W34738   1.512  13.632  14.756 -0.1332  0.1163 -0.1064
16535W        W34739   8.711  12.409  13.986  0.0572 -0.0464 -0.2432
16536W        W34740   8.959  16.406  15.598 -0.2728  0.1630  0.1589
16537W        W34741   3.372   0.709  13.571 -0.2348  0.1172 -0.3911
16538W        W34742   8.223  11.349  17.233  0.1594 -0.2550  0.0142
16539W        W34743   2.644   2.409   1.975 -0.0632  0.0036  0.0291
16540W        W34744   4.846   9.977   3.924 -0.0116 -0.2048  0.0275
16541W        W34745   9.613   6.112   3.189 -0.1297 -0.0221  0.1858
16542W        W34746  12.080   3.610  17.257  0.2095  0.3906 -0.1673
16543W        W34747  16.668   6.027   1.524  0.0445 -0.0315  0.0110
16544W        W34748  10.756  16.417   1.137  0.0755 -0.0047 -0.1956
16545W        W34749  17.535  13.096   1.584  0.0130 -0.2474  0.0521
16546W        W34750  12.642  10.607   5.468 -0.0752 -0.1481  0.0294
16547W        W34751   7.719   3.808  13.003 -0.4477 -0.1743  0.3154
16548W        W34752  10.068   0.287   3.926  0.1765 -0.1296  0.0270
16549W        W34753  13.495  11.839  11.650  0.2060  0.0025 -0.0527
16550W        W34754  16.611   1.736   4.467  0.0282  0.1588  0.1038
16551W        W34755   8.255  13.964   0.209  0.0608 -0.1097  0.1122
16552W        W34756   9.974  12.242  16.455 -0.0448 -0.3104 -0.0528
16553W        W34757  15.850   7.275   3.969  0.0271  0.1265  0.0483
16554W        W34758  13.674   7.905   0.119  0.0568  0.0636 -0.0622
16555W        W34759   3.501  17.027  13.870  0.0172  0.3324 -0.0417
16556W        W34760  11.076   1.311  12.185 -0.1333  0.1645 -0.2073
16557W        W34761  10.846   4.495  16.935  0.1353 -0.0614 -0.1316
16558W        W34762  13.862  15.820   0.442  0.2502  0.1900  0.0092
16559W        W34763  11.810  16.337  16.979 -0.0927  0.1247  0.0433
16560W        W34764  15.818   2.646   2.335  0.0416 -0.2231  0.1660
16561W        W34765  15.895   5.911  16.864 -0.1191 -0.1281  0.2591
16562W        W34766   6.868  16.076   2.497  0.4797  0.1488 -0.0669
16563W        W34767   9.432  10.039   2.740 -0.1497  0.4185  0.2188
16564W        W34768   3.396   6.760  14.101  0.0322  0.0208 -0.0827
16565W        W34769  11.154  15.388   2.777  0.0400 -0.3681 -0.3052
16566W        W34770   6.197  16.861  12.162  0.1112 -0.1230 -0.1656
16567W        W34771   5.715   1.895   2.782  0.1751 -0.2657 -0.2572
16568W        W34772   0.074  13.112   3.264 -0.0418 -0.3579 -0.2026
16569W        W34773  13.659   7.988   2.187  0.1381  0.1664 -0.2777
16570W        W34774   1.691  11.683  14.983 -0.1990 -0.0669  0.1208
16571W        W34775   5.333   8.809   3.521 -0.2641  0.1435 -0.0535
16572W        W34776  17.114   9.619   1.009 -0.0483 -0.1198 -0.2941
16573W        W34777   2.153   3.918  16.893 -0.0413  0.1040  0.0968
16574W        W34778  12.355   0.171   2.839 -0.0105 -0.1503 -0.0232
16575W        W34779   6.059   9.413  12.897 -0.2473 -0.0140  0.0348
16576W        W34780   8.051  13.609  11.758 -0.2772  0.0109  0.0115
16577W        W34781  16.035   1.937  15.592 -0.0366  0.1892  0.0936
16578W        W34782   2.944  10.194  16.893 -0.2241  0.0384 -0.2374
16579W        W34783  10.135   0.803   2.686  0.1892  0.1662  0.2318
16580W        W34784   8.875  11.078  14.486 -0.0850  0.0761 -0.0675
16581W        W34785   1.204   6.710  13.387 -0.1350 -0.2489  0.0569
16582W        W34786  11.371  13.461   4.561 -0.2094 -0.3040  0.0328
16583W        W34787   9.358   0.771   3.886  0.2068 -0.1205 -0.0653
16584W        W34788   2.450   7.699   4.571  0.3232 -0.1524  0.2742
16585W        W34789  15.003   1.684  17.162 -0.0002 -0.2687  0.1296
16586W        W34790   0.341   5.512   1.288  0.0821  0.3262  0.1534
16587W        W34791  10.406   3.585   1.709 -0.1010 -0.1370 -0.0699
16588W        W34792  17.322  12.924   2.795 -0.0696 -0.0734 -0.0140
16589W        W34793  11.369   7.831   3.832 -0.0028 -0.0360 -0.1584
16590W        W34794  12.207  15.001  15.242  0.1957  0.0960  0.1007
16591W        W34795  12.059   6.717  13.184 -0.0821 -0.1210  0.3296
16592W        W34796  16.629   5.671  11.935  0.0752 -0.2800 -0.0572
16593W        W34797  12.283   8.319  15.323  0.0491  0.1355  0.0747
16594W        W34798   2.926  11.049   2.431 -0.1493 -0.1211 -0.0927
16595W        W34799   2.573   3.475  16.083 -0.0971 -0.2024 -0.2216
16596W        W34800   2.894   9.766  12.098  0.0905  0.0830 -0.0624
16597W        W34801   4.689  10.311  14.766 -0.0400 -0.0781  0.1553
16598W        W34802   2.713   2.344  14.398  0.2185  0.1663 -0.1026
16599W        W34803   8.282  12.834  16.833  0.0148  0.1461  0.3344
16600W        W34804  10.298  11.287   0.570  0.0482 -0.0215 -0.0926
16601W        W34805  14.596   2.075  13.387 -0.0555 -0.2585  0.0124
16602W        W34806   6.189   7.941   1.196  0.0370 -0.1263  0.0290
16603W        W34807  17.184   3.404   1.043 -0.0941 -0.1399 -0.2320
16604W        W34808  14.141   0.805  12.960  0.0800 -0.0140 -0.0913
16605W        W34809   5.569   1.443  14.383  0.1169 -0.2162 -0.0004
16606W        W34810   1.987  10.222  14.517  0.0436  0.0673 -0.0583
16607W        W34811   9.440   3.054  15.837 -0.0788  0.0911 -0.2289
16608W        W34812  10.438   4.784  16.877 -0.4602 -0.3387  0.3096
16609W        W34813   1.055  10.418   2.545 -0.1871  0.2723 -0.1320
16610W        W34814   1.952   2.581  16.120 -0.4175  0.0298  0.3398
16611W        W34815   7.831  13.113  11.648 -0.0257  0.4509 -0.1192
16612W        W34816  17.074   7.922  14.102 -0.1370  0.1738 -0.0188
16613W        W34817   9.037  13.219   0.053  0.0304 -0.0230  0.1424
16614W        W34818  15.459   9.851  14.842 -0.1735  0.0203  0.1183
16615W        W34819  15.576   1.706  15.588 -0.1292  0.0779 -0.1026
16616W        W34820   3.090   0.630   2.738 -0.2242  0.0581 -0.1654
16617W        W34821   5.116  12.407  15.973 -0.4687 -0.1674 -0.3621
16618W        W34822   6.862   6.883   2.712 -0.1264  0.4119 -0.1071
16619W        W34823  10.557  14.776   4.017 -0.1639 -0.3136 -0.0203
16620W        W34824  16.892   0.210   4.978  0.0094 -0.3105 -0.4401
16621W        W34825   5.329  15.299  13.403 -0.2621 -0.1087  0.2552
16622W        W34826  11.920   1.117   5.008  0.0282 -0.2482  0.0129
16623W        W34827   6.108   5.577   2.715  0.0736 -0.0093 -0.1095
16624W        W34828   0.193  11.468  16.582 -0.1581  0.1050 -0.0254
16625W        W34829   1.005   1.426  17.166 -0.0283 -0.0149 -0.0797
16626W        W34830   0.917   6.882   3.215 -0.1852 -0.0941 -0.0810
16627W        W34831  14.698  15.784   0.476 -0.1143  0.0973 -0.1895
16628W        W34832   5.256  12.617  12.339  0.0267 -0.0944 -0.4993
16629W        W34833  13.205  15.532  17.270  0.2521  0.0463 -0.2785
16630W        W34834  12.979  11.254  15.224 -0.3139 -0.1558 -0.0606
16631W        W34835  16.795  10.388   3.210 -0.0019  0.0041 -0.2195
16632W        W34836   3.331  13.345  14.249 -0.1035 -0.2326  0.0993
16633W        W34837  12.143  14.171   2.958  0.2245  0.0737  0.0869
16634W        W34838   8.467   1.734  13.250  0.1619  0.0157 -0.0458
16635W        W34839  16.807   7.299   3.000  0.1607  0.1977  0.5036
16636W        W34840   2.431  15.110  16.753  0.1523 -0.0361  0.0022
16637W        W34841   0.805  16.067   1.683 -0.0726 -0.0813  0.1677
16638W        W34842   2.276  13.954   0.468  0.3242  0.1446 -0.1577
16639W        W34843  15.134   8.436  16.533 -0.1796  0.0604  0.0591
16640W        W34844  14.336  16.198   0.479 -0.1850  0.0069 -0.1149
16641W        W34845  17.041   9.791  13.192  0.1218 -0.0318 -0.0480
16642W        W34846  15.398   6.655   1.944 -0.0497  0.0223  0.0503
16643W        W34847   2.902  14.064  14.748 -0.2288  0.0090 -0.0805
16644W        W34848  16.998  13.926  16.407  0.1432 -0.1330 -0.0112
16645W        W34849  17.328   7.452  14.231  0.0977  0.0034  0.0982
16646W        W34850   9.491   0.259  16.743  0.1090 -0.1922 -0.4054
16647W        W34851   7.736  11.710  14.235  0.1846 -0.0330 -0.3185
16648W        W34852   5.376  15.510   4.643  0.0715  0.3193  0.1966
16649W        W34853  16.102  10.323   2.148  0.2987  0.1921  0.2645
16650W        W34854   9.737  12.194   2.637 -0.2943  0.1057 -0.2460
16651W        W34855  12.051   6.111   2.268  0.2540  0.0962 -0.0700
16652W        W34856  13.506  10.782  14.480  0.1210  0.0001 -0.0156
16653W        W34857  14.599   9.558   0.544 -0.0888 -0.1317  0.0577
16654W        W34858   5.767   9.158  17.079  0.0363 -0.0046  0.1718
16655W        W34859   5.685  14.645   4.022 -0.2798  0.0140 -0.1595
16656W        W34860  11.349   8.331   3.904 -0.1675 -0.0485 -0.0469
16657W        W34861   0.972  10.835   0.317 -0.0697  0.0172 -0.1768
16658W        W34862   5.672  15.391   2.781  0.1978  0.1656  0.0348
16659W        W34863   7.279   6.392  14.460 -0.2212 -0.5221  0.0526
16660W        W34864  13.651   0.365  13.899 -0.2308 -0.1339 -0.0906
16661W        W34865   1.521   0.410  13.248  0.2509 -0.1728  0.4016
16662W        W34866   8.209  16.870  15.792  0.1710  0.1830  0.2309
16663W        W34867   3.617   5.431  15.280 -0.2481  0.0609 -0.1910
16664W        W34868  13.994   3.764   1.712 -0.2116 -0.1739 -0.1464
16665W        W34869   3.580  15.180  15.242  0.1466  0.2418  0.0572
16666W        W34870  14.814   2.558  12.493  0.2320  0.0822  0.1517
16667W        W34871   1.369   7.140  11.849 -0.0183 -0.0086  0.1795
16668W        W34872  10.531  10.997   5.646  0.0893 -0.0205  0.1094
16669W        W34873  17.039   8.173  16.715 -0.4555 -0.2514 -0.0599
16670W        W34874   6.858   3.279  16.991 -0.2437  0.4668 -0.1434
16671W        W34875  14.105   3.384   1.291  0.0875  0.2649 -0.1620
16672W        W34876   9.552   2.603   2.340 -0.1890  0.1669  0.0701
16673W        W34877   2.301  15.235  15.519 -0.1550 -0.0792  0.0149
16674W        W34878   7.022   2.231   2.813  0.2025  0.1894  0.1604
16675W        W34879  11.521  10.333   3.728  0.2756 -0.0890  0.0239
16676W        W34880   1.925   0.012  12.211  0.1212 -0.1208 -0.0446
16677W        W34881   6.185   5.319  12.053 -0.0227  0.2434 -0.1025
16678W        W34882   9.775  10.294   3.054 -0.4568  0.0047 -0.0895
16679W        W34883   3.219   3.588  16.719 -0.2298  0.1138 -0.0696
16680W        W34884   9.458  12.397  16.320  0.0858 -0.1327  0.0408
16681W        W34885   9.242  12.802  12.608 -0.0486  0.3101 -0.0427
16682W        W34886   9.181   6.967  12.374 -0.1070  0.1433 -0.2281
16683W        W34887   0.613   8.612  13.491  0.1103 -0.2037 -0.0652
16684W        W34888   0.635   8.213   5.797 -0.1158 -0.0347  0.1969
16685W        W34889   9.219   6.544   3.942  0.0074 -0.2625 -0.1087
16686W        W34890  12.669   6.960  11.305 -0.0961  0.1659  0.2754
16687W        W34891  11.871   9.224   3.550  0.2770 -0.0354  0.5150
16688W        W34892   6.892   6.571  15.073  0.1266 -0.1431  0.2072
16689W        W34893  13.165  17.007  16.974 -0.1989  0.6480 -0.4554
16690W        W34894   0.190   3.803  15.926 -0.2594  0.1274  0.0056
16691W        W34895  12.303   0.490  16.590 -0.1264 -0.0014 -0.1215
16692W        W34896   8.127  14.972   4.140 -0.0523  0.1249 -0.0438
16693W        W34897   9.538  16.356  14.450  0.0701 -0.0995  0.0399
16694W        W34898   3.857  15.486  16.306 -0.3400 -0.0429 -0.2205
16695W        W34899  14.938  15.080   3.794 -0.4591 -0.1581 -0.3385
16696W        W34900  11.727   8.771   2.177  0.2293  0.0840  0.0033
16697W        W34901   3.974   1.556  14.053  0.0105 -0.0924  0.2540
16698W        W34902   8.787   3.948   3.222  0.2795  0.0567  0.0906
16699W        W34903  17.234   1.960   0.721 -0.1662 -0.1637 -0.0634
16700W        W34904  11.596  15.035   3.078  0.0505 -0.0990 -0.2023
16701W        W34905   7.417   8.526   0.575  0.0019 -0.0490 -0.1094
16702W        W34906   8.268  14.061   1.622 -0.0124 -0.0563  0.0854
16703W        W34907   8.571  15.033  15.492 -0.0028 -0.1390 -0.1603
16704W        W34908   1.683   2.370   1.075  0.1776 -0.0351  0.0185
16705W        W34909   1.326   8.200   0.924  0.1388  0.2987  0.2108
16706W        W34910  15.249   5.373   1.642  0.0368  0.1559  0.0459
16707W        W34911   5.888  15.069   4.143  0.0230  0.4630  0.0457
16708W        W34912   7.773  10.755  15.592  0.0318  0.0267 -0.1455
16709W        W34913   8.262   2.914  16.471 -0.1969  0.2187  0.0849
16710W        W34914   2.992   4.596  17.025  0.2299 -0.1114 -0.3325
16711W        W34915   4.366  15.775  17.206 -0.1361  0.2211  0.1036
16712W        W34916  10.782  10.776  14.624  0.1479 -0.0542 -0.0100
16713W        W34917  13.082  17.029   0.879  0.0390 -0.3215 -0.1283
16714W        W34918  12.019   4.942   0.366 -0.3223 -0.0845 -0.1297
16715W        W34919   4.405  15.721   1.551  0.0526 -0.1283  0.2728
16716W        W34920   4.027   1.702  17.163 -0.1359  0.0640  0.1196
16717W        W34921   3.771   1.643  13.230 -0.1496 -0.0253 -0.3075
16718W        W34922   1.970  14.794   1.524  0.2237  0.0081 -0.1482
16719W        W34923   9.784   7.356  16.233  0.3737  0.1791 -0.0821
16720W        W34924  12.000   9.054  13.827  0.0708  0.0320  0.1428
16721W        W34925   6.675  15.821  15.673  0.2594 -0.0210 -0.0845
16722W        W34926   6.548   3.515   0.646  0.5498  0.3639 -0.1233
16723W        W34927   8.521   3.994  14.674 -0.0097  0.0831 -0.1137
16724W        W34928  16.965  13.478  14.022 -0.0559  0.2843 -0.0942
16725W        W34929   1.410   1.730   0.031  0.0890  0.1048  0.0746
16726W        W34930   1.669  10.821  15.021 -0.0395 -0.2678 -0.3581
16727W        W34931   4.404   1.717   1.756  0.0101  0.1230 -0.1349
16728W        W34932  10.719   2.480   0.629 -0.0714  0.1573 -0.1039
16729W        W34933   8.337   3.381  13.357  0.2638 -0.2262 -0.1225
16730W        W34934  13.226   0.382  16.604  0.1400  0.1328 -0.1242
16731W        W34935   3.131   7.948  14.670  0.1270  0.1878  0.1538
16732W        W34936  12.166  10.976  14.985 -0.1947 -0.3763  0.5343
16733W        W34937  13.233   0.026   5.752 -0.1132 -0.1523  0.1272
16734W        W34938  13.646   1.096   1.702 -0.1155 -0.0611  0.1544
16735W        W34939   2.486   6.940  12.202 -0.0407  0.1215  0.0115
16736W        W34940  12.525  17.228   2.872  0.0248 -0.1352 -0.0685
16737W        W34941   1.199  12.200   4.616  0.2000  0.2436  0.1449
16738W        W34942  15.142   6.562  16.196  0.1576 -0.1542 -0.1936
16739W        W34943   4.531  10.118   1.038 -0.1464 -0.2029  0.1251
16740W        W34944  15.719   3.004   1.284  0.3399 -0.0222  0.0378
16741W        W34945  10.805   9.781   0.206 -0.1625  0.1747 -0.1414
16742W        W34946   0.850  11.395  14.834  0.0201  0.0280 -0.0170
16743W        W34947   2.702   4.006   1.221 -0.1506  0.0305  0.3046
16744W        W34948  16.137   2.864   3.410 -0.2378 -0.1566  0.1706
16745W        W34949   5.225   4.852  17.125 -0.2880  0.2766 -0.1961
16746W        W34950   3.708  15.130   3.177  0.1348  0.0533  0.3182
16747W        W34951   5.620  16.665   4.702  0.2573  0.0345  0.5122
16748W        W34952   1.475   6.029  12.933  0.0046  0.1526  0.2292
16749W        W34953  11.737   4.093  13.902 -0.2500  0.0675 -0.0459
16750W        W34954   9.055  13.845  11.828 -0.0481 -0.0586 -0.3289
16751W        W34955  13.748   8.590   5.236 -0.0830 -0.1708  0.1035
16752W        W34956   6.633   2.691  13.253 -0.0533 -0.1477  0.1987
16753W        W34957  17.258  11.580  13.702 -0.0255 -0.0187 -0.1956
16754W        W34958  15.774   2.915  17.094 -0.1227 -0.0328  0.1000
16755W        W34959   8.462   8.253  17.175 -0.1710  0.0888 -0.1225
16756W        W34960  12.446  11.036   2.273 -0.2125  0.0616  0.0879
16757W        W34961  15.491  15.363  12.837 -0.0785 -0.1778 -0.0999
16758W        W34962   9.017  15.106  16.287 -0.0129  0.0870  0.0890
16759W        W34963   7.327   1.885   2.669  0.3058 -0.2096  0.1901
16760W        W34964   0.789   2.857   1.488 -0.1690 -0.0173  0.2119
16761W        W34965  13.737   5.983  15.186  0.3675  0.0194 -0.3950
16762W        W34966   8.204   8.357  12.749  0.0033 -0.0208 -0.1612
16763W        W34967   2.591  16.520  12.784 -0.3944  0.1055  0.1319
16764W        W34968  12.697   1.888  14.819  0.2160  0.2000  0.1416
16765W        W34969  14.464   3.891  12.115  0.0187  0.2500  0.0209
16766W        W34970  12.197   3.479   2.511 -0.0923 -0.0786 -0.0998
16767W        W34971   4.001   1.183  17.174 -0.2434  0.0245  0.1169
16768W        W34972   9.098   9.848  14.607 -0.0658  0.2659 -0.0656
16769W        W34973  16.141  12.082  11.571 -0.1582  0.1629  0.0288
16770W        W34974  16.117  16.225   4.633 -0.0757 -0.1331 -0.0194
16771W        W34975  13.378   8.014  14.329  0.0451  0.0572  0.1761
16772W        W34976   1.250   9.519   5.028  0.1069 -0.3987 -0.0619
16773W        W34977   1.551   9.199  12.221 -0.1941  0.1943  0.0872
16774W        W34978  10.643   0.357   1.142 -0.1726  0.2172 -0.2280
16775W        W34979   5.396  10.157  16.047 -0.2427 -0.0972 -0.3208
16776W        W34980   9.719   4.220  14.125 -0.2352  0.3214 -0.1134
16777W        W34981  12.978   3.030   2.701 -0.1431  0.0212 -0.0800
16778W        W34982   5.520   1.827  14.725 -0.0848  0.2529 -0.1754
16779W        W34983  13.690   2.379  16.699 -0.2235  0.1538  0.2827
16780W        W34984   1.012   7.337   2.973  0.1955  0.0204  0.0049
16781W        W34985   4.303   1.438  14.419  0.2147  0.0376 -0.1274
16782W        W34986  15.591   8.161  17.216 -0.1912 -0.1494 -0.2093
16783W        W34987   0.423   9.608   5.184  0.1352 -0.1523  0.0216
16784W        W34988  11.639  16.482  13.647  0.2421  0.2014  0.0957
16785W        W34989   9.150   5.405   4.198 -0.1207  0.0617 -0.0104
16786W        W34990  13.335   9.469   2.410  0.0236  0.1451 -0.0309
16787W        W34991  17.454  11.188   5.865  0.0152 -0.1895  0.1236
16788W        W34992  10.422   2.574   3.886 -0.1246  0.0491  0.0197
16789W        W34993   3.293  15.767  11.924  0.1819  0.2431 -0.1685
16790W        W34994   7.685   1.481  16.177 -0.0429  0.1797 -0.0355
16791W        W34995   4.040   3.300  16.834 -0.2213 -0.2326  0.1724
16792W        W34996  12.718   0.864  13.644  0.0502  0.0643  0.0737
16793W        W34997  17.383  17.439  14.230  0.1352  0.0763 -0.0378
16794W        W34998   6.813   4.326   4.274  0.0379 -0.0426  0.0344
16795W        W34999  14.077   1.173   3.169 -0.1534 -0.2517  0.2819
16796W        W35000   9.311   9.319  15.633  0.0017  0.1704 -0.4319
16797W        W35001   9.797  10.658   1.683  0.1436  0.1316 -0.2021
16798W        W35002   4.014   9.181  14.247  0.2493  0.0829  0.0717
16799W        W35003   7.715   6.680   4.692 -0.1603 -0.0554  0.0031
16800W        W35004  16.551  13.010   0.124 -0.1554  0.1356  0.0362
16801W        W35005   7.687  12.612  11.756  0.1047  0.1673  0.0494
16802W        W35006  13.975  15.604   1.194 -0.0585 -0.1884  0.1260
16803W        W35007   0.236  10.597   3.757  0.2442 -0.0088  0.0028
16804W        W35008  16.146   1.757  13.917 -0.1464  0.2875  0.1435
16805W        W35009  10.037   4.665  13.264 -0.1154  0.0604  0.1006
16806W        W35010  13.285  13.636  12.571  0.1847 -0.5328  0.2104
16807W        W35011  15.019  15.196   1.232 -0.2056  0.0676 -0.2361
16808W        W35012   1.028   8.361  13.748  0.0976 -0.1496  0.1845
16809W        W35013   7.775   1.921   2.457  0.0254 -0.1045 -0.2243
16810W        W35014   9.687  11.476   1.306 -0.0372 -0.2531  0.3166
16811W        W35015   8.322   1.076  16.923 -0.2611 -0.1951  0.1338
16812W        W35016   8.285  14.708  15.841  0.0343  0.0098 -0.0284
16813W        W35017   0.142  16.075   3.435 -0.0919 -0.0470  0.0771
16814W        W35018  11.869   7.407  15.145 -0.3080  0.3030 -0.0416
16815W        W35019   8.829   8.340   0.554 -0.5337 -0.0516 -0.2981
16816W        W35020  10.870  16.124   2.025 -0.2330 -0.2569 -0.1333
16817W        W35021   8.153   9.634   5.128  0.0515  0.3306  0.2579
16818W        W35022   9.265   4.416   2.603 -0.0989  0.2036 -0.0488
16819W        W35023   6.479  13.656  17.185 -0.0524  0.0646  0.0059
16820W        W35024  11.187  15.695  15.790  0.1626 -0.1064  0.0379
16821W        W35025   0.833   8.176  16.866  0.1931 -0.1195 -0.3340
16822W        W35026   8.833   2.463   0.995  0.1345 -0.3330 -0.0822
16823W        W35027  15.590   4.970   1.638 -0.0694  0.2056 -0.1364
16824W        W35028   9.163  14.417   0.562  0.0238 -0.0546  0.0714
16825W        W35029  13.377  13.545  16.849 -0.0184  0.0839 -0.0123
16826W        W35030   6.519   3.240   3.757 -0.0307  0.0575 -0.0364
16827W        W35031   1.667  10.856  12.841  0.0264 -0.1731  0.0864
16828W        W35032  14.704  11.009   2.724  0.3343  0.2300 -0.0985
16829W        W35033  10.239   8.468  16.947 -0.2560  0.1100 -0.1784
16830W        W35034  10.651  10.786  12.349  0.0799 -0.2358 -0.0486
16831W        W35035   7.254   7.667   1.079 -0.3085  0.1512 -0.0453
16832W        W35036   7.375   7.081   2.372  0.0758 -0.2509  0.1558
16833W        W35037  11.925   7.758  17.153 -0.0521 -0.1823  0.2269
16834W        W35038  13.602   7.387  15.425 -0.3603 -0.1065 -0.0728
16835W        W35039  10.904   5.217   3.951  0.0166 -0.1797  0.2487
16836W        W35040  12.966   8.706  14.550  0.2258 -0.3032  0.0213
16837W        W35041  15.794   9.199  16.434 -0.0165 -0.0256  0.1862
16838W        W35042   2.371   7.112   5.066  0.1025  0.1956  0.0296
16839W        W35043   9.772  11.707   0.886  0.4564 -0.0020  0.1987
16840W        W35044  13.820   7.768   1.721 -0.3020 -0.2144 -0.1929
16841W        W35045  10.394   4.907  12.435 -0.0364 -0.0953 -0.0377
16842W        W35046   9.286  17.546   4.172 -0.0087 -0.3994  0.0593
16843W        W35047  13.158   0.325  15.856  0.1413  0.1472  0.1974
16844W        W35048   0.149   7.611  16.467  0.0866 -0.0698 -0.0566
16845W        W35049  12.843  11.175  11.691 -0.1450 -0.2020  0.1119
16846W        W35050  16.373  16.104  15.970 -0.1639  0.0946  0.1652
16847W        W35051  10.591  15.353   5.397  0.1445  0.3764 -0.0519
16848W        W35052  16.563  17.268  15.408  0.1714 -0.0453  0.0796
16849W        W35053   1.121   9.525  16.932 -0.1215  0.2315 -0.2209
16850W        W35054   7.115   8.146   1.398 -0.3411 -0.0908  0.3910
16851W        W35055  11.829  11.909   2.356  0.3064  0.4068  0.1916
16852W        W35056   1.823   5.068  16.647  0.1118  0.0818 -0.0142
16853W        W35057  11.801   7.185  15.993 -0.2176 -0.2377 -0.0178
16854W        W35058   2.005   9.797   0.002  0.1832  0.0739 -0.1542
16855W        W35059   2.507  11.933   4.919  0.1004 -0.1087  0.0846
16856W        W35060   5.079  11.980   1.743  0.1265 -0.3187 -0.0530
16857W        W35061   6.279   0.072   4.589 -0.0105  0.3597  0.1746
16858W        W35062  17.204  12.772   3.270  0.0579 -0.3264  0.1623
16859W        W35063   5.977   3.006   0.038  0.2087 -0.2864 -0.1114
16860W        W35064  11.063   2.355  17.136  0.2221 -0.1632 -0.2625
16861W        W35065   2.756   1.294   1.084 -0.0275  0.1800 -0.1655
16862W        W35066  15.960  14.819   4.791 -0.0608 -0.0258  0.1663
16863W        W35067   8.437   3.568  15.584  0.4550  0.1886 -0.2440
16864W        W35068   1.976   8.328  15.778  0.0723  0.2406 -0.0997
16865W        W35069   7.278  16.413   3.415  0.2677  0.4554  0.4410
16866W        W35070  11.650  14.621   0.750  0.1917 -0.0093  0.0595
16867W        W35071   8.618  16.965  14.607 -0.1192 -0.1162  0.3648
16868W        W35072  12.731   8.739   1.301  0.2333 -0.1558 -0.0324
16869W        W35073   7.424   1.775   3.728 -0.0871  0.3130 -0.3804
16870W        W35074   8.263   6.391   5.364 -0.0514 -0.0478 -0.1014
16871W        W35075  16.689  11.530  13.447  0.1500 -0.0762  0.0968
16872W        W35076  16.255   0.777  15.259 -0.1790  0.2304 -0.0116
16873W        W35077   6.529   4.192   2.432 -0.0103 -0.1558  0.2792
16874W        W35078  17.202   5.134   4.024 -0.0124  0.2970 -0.1365
16875W        W35079   6.527   8.198   0.864 -0.1716  0.1945 -0.0665
16876W        W35080   3.705   7.628   1.614  0.2430 -0.0107  0.1493
16877W        W35081  17.095  11.825   3.101  0.1695 -0.2654  0.0487
16878W        W35082  16.810   2.962   4.847  0.0363 -0.0523  0.1024
16879W        W35083   4.437   8.824  16.443 -0.2287 -0.3155 -0.2101
16880W        W35084  10.323   8.239  13.640 -0.1244  0.0275  0.1637
16881W        W35085   5.973   1.023  13.734 -0.0875  0.4342 -0.2817
16882W        W35086   4.738   0.619   4.157  0.0963 -0.0534  0.0853
16883W        W35087   7.070  10.453  13.011 -0.0286  0.2152 -0.2979
16884W        W35088   5.967   7.314   1.100  0.1145  0.0645  0.0446
16885W        W35089   6.349   7.537   0.790  0.1137 -0.2074  0.0178
16886W        W35090  15.077  10.322   0.765  0.0666 -0.2209  0.2580
16887W        W35091  13.555  10.969  16.408 -0.1304 -0.0577 -0.0656
16888W        W35092   9.141  12.502  16.718 -0.1670 -0.1683 -0.3559
16889W        W35093   2.976  16.614  17.073 -0.1682 -0.0169  0.1322
16890W        W35094  16.831   6.634   2.226 -0.4191  0.0225  0.3019
16891W        W35095  11.626  15.217  16.098 -0.2777 -0.1031  0.0623
16892W        W35096  14.864   5.390  14.191 -0.0234  0.1276  0.0408
16893W        W35097  15.451   5.625   0.269 -0.0371  0.3077  0.0568
16894W        W35098   3.972   6.736  15.027 -0.0660  0.1406 -0.1169
16895W        W35099  10.748  17.282   0.133  0.1270 -0.2050  0.1583
16896W        W35100   1.916   8.840   0.046 -0.3923 -0.0161 -0.0198
16897W        W35101   5.886   5.685   2.245  0.1335 -0.1458 -0.2072
16898W        W35102  12.616   1.624  12.812  0.0023  0.5584  0.2296
16899W        W35103  17.141  14.091  15.054  0.1588 -0.1903 -0.0832
16900W        W35104  15.761  10.732  16.497  0.5706  0.1711 -0.2209
16901W        W35105  17.121   8.341   1.480  0.1572  0.0888  0.0185
16902W        W35106   4.291   8.979  12.648 -0.1595  0.1697 -0.0521
16903W        W35107   0.436   4.194   0.680  0.2326 -0.1902  0.3658
16904W        W35108   5.779   2.049   4.867 -0.3213 -0.1571  0.0191
16905W        W35109   5.725   5.161   0.566 -0.1144  0.1184 -0.4331
16906W        W35110   7.158  14.600  12.454  0.0454  0.3514 -0.2531
16907W        W35111  15.610  15.049   3.105 -0.1799  0.1385 -0.3399
16908W        W35112   0.696   3.565  12.916  0.0503  0.1338  0.0188
16909W        W35113  11.968   7.006   2.302 -0.0900 -0.1013  0.1127
16910W        W35114   2.025  10.255  16.288 -0.2649  0.1090  0.0735
16911W        W35115   9.516  14.916  13.963  0.1555 -0.0880 -0.0675
16912W        W35116  13.362   6.038   2.150  0.1013 -0.0869 -0.0476
16913W        W35117  15.332   7.538   2.711  0.1915 -0.0765 -0.0529
16914W        W35118  11.353   0.498  13.815  0.1449 -0.0126  0.1464
16915W        W35119  10.193   4.137  13.350  0.2261  0.0596 -0.0308
16916W        W35120  14.424   7.344  14.719  0.0702 -0.0487  0.0081
16917W        W35121   9.483   8.758  12.832 -0.0109  0.1862 -0.3137
16918W        W35122   6.077   0.885  14.680 -0.1223  0.1080 -0.2565
16919W        W35123   5.496   3.146   0.509  0.0583 -0.0263 -0.1990
16920W        W35124  11.011  11.937  12.487  0.0664 -0.1749  0.1352
16921W        W35125  16.750   8.845   3.202  0.1302  0.1146 -0.0539
16922W        W35126   8.728   0.167   3.355  0.4314 -0.0163  0.2278
16923W        W35127  13.291   8.675  13.787  0.1008 -0.1299 -0.2164
16924W        W35128   5.386   7.559   2.153  0.0222 -0.0273  0.0775
16925W        W35129  13.895  13.198  15.166 -0.0430 -0.0021 -0.1348
16926W        W35130  13.847  14.295   2.343  0.0435 -0.2979  0.0218
16927W        W35131  12.896   2.889  17.185 -0.0240  0.1308 -0.1248
16928W        W35132  12.146  14.361   3.645 -0.1784 -0.0262 -0.0525
16929W        W35133   3.893   4.631   2.856 -0.0319  0.1486 -0.2418
16930W        W35134   2.437  15.720   0.663  0.1178 -0.0350 -0.0314
16931W        W35135   2.579   4.877   1.744 -0.1111  0.1503  0.3596
16932W        W35136   8.349  12.192   0.268 -0.1927  0.1599 -0.0804
16933W        W35137  13.759   4.668  16.278  0.0053 -0.0929  0.1849
16934W        W35138   5.787   0.712  15.733  0.0759  0.0389  0.2100
16935W        W35139  17.297   8.959   5.311  0.3184 -0.4267 -0.0753
16936W        W35140   5.192   9.810   0.190 -0.1659  0.0312 -0.1675
16937W        W35141   1.210   5.615  13.164 -0.1439  0.1565 -0.1087
16938W        W35142  15.572   9.589   5.582  0.0240 -0.2442  0.2691
16939W        W35143  12.187   1.199  17.193  0.4474 -0.0147 -0.0282
16940W        W35144   0.969   0.860   3.313 -0.2000  0.1505  0.3319
16941W        W35145   4.974   0.037   3.252  0.1223 -0.1642  0.0827
16942W        W35146  12.697   1.131  12.798  0.0654 -0.1140 -0.1113
16943W        W35147   3.943  14.331   4.224  0.0161  0.1831 -0.0172
16944W        W35148   9.815  16.422  13.388 -0.0974  0.3390  0.0693
16945W        W35149   9.959   8.599   4.079 -0.0062  0.1481  0.3417
16946W        W35150   9.601   7.663  12.022 -0.0425 -0.3028 -0.1990
16947W        W35151   6.241   8.412   1.442 -0.0814 -0.3045 -0.1571
16948W        W35152   9.950  16.540  12.842 -0.0645 -0.3888  0.2344
16949W        W35153  15.048   9.501  16.315 -0.3456 -0.3367 -0.1325
16950W        W35154   0.460   2.311   2.797  0.0795  0.0196 -0.1963
16951W        W35155   8.890   2.312  15.751 -0.2065  0.1424  0.0936
16952W        W35156  17.091   3.303  13.575  0.1818  0.2129  0.6240
16953W        W35157   4.250   9.741   0.175 -0.0797  0.2311 -0.0577
16954W        W35158   5.850   2.522   2.306 -0.0981 -0.1375  0.1430
16955W        W35159   5.436  14.816  12.356 -0.0593  0.2189  0.2681
16956W        W35160  17.174   9.311   2.857  0.1137 -0.1738  0.0141
16957W        W35161   8.007   2.316   2.671  0.0025 -0.0492 -0.1995
16958W        W35162   0.858  14.778   3.451  0.1161 -0.0521 -0.2781
16959W        W35163   3.727  12.824  11.634 -0.1672  0.2581  0.3606
16960W        W35164  15.128   5.124   4.009 -0.3260  0.2484  0.2620
16961W        W35165   2.199  13.382   4.091  0.1383 -0.2683  0.0277
16962W        W35166   4.403   8.220  15.609  0.0836 -0.0249  0.0179
16963W        W35167   9.361  16.688  15.825 -0.0488 -0.3019  0.2986
16964W        W35168  12.396  14.964  16.394 -0.0471 -0.1503 -0.3305
16965W        W35169   5.154  13.141  14.914 -0.4420  0.0623  0.3162
16966W        W35170   1.244   3.308   1.637  0.1382 -0.1840  0.0104
16967W        W35171  13.860   1.886  16.360 -0.1816  0.3470  0.1476
16968W        W35172   4.153  12.999  14.638  0.1329  0.0780 -0.2585
16969W        W35173  15.515   4.836   5.727  0.0316  0.0690 -0.0667
16970W        W35174   0.333   7.094  12.814 -0.1131  0.3614  0.1555
16971W        W35175  11.998   2.250   4.057 -0.0862 -0.1396  0.1218
16972W        W35176  12.704   2.568  16.724  0.1162  0.0384  0.0280
16973W        W35177  13.956  13.161   5.077  0.0062 -0.1369 -0.0072
16974W        W35178   6.295   2.762  15.028  0.0121  0.0330 -0.0849
16975W        W35179   2.492  12.539   0.757 -0.1228  0.1098 -0.1208
16976W        W35180  11.789  16.182   2.168 -0.2418 -0.0621  0.2761
16977W        W35181   8.257  14.274  13.382 -0.0786  0.2373 -0.1769
16978W        W35182   1.501   6.318  15.601  0.1169 -0.1893  0.1598
16979W        W35183  12.959  11.214  16.677  0.1948 -0.1849 -0.2995
16980W        W35184  14.816  11.291   0.955  0.0593  0.0238  0.1204
16981W        W35185  10.973  13.267   1.624 -0.0393 -0.2102 -0.1781
16982W        W35186   1.096   0.721  15.442 -0.0635  0.0761  0.0139
16983W        W35187   7.627   4.914  12.172  0.0823 -0.1997  0.0400
16984W        W35188  16.712   9.158  15.225  0.3787  0.0270 -0.1232
16985W        W35189   3.657   0.253  15.437 -0.0415 -0.1571  0.0449
16986W        W35190   5.335   4.274  15.067  0.2095  0.0225  0.2565
16987W        W35191  14.959   0.651   0.715 -0.3829 -0.0340 -0.0048
16988W        W35192  10.785   5.704  15.880  0.1922 -0.3153  0.0202
16989W        W35193   9.763   0.370   1.939  0.0018  0.4683 -0.4330
16990W        W35194  10.301   9.000  12.151 -0.0098 -0.2062  0.0603
16991W        W35195  15.460   8.151   3.180  0.2203  0.1836 -0.1515
16992W        W35196   4.654   3.900  15.122  0.0952  0.0443 -0.2268
16993W        W35197  11.736   7.562   3.527  0.1328 -0.0080  0.1700
16994W        W35198  12.456   3.377  15.376 -0.0220  0.0555 -0.1496
16995W        W35199  17.256   1.167   5.163  0.0218 -0.2902 -0.1047
16996W        W35200   7.979   0.685   5.430  0.0953 -0.0391 -0.3301
16997W        W35201  11.542   3.356  16.192  0.0201 -0.0057 -0.2609
16998W        W35202   6.598   2.113  12.378  0.1444 -0.1888  0.0610
16999W        W35203   9.583   1.609   3.106 -0.1337  0.0379 -0.3031
17000W        W35204   6.245   1.475  15.321 -0.1013 -0.0593 -0.0966
17001W        W35205   3.061   5.611   4.253 -0.0838 -0.0480  0.2116
17002W        W35206  16.272   9.105   0.705 -0.0678  0.0454 -0.1085
17003W        W35207  10.040   6.340   3.020 -0.3884 -0.1373 -0.0224
17004W        W35208  11.494  11.414   5.257 -0.1878 -0.0332  0.0384
17005W        W35209   5.907  14.929  12.240 -0.2559  0.2348  0.1820
17006W        W35210  10.095   6.653   0.238 -0.0383 -0.1624 -0.2562
17007W        W35211  12.222   7.030   1.231  0.1424 -0.2677 -0.0056
17008W        W35212  11.220  12.698   0.712  0.1872 -0.1286  0.0023
17009W        W35213   5.989  14.106  11.679  0.1654  0.1151  0.0818
17010W        W35214  12.636   4.344   2.665  0.3009  0.1013 -0.2766
17011W        W35215   7.370   5.655  14.023 -0.0938  0.0814 -0.0349
17012W        W35216   0.012   6.984  12.231  0.2381  0.0140  0.0258
17013W        W35217   8.908  11.084   1.071  0.1194  0.0606  0.1256
17014W        W35218  15.522  14.216   3.142 -0.0308  0.1389 -0.1611
17015W        W35219  10.067   2.870   2.361 -0.1371  0.1783  0.0386
17016W        W35220   3.253  14.841   4.451  0.0411  0.1289  0.2037
17017W        W35221  10.518   0.768  13.606  0.1836  0.2668  0.0443
17018W        W35222  14.692  13.122  16.195 -0.1434  0.4644 -0.0825
17019W        W35223   0.025  11.968   3.237  0.0436  0.1471  0.0901
17020W        W35224  16.241   2.652   1.882 -0.2655  0.0771  0.3795
17021W        W35225   8.128   6.008  13.496 -0.1042  0.0187 -0.1224
17022W        W35226   7.298  12.136  16.570 -0.1806  0.1603 -0.1402
17023W        W35227   7.875  12.068   4.080  0.1862  0.0803 -0.3155
17024W        W35228  12.852   8.320   0.686  0.0493 -0.1263  0.0538
17025W        W35229  15.826  15.748  15.182  0.0486  0.1725  0.0835
17026W        W35230   8.749   4.141  13.387 -0.0957 -0.0382 -0.2332
17027W        W35231   9.732  16.413   0.095 -0.3139  0.2907  0.0164
17028W        W35232  12.008  16.330  11.431  0.0491 -0.1897  0.0005
17029W        W35233   3.955  15.633   0.239  0.1112  0.1651  0.0702
17030W        W35234  13.593   1.735  17.269 -0.1140 -0.2037 -0.0080
17031W        W35235   6.975   7.490  11.601 -0.2209  0.2220  0.1148
17032W        W35236  17.164   8.955  12.896  0.0635 -0.0901 -0.0264
17033W        W35237  15.172   5.061   0.242 -0.1447 -0.0318  0.2070
17034W        W35238   2.222  14.108   2.390  0.2374  0.1967  0.1961
17035W        W35239  13.247   7.782  13.582 -0.1002  0.0570 -0.0545
17036W        W35240   0.466  16.370  12.420 -0.1528 -0.0935 -0.5099
17037W        W35241   4.158   5.666   4.319  0.0284  0.1843  0.2056
17038W        W35242   1.391   5.732   3.252 -0.1059 -0.0342  0.1141
17039W        W35243  13.452   3.294   5.014 -0.2213 -0.1276  0.1559
17040W        W35244  10.911  11.554  13.430 -0.0204  0.0571 -0.0503
17041W        W35245  14.666  10.463   1.532 -0.3577  0.0905 -0.1865
17042W        W35246  10.418   0.313  13.765  0.1246  0.0895 -0.1370
17043W        W35247  13.633  15.492   5.475 -0.0188  0.4380 -0.4565
17044W        W35248  10.260   7.184  16.104  0.1718 -0.3316  0.0516
17045W        W35249  10.565   9.623  16.415 -0.0361  0.3112  0.0130
17046W        W35250  12.538   0.909   1.728 -0.2400 -0.3256 -0.0219
17047W        W35251   2.417  11.538  17.073  0.0734 -0.0597  0.2715
17048W        W35252  10.971  13.091   4.543 -0.1681  0.0279  0.1729
17049W        W35253   0.807   2.356   1.043  0.4351 -0.3077 -0.1937
17050W        W35254  10.623  11.149   4.319  0.1551  0.0850  0.1762
17051W        W35255  10.172   3.971  12.572 -0.0458 -0.5999  0.0238
17052W        W35256  12.542   9.586   3.441 -0.0150  0.0632  0.0806
17053W        W35257  17.543  10.426  11.950  0.0595 -0.1880  0.3408
17054W        W35258   8.782  16.994   2.229  0.1575  0.0081  0.0214
17055W        W35259  13.684   7.483  13.806 -0.0101  0.1887  0.3021
17056W        W35260   5.360  12.045   2.722  0.6176  0.0657 -0.0144
17057W        W35261  13.360  12.338   0.679 -0.2201 -0.0449 -0.4074
17058W        W35262   0.276  12.040  11.945 -0.0225  0.0214 -0.0124
17059W        W35263  15.553  10.372   1.738  0.4126 -0.0311 -0.2184
17060W        W35264   0.190  13.213  15.672  0.3462  0.0562 -0.1431
17061W        W35265   6.640   7.205   2.183 -0.2651 -0.1537 -0.2175
17062W        W35266   3.029  11.333  16.200  0.1182  0.1635  0.0818
17063W        W35267  11.960   8.662   0.283  0.0971  0.0211 -0.0197
17064W        W35268   8.426  11.895   0.671  0.0405 -0.0733  0.2915
17065W        W35269  16.607   2.484   0.878  0.1810 -0.1688  0.1334
17066W        W35270   7.377   7.151   3.821 -0.1278 -0.0141  0.3183
17067W        W35271   9.798   3.043   3.251  0.1283  0.0328 -0.0341
17068W        W35272   2.834   9.623   2.725 -0.0731  0.1882 -0.2232
17069W        W35273   9.920   6.009   0.421 -0.0607  0.1275 -0.0204
17070W        W35274  10.281   4.370   4.262  0.0291  0.3183 -0.1704
17071W        W35275   8.554   2.915   0.020  0.0585  0.1213  0.3031
17072W        W35276  13.923   6.005  13.309 -0.0481 -0.2136  0.3608
17073W        W35277   6.781  12.252   2.067 -0.2925  0.1399 -0.1090
17074W        W35278   5.932   7.934  12.400 -0.1632 -0.0265  0.0314
17075W        W35279   5.286   0.089   0.535  0.0890 -0.1848 -0.0371
17076W        W35280  15.741   2.202   5.070  0.3708  0.0770  0.4331
17077W        W35281   3.716   4.713  12.783 -0.1737  0.0004 -0.0900
17078W        W35282   2.263   6.765  16.935 -0.2746  0.4144 -0.0805
17079W        W35283   3.274   7.747  13.227 -0.2707 -0.2332 -0.0247
17080W        W35284   9.042  13.211  15.103  0.1567  0.5098  0.0919
17081W        W35285   5.486   2.438   4.782 -0.0354  0.0496 -0.1054
17082W        W35286  16.797   6.223   2.717 -0.1519  0.1118 -0.3228
17083W        W35287   3.814  11.305  16.013  0.0614 -0.0049  0.0456
17084W        W35288  14.648  16.323  16.099 -0.2037 -0.3337  0.1324
17085W        W35289  15.527   6.290  12.362 -0.0110 -0.0815  0.3892
17086W        W35290   0.538   1.751  14.237 -0.0034 -0.1162  0.0950
17087W        W35291   6.885  12.532   1.113 -0.1370 -0.0037  0.3791
17088W        W35292   8.836   5.287   1.023  0.0491  0.1139 -0.0515
17089W        W35293   0.985   5.200   5.563  0.1172 -0.2396  0.0156
17090W        W35294  16.495   7.493  11.797  0.0085  0.2754  0.0768
17091W        W35295   5.492  15.713  12.698 -0.2816 -0.1145  0.1630
17092W        W35296  13.181   9.601   2.860 -0.3197  0.3631  0.1265
17093W        W35297   8.534   2.263   1.382 -0.0137 -0.0448  0.1263
17094W        W35298   3.476  12.727  15.543 -0.1787  0.4808  0.0956
17095W        W35299   2.415   6.040  15.534 -0.1461  0.0749  0.0667
17096W        W35300  10.132  12.704   0.699 -0.0242  0.3418 -0.0857
17097W        W35301   4.921   3.276   3.609  0.3910 -0.3160  0.3947
17098W        W35302  15.788  15.923   3.207 -0.0463  0.1595  0.0199
17099W        W35303  13.729   7.778  12.611 -0.0359 -0.1058 -0.0825
17100W        W35304  17.045  16.719   1.423  0.2604  0.2533 -0.0427
17101W        W35305   2.608  16.531   3.561 -0.0829 -0.3134  0.2612
17102W        W35306   3.388  14.373   4.830  0.0487  0.0877  0.1158
17103W        W35307   9.623   9.544   4.367 -0.0360  0.1903  0.0090
17104W        W35308   5.259  17.298   1.276  0.3159  0.1759  0.3547
17105W        W35309  16.234  17.112  13.685  0.4994  0.1108 -0.1636
17106W        W35310   8.432   7.879   3.195  0.1046  0.1870  0.0239
17107W        W35311   5.830   7.134  16.410 -0.2812  0.0898 -0.0894
17108W        W35312  10.683  12.880  13.624  0.1850 -0.2680 -0.3049
17109W        W35313  10.773  16.588  15.706  0.0241  0.0986 -0.2222
17110W        W35314  11.518  14.770  13.819 -0.1484  0.0516  0.0555
17111W        W35315   6.262   4.141   1.923 -0.0428  0.3705 -0.0654
17112W        W35316   6.289  14.482  17.117 -0.1828 -0.2898  0.0602
17113W        W35317   0.591   3.584   2.348  0.0704 -0.3389  0.1516
17114W        W35318   5.858  12.557   1.776  0.1044 -0.0313  0.3310
17115W        W35319   7.230  14.943  14.255  0.0185  0.0550 -0.1832
17116W        W35320  15.859   3.939  12.699 -0.0809 -0.1330 -0.0114
17117W        W35321  16.604   7.719   5.035  0.3227  0.0368  0.0075
17118W        W35322   0.422   4.242  15.687 -0.0457 -0.2657 -0.0802
17119W        W35323  17.402   6.439  12.990 -0.0318  0.3164 -0.0312
17120W        W35324   1.519  11.334  12.191  0.1228 -0.1027  0.4660
17121W        W35325   8.132   3.866   0.123 -0.3822 -0.2528 -0.0257
17122W        W35326  12.427   5.148  16.507 -0.2407  0.1448  0.2590
17123W        W35327   1.699  17.477  14.662 -0.2071  0.0846  0.0295
17124W        W35328  14.379   1.852   5.324 -0.0098  0.2055 -0.3474
17125W        W35329   5.245  10.428  16.462  0.1461 -0.1036 -0.0396
17126W        W35330   1.502   6.692  16.406  0.2060  0.2740  0.2051
17127W        W35331   4.078  15.187  15.306 -0.0379  0.0267  0.0249
17128W        W35332   2.458  11.016  15.559 -0.0457 -0.2636 -0.2520
17129W        W35333  15.718  11.353  12.583 -0.1786  0.0194  0.0429
17130W        W35334   3.085   0.598   3.842 -0.1634 -0.0675 -0.1266
17131W        W35335  13.497   5.732   3.471 -0.1412 -0.1128  0.0774
17132W        W35336  13.367  15.248  13.276  0.0600  0.1062  0.0731
17133W        W35337  10.518   7.731   4.254  0.1953 -0.0205 -0.0073
17134W        W35338  17.187  11.608  13.194 -0.2414 -0.3522  0.0855
17135W        W35339  11.577  15.078  12.909 -0.4739 -0.1323  0.0039
17136W        W35340  14.400   2.989   1.692  0.0948 -0.2021  0.1988
17137W        W35341   5.347   6.528  15.080 -0.1596  0.2254  0.2014
17138W        W35342  16.677   7.326  12.241  0.2297 -0.0868  0.1557
17139W        W35343  14.554  16.686   2.092  0.1649  0.0237 -0.0024
17140W        W35344  16.667  14.615   5.459  0.3118  0.1296 -0.2178
17141W        W35345  14.909  13.836  12.179 -0.0957  0.2285 -0.1816
17142W        W35346   3.473   2.504   5.221 -0.0273  0.0200 -0.0432
17143W        W35347   0.558   9.596   1.257 -0.1581 -0.1100 -0.0832
17144W        W35348   9.694  15.343  12.047  0.1245 -0.0627 -0.0889
17145W        W35349   2.152   3.836  16.130 -0.3857 -0.4706  0.0315
17146W        W35350   7.951  12.141  12.491 -0.0335  0.4112 -0.4386
17147W        W35351  10.459   7.885  11.526 -0.0326 -0.0526  0.0165
17148W        W35352   4.117   3.974   1.570 -0.0476 -0.2261 -0.3312
17149W        W35353   2.346  14.647   3.696  0.0837  0.1433  0.2539
17150W        W35354   1.509  13.312   1.325 -0.0217 -0.0273  0.0450
17151W        W35355   4.801   5.117   3.990 -0.1214 -0.1536 -0.2270
17152W        W35356  14.423  10.823  16.111  0.0973 -0.4265  0.0445
17153W        W35357  15.951   9.155   3.915 -0.1790  0.1683  0.0375
17154W        W35358   0.152   1.235   4.818 -0.1357 -0.4312 -0.0164
17155W        W35359  16.724  13.951   5.316  0.2078  0.0514  0.2453
17156W        W35360  13.553  12.689  15.269 -0.1262 -0.3225 -0.2316
17157W        W35361   6.336   3.782  13.210  0.2523  0.0931  0.0495
17158W        W35362  13.103   5.345   3.642  0.1002 -0.1943 -0.1123
17159W        W35363  10.972  13.622   0.253 -0.0133  0.0929 -0.1656
17160W        W35364  13.777   2.382  16.086 -0.1172 -0.1318 -0.1209
17161W        W35365   4.586   3.704   4.650 -0.2678  0.2010 -0.1968
17162W        W35366   1.636  17.171   3.689  0.1076  0.3163 -0.0140
17163W        W35367   7.978  13.192  13.797  0.0002 -0.2934  0.2592
17164W        W35368  14.376  17.132   4.612  0.0995 -0.0855  0.1959
17165W        W35369  16.002  12.151   1.303 -0.5021 -0.1003 -0.2599
17166W        W35370  11.380   6.167   0.035 -0.1838 -0.3655  0.3994
17167W        W35371   0.615  11.063  14.422 -0.0208 -0.0403 -0.1628
17168W        W35372  15.981  12.743  17.020  0.0258 -0.1981  0.0204
17169W        W35373   3.158   2.264   2.007 -0.0162  0.2268  0.2616
17170W        W35374   3.173   9.957   3.020 -0.0125  0.1746  0.0702
17171W        W35375   8.935  15.832  11.878  0.2274  0.0136  0.1059
17172W        W35376  10.143  17.002   5.291 -0.1220  0.3517 -0.1512
17173W        W35377  14.544  11.831   3.127  0.2375 -0.3445  0.0950
17174W        W35378   0.731  10.550   5.474  0.0858  0.2567  0.0545
17175W        W35379   6.242  15.877  15.884 -0.3682  0.2292 -0.1198
17176W        W35380   8.408  13.365  16.200  0.2611  0.0919 -0.2853
17177W        W35381  17.118  14.524  16.361  0.0083 -0.3601  0.0815
17178W        W35382   8.228   9.658   1.324 -0.0037  0.1533 -0.0787
17179W        W35383  12.341  16.466   1.272 -0.3997  0.1272  0.0243
17180W        W35384   8.207   3.502   0.463  0.1894  0.1354 -0.0020
17181W        W35385   6.880  15.948   4.986 -0.4277  0.2203 -0.1122
17182W        W35386  16.296  10.146  12.756  0.3270 -0.0121  0.0188
17183W        W35387  15.991  11.334   4.991 -0.0993 -0.0015  0.0060
17184W        W35388   8.529   7.409  13.240 -0.1516  0.2784 -0.0317
17185W        W35389   5.558  16.324   3.109  0.2619 -0.0724 -0.0025
17186W        W35390   3.281  17.260  16.614  0.0173 -0.2463 -0.0268
17187W        W35391   9.177  17.153   1.783  0.1817 -0.0856 -0.2580
17188W        W35392   4.461  12.695   1.577  0.1069  0.2966  0.3294
17189W        W35393  14.225  17.324   5.857  0.1468 -0.3006 -0.2854
17190W        W35394  10.641  17.476   0.602  0.3500  0.0870  0.0195
17191W        W35395   7.066   8.233   0.908 -0.2027 -0.0658 -0.1095
17192W        W35396   2.608  15.691  16.767  0.4771 -0.1417  0.1103
17193W        W35397   6.581   3.131   2.269  0.1996 -0.1850  0.0919
17194W        W35398  16.140   0.905  12.245 -0.0975 -0.0540 -0.0636
17195W        W35399  14.515   8.607   0.549 -0.0902 -0.0011  0.2444
17196W        W35400  15.252  15.780  16.652  0.1179  0.4222 -0.2323
17197W        W35401   5.886   2.366   1.759 -0.2049  0.1670 -0.3373
17198W        W35402  11.644   5.841   1.854  0.0080 -0.1707 -0.1703
17199W        W35403  11.685  16.162  13.245 -0.0329  0.0707  0.3153
17200W        W35404  11.230   8.215  12.572 -0.2775  0.0624 -0.2172
17201W        W35405   5.176   8.583  13.199  0.0663  0.1770  0.1753
17202W        W35406  12.472  16.837   4.560  0.2388 -0.0510  0.1413
17203W        W35407  11.832   2.209   1.098  0.0057 -0.2894 -0.2786
17204W        W35408   7.151  12.865   0.906 -0.1026  0.0558 -0.2441
17205W        W35409  14.006   0.282  15.912 -0.0780 -0.1128 -0.1096
17206W        W35410  10.530  12.401   1.351  0.0962 -0.2043 -0.2235
17207W        W35411  15.469   5.443   3.837 -0.0793 -0.2856 -0.1530
17208W        W35412  10.472   9.742   1.621 -0.0296  0.1584  0.2023
17209W        W35413  16.162  15.367  12.966  0.0225 -0.0698 -0.0022
17210W        W35414   6.833   2.339   3.286 -0.1593  0.2503 -0.0160
17211W        W35415   4.473   8.668   3.904  0.1425 -0.0932 -0.0781
17212W        W35416   2.442   8.940   3.348  0.0709 -0.0499 -0.2831
17213W        W35417   5.063  16.633   0.081  0.4079 -0.1674 -0.1757
17214W        W35418   6.321  16.819  15.052 -0.0216  0.2088 -0.1067
17215W        W35419   2.435   7.135   4.508 -0.4940 -0.0003  0.3272
17216W        W35420  13.463  17.335  17.207 -0.1749 -0.0595 -0.1874
17217W        W35421  12.139   8.020   3.265 -0.1475  0.1198 -0.1740
17218W        W35422   2.368   2.336   0.328  0.1014  0.2869  0.2051
17219W        W35423  14.878   3.391  13.553  0.0014 -0.1247  0.0288
17220W        W35424  13.967  10.771  12.527  0.1167 -0.1738  0.1689
17221W        W35425   9.273  11.774   2.496 -0.1497  0.0627  0.0818
17222W        W35426  14.135  12.117  16.373 -0.1506 -0.1552 -0.3101
17223W        W35427   9.746   0.214   0.899 -0.1817 -0.3256 -0.1281
17224W        W35428  14.693  10.749  15.707 -0.2699  0.0733 -0.2199
17225W        W35429   6.493   8.436   0.241  0.0863 -0.1425 -0.2323
17226W        W35430  11.020   5.692   4.253 -0.1495  0.0597  0.3000
17227W        W35431   3.512  10.862   1.851  0.0476 -0.0136 -0.2343
17228W        W35432   1.515  14.032  15.039  0.2692  0.2369 -0.1007
17229W        W35433   4.101   4.557  14.577 -0.1488  0.0498  0.1054
17230W        W35434  12.692   9.639   2.980  0.0833 -0.3681  0.0999
17231W        W35435  12.232   2.073   2.826 -0.2400 -0.2887  0.1412
17232W        W35436  14.190   9.581   2.455  0.0727  0.2649 -0.1087
17233W        W35437   3.984   9.047  15.273 -0.3825  0.0140 -0.0750
17234W        W35438   6.135   1.415   0.519 -0.0560  0.0328 -0.0687
17235W        W35439  12.785  16.691  12.933  0.2383 -0.0745 -0.0229
17236W        W35440   6.189   1.405  11.234 -0.1858 -0.1815 -0.0763
17237W        W35441  11.333  12.232  14.514  0.0574 -0.0098  0.1903
17238W        W35442  14.073  14.520   4.030 -0.2631 -0.1484 -0.0788
17239W        W35443   1.707   2.316   3.984 -0.1384 -0.0167 -0.1875
17240W        W35444   3.938   5.804   1.389 -0.3945 -0.1786 -0.0110
17241W        W35445   8.438  14.930  14.997  0.0164 -0.0204  0.0719
17242W        W35446  11.086   3.659  12.200 -0.0418  0.5008 -0.2023
17243W        W35447   7.099  17.113   0.483  0.0700 -0.1273  0.5836
17244W        W35448   1.261   9.872  15.949 -0.0764  0.1117  0.2090
17245W        W35449  11.985   3.504   1.105  0.1555 -0.1479  0.2024
17246W        W35450   0.392   9.259   0.440  0.1164  0.0067  0.0170
17247W        W35451  12.493   9.894   5.023 -0.1376  0.1920 -0.0057
17248W        W35452  17.019  15.832  15.478  0.0120  0.0398 -0.0697
17249W        W35453   1.436   1.833  13.163  0.1225  0.0257  0.0867
17250W        W35454  12.414   1.605   0.138 -0.3778 -0.0328  0.3306
17251W        W35455   1.971  14.906  13.464 -0.0445 -0.0064  0.2776
17252W        W35456  13.296  10.780   1.858  0.2243 -0.1489 -0.1881
17253W        W35457  12.121   2.378   0.420 -0.2278 -0.2836  0.0578
17254W        W35458   9.960   2.076  16.405 -0.2148 -0.0501  0.1135
17255W        W35459  11.735   5.333   1.495 -0.0076  0.0654 -0.3478
17256W        W35460   0.600   3.003  14.954  0.4566  0.5391 -0.1062
17257W        W35461  11.523  13.793   3.447  0.1051 -0.1120  0.1337
17258W        W35462  13.764  12.461  14.690  0.1298  0.1057 -0.0132
17259W        W35463   3.876  13.387   0.337 -0.1530  0.0370 -0.2812
17260W        W35464  13.763   3.739  14.475  0.1328 -0.0201  0.1539
17261W        W35465   2.479   4.267   3.294  0.1243  0.0835  0.2530
17262W        W35466  11.129  16.303  12.425  0.2233  0.1539 -0.0253
17263W        W35467  11.864   2.890  14.958  0.0601  0.1946 -0.0265
17264W        W35468  17.315  16.682   6.373 -0.3580 -0.1817 -0.0217
17265W        W35469  11.114   3.665  13.613 -0.2167 -0.1700 -0.0825
17266W        W35470  13.963  10.206  13.229 -0.0586 -0.1900  0.1853
17267W        W35471   6.289  16.764   1.235  0.2333  0.1415  0.0801
17268W        W35472  15.578  17.090   3.900  0.2430 -0.3623 -0.1591
17269W        W35473  10.678   1.081  16.836  0.0428  0.5043 -0.3021
17270W        W35474  12.146  14.087  14.853  0.2241  0.1672 -0.0920
17271W        W35475   5.662   8.937  12.104 -0.0586  0.3040  0.0748
17272W        W35476  17.475  10.779   3.436 -0.3333  0.1035 -0.0763
17273W        W35477  12.820  15.499   4.010  0.4808  0.1574  0.0588
17274W        W35478  11.100   2.805  16.760 -0.0628  0.0585  0.0910
17275W        W35479   8.559   4.256  14.005  0.0529 -0.2031  0.0352
17276W        W35480  15.181  16.007   0.551 -0.0844  0.1474  0.1883
17277W        W35481  14.226   6.298   4.829 -0.1176  0.1473 -0.1588
17278W        W35482  10.030   5.561  15.296 -0.2033  0.2448  0.1264
17279W        W35483   3.674  14.241  12.715  0.2420  0.1618 -0.0832
17280W        W35484   3.387  15.979   2.354  0.2195  0.1829  0.1881
17281W        W35485   8.587  16.915  16.741 -0.1990  0.2192  0.3795
17282W        W35486   1.545  14.072   4.039 -0.1264 -0.0781 -0.3116
17283W        W35487   2.432   8.632  16.655 -0.2892  0.1906 -0.0581
17284W        W35488  13.359  16.954   3.105 -0.1714 -0.1849 -0.2148
17285W        W35489  15.173   4.739   2.621 -0.2040  0.2660  0.2387
17286W        W35490   0.610   3.450   0.532 -0.0295  0.0467 -0.1568
17287W        W35491   8.989   4.930  16.799 -0.0363  0.0995  0.1582
17288W        W35492  10.585   7.004  13.115  0.1298 -0.0554 -0.0532
17289W        W35493   7.578   4.417  14.127 -0.2593 -0.0944 -0.0572
17290W        W35494  17.013   2.165  12.907  0.1257  0.0741  0.0281
17291W        W35495   3.585  13.276  13.467 -0.0042  0.1606 -0.0534
17292W        W35496   4.131  10.946  16.020 -0.1819  0.0694 -0.1308
17293W        W35497   1.763  16.845   1.781 -0.2501  0.1022 -0.2130
17294W        W35498   8.524   3.120   3.274 -0.3108  0.1559 -0.0831
17295W        W35499   9.437   1.504   4.605  0.2751  0.1930  0.3226
17296W        W35500  12.663  16.346  13.304  0.0152  0.1364 -0.0220
17297W        W35501  11.259   0.598  16.316 -0.2311  0.1882  0.1490
17298W        W35502  12.221   0.662  14.389  0.3037  0.3666  0.1263
17299W        W35503   4.158  11.171   2.750 -0.2382 -0.1135  0.0834
17300W        W35504  11.952  13.733   1.209 -0.1396 -0.0874  0.2990
17301W        W35505   5.908  10.421  14.484  0.3339  0.2943 -0.0972
17302W        W35506  11.977   2.263  16.256  0.0542  0.1976 -0.0376
17303W        W35507   5.788   0.167   1.257 -0.0251 -0.1862 -0.3408
17304W        W35508   3.195  11.920  12.919  0.0142 -0.0308  0.2386
17305W        W35509   6.591   7.153  13.040 -0.2064  0.0245 -0.0645
17306W        W35510   3.574  16.008  16.253  0.1730  0.1211 -0.1922
17307W        W35511   5.332   4.719  15.395 -0.0826  0.4205 -0.3674
17308W        W35512   7.073   7.934  15.373 -0.0850 -0.0735 -0.0117
17309W        W35513   4.572   7.367  14.365 -0.0151 -0.0395 -0.1602
17310W        W35514  11.096   2.095   0.605 -0.0940  0.0212 -0.0029
17311W        W35515   8.645   2.783   1.412  0.1804  0.0996 -0.2387
17312W        W35516   9.209  11.277   3.990  0.0520  0.3933  0.1279
17313W        W35517  13.262   3.346  16.393  0.1238  0.1777  0.0567
17314W        W35518   5.228   9.692   4.942  0.3075 -0.0487 -0.2447
17315W        W35519   9.269   1.494  12.566  0.0201  0.0700  0.1393
17316W        W35520   8.945  17.340  16.836  0.0803  0.0342  0.0996
17317W        W35521  10.045   4.777   3.073 -0.0343  0.0644 -0.1038
17318W        W35522  15.696   4.407  12.685  0.1878  0.0087 -0.1308
17319W        W35523  14.745  12.636   2.108 -0.0051 -0.0156  0.2303
17320W        W35524  13.800   6.938  13.143 -0.3431  0.2595 -0.1660
17321W        W35525   9.967   4.808  12.753  0.0336 -0.0673 -0.1691
17322W        W35526   5.545   1.115  15.023  0.3298 -0.2960  0.1177
17323W        W35527   5.244   6.404   2.036 -0.1287 -0.2052  0.1093
17324W        W35528  16.310   8.902  15.443 -0.1791 -0.0038  0.0226
17325W        W35529   8.485  11.857  13.237  0.0623  0.1095  0.0820
17326W        W35530  13.680  14.362  16.122 -0.0354 -0.0839  0.1819
17327W        W35531   6.751   1.347   1.284  0.2117  0.0715  0.0770
17328W        W35532   8.130  15.118  14.416 -0.2540  0.1227 -0.0031
17329W        W35533  14.993   3.931  14.574  0.1895 -0.4093 -0.0452
17330W        W35534  11.421  12.328   0.340 -0.1755 -0.0134  0.1989
17331W        W35535  10.209   8.950  15.895  0.0558  0.2300  0.2163
17332W        W35536   8.561  10.368  14.002  0.0371 -0.2147 -0.1381
17333W        W35537   2.920   5.065   4.394  0.1931 -0.1622 -0.4362
17334W        W35538   0.743   9.882  11.422  0.2152  0.0638  0.0201
17335W        W35539   6.967  16.084  15.356  0.0006 -0.0071 -0.0983
17336W        W35540   0.307   8.345   3.870  0.4010  0.1777  0.0989
17337W        W35541  16.672   3.298  16.934 -0.0914  0.3100 -0.1609
17338W        W35542   7.183  13.210   1.790  0.0882 -0.1065 -0.0119
17339W        W35543   0.727   3.271  14.299  0.2613 -0.2671 -0.1950
17340W        W35544  12.160  13.349   2.108 -0.1421  0.0613  0.1198
17341W        W35545   9.870  13.601  12.536  0.1105 -0.3249  0.1737
17342W        W35546  15.217  17.402   1.947  0.1520 -0.1711  0.2775
17343W        W35547  12.857   4.299   3.109  0.1218 -0.1015 -0.3936
17344W        W35548   6.870   4.187  14.174 -0.2168  0.0296  0.1290
17345W        W35549  10.201  11.557   2.161 -0.1185  0.1641  0.1362
17346W        W35550   3.792   3.717   2.879  0.0708 -0.1828  0.1136
17347W        W35551   6.211  16.454   4.682  0.1125 -0.2854  0.1020
17348W        W35552  13.250   5.948  14.947  0.1193  0.2384  0.1214
17349W        W35553   1.397   2.529  12.406  0.3239 -0.2262 -0.0900
17350W        W35554  12.174  14.795  12.203  0.0018 -0.1536  0.1928
17351W        W35555   8.142   7.705  12.508 -0.2555  0.0685 -0.0992
17352W        W35556   5.379   1.138  17.116 -0.1155 -0.1888 -0.4005
17353W        W35557   2.475  13.702   0.086  0.0484  0.4723  0.1124
17354W        W35558   6.523  14.099  14.830 -0.0772 -0.4396 -0.2032
17355W        W35559  17.169   4.349   5.475  0.0490 -0.1020 -0.2468
17356W        W35560   1.602  13.256  16.496  0.0784 -0.0446  0.1750
17357W        W35561   6.862  13.089   1.393  0.1305 -0.2874 -0.3592
17358W        W35562   2.735   4.397   1.904 -0.0869 -0.1573  0.1262
17359W        W35563   7.931   5.441  13.135  0.0799  0.0790  0.2100
17360W        W35564  14.605   9.837  16.433 -0.0992 -0.0756 -0.3807
17361W        W35565  14.548   0.143  15.185 -0.0351  0.0818  0.2840
17362W        W35566   5.105   3.597  12.680 -0.0364  0.0420 -0.0081
17363W        W35567  14.652   0.096  14.478 -0.0314 -0.1041 -0.2943
17364W        W35568   6.279  15.493   4.944  0.1952 -0.1370  0.1424
17365W        W35569   4.027   1.368   0.735  0.0550  0.0714  0.1239
17366W        W35570  10.538   2.752  12.393  0.1252  0.2400  0.2362
17367W        W35571  12.294  12.565   2.383 -0.0212  0.4996 -0.2979
17368W        W35572   8.006   6.611  13.570 -0.1650 -0.1723  0.1644
17369W        W35573  13.339  13.426   0.029  0.1063 -0.2582 -0.0521
17370W        W35574  17.517   1.499   0.557 -0.0937  0.0651 -0.3952
17371W        W35575   9.283   5.015  16.360  0.2057  0.0515 -0.2621
17372W        W35576   2.614   3.539   2.018  0.0534 -0.0853 -0.1015
17373W        W35577   4.020  14.556   5.122 -0.0911 -0.2932  0.1998
17374W        W35578   8.787   3.578  16.686 -0.1546 -0.1050 -0.0341
17375W        W35579  17.130  13.852   0.086 -0.3615 -0.6059  0.2835
17376W        W35580   9.048  15.088  15.392 -0.1850 -0.0194 -0.0438
17377W        W35581  16.366  13.924   1.550 -0.1023  0.2066  0.0013
17378W        W35582  16.141   4.784  13.102  0.0847 -0.1070  0.1663
17379W        W35583  14.350  15.549   5.770 -0.1181 -0.1452 -0.0157
17380W        W35584   9.906   0.556   3.162 -0.2015 -0.0829  0.1349
17381W        W35585   4.410   0.756  12.981 -0.2957  0.0886  0.0847
17382W        W35586  17.176   3.828   1.326 -0.2266  0.0200 -0.0548
17383W        W35587   9.827  17.444  16.941 -0.2107  0.1225 -0.0720
17384W        W35588  10.876  15.895   2.768 -0.0331 -0.2214 -0.1507
17385W        W35589  11.718   3.278   0.024 -0.2246 -0.1468 -0.1304
17386W        W35590   0.257  10.118   4.155  0.1069 -0.0533  0.3474
17387W        W35591   0.108   8.067  16.114 -0.2837 -0.4738  0.1528
17388W        W35592  13.751   8.787  14.545 -0.3756  0.0291  0.1699
17389W        W35593   3.582   0.491  16.878  0.0063  0.0929  0.3069
17390W        W35594  11.823  12.781   2.619 -0.0617  0.2215 -0.0240
17391W        W35595   3.773   5.146  16.222  0.1442 -0.0798 -0.1264
17392W        W35596  12.292  12.069   2.319 -0.2838  0.0279 -0.2322
17393W        W35597   0.490  12.201  14.385 -0.0323  0.1521  0.1622
17394W        W35598   2.301  13.369  14.113  0.2006  0.1297 -0.2311
17395W        W35599  16.682  11.560  15.801 -0.0858 -0.2080  0.1747
17396W        W35600   0.411  16.970   1.130 -0.0084  0.2857 -0.3272
17397W        W35601   2.489  10.085  14.296 -0.2395  0.0683 -0.1189
17398W        W35602  14.551  14.599  14.352 -0.0749  0.2140 -0.0897
17399W        W35603  12.656   5.073  13.786 -0.4092  0.1836  0.0582
17400W        W35604  13.925   9.307   0.966 -0.2750  0.3089  0.0028
17401W        W35605  14.572  10.307   2.858 -0.0512  0.2190 -0.1791
17402W        W35606   4.328  10.410   2.146  0.1619  0.1625 -0.1594
17403W        W35607   8.593   1.776   3.190  0.2434 -0.2641 -0.1768
17404W        W35608   1.899  10.932   3.710 -0.2118 -0.1370  0.1661
17405W        W35609  16.853   2.354  11.960  0.1796 -0.0071  0.1412
17406W        W35610   4.322   1.486   2.922  0.0833  0.5055  0.0904
17407W        W35611   4.717   9.220  13.105 -0.2054  0.0063  0.0296
17408W        W35612  12.660   1.880  16.992 -0.1182 -0.3152  0.0086
17409W        W35613  11.579  12.964  12.944  0.1117 -0.2154 -0.1867
17410W        W35614   9.061  12.690  14.572 -0.2169  0.1691 -0.0634
17411W        W35615   6.845  16.140  14.114 -0.0355 -0.1478 -0.2711
17412W        W35616  11.478   6.465   1.003 -0.1236  0.0059 -0.1247
17413W        W35617  13.511   8.321  17.080  0.0683  0.0358  0.0737
17414W        W35618   6.717   5.803  13.395  0.1702 -0.1347 -0.1241
17415W        W35619  12.786  11.735  15.332  0.2280 -0.2688 -0.0240
17416W        W35620   6.855  16.594  16.496  0.0155 -0.0492 -0.0751
17417W        W35621  13.018   1.030   3.281 -0.0536 -0.2324 -0.1877
17418W        W35622   7.407  12.285   3.768 -0.1018 -0.0657  0.0915
17419W        W35623   4.484   8.879  16.970  0.3048 -0.1204 -0.3689
17420W        W35624   2.465  10.158   2.793  0.0851 -0.1461  0.0753
17421W        W35625   3.263   5.382  12.431 -0.2755  0.2354 -0.0004
17422W        W35626  15.365   9.371  13.145  0.0926  0.0919  0.1477
17423W        W35627  16.733   4.252   4.183 -0.0841 -0.1550  0.2333
17424W        W35628   9.576  16.924  13.124 -0.1059  0.2185 -0.3881
17425W        W35629  16.357   4.274   3.716  0.1862  0.2181 -0.0784
17426W        W35630   2.927  16.934  15.044 -0.2434 -0.1282 -0.2253
17427W        W35631   6.069   7.658   3.827  0.1054 -0.2499  0.2132
17428W        W35632   8.797   6.306   1.403  0.3014  0.0706  0.0327
17429W        W35633   7.728  13.559  16.707  0.0558  0.0418 -0.1812
17430W        W35634   4.678  12.352  15.309  0.1191 -0.1844  0.2007
17431W        W35635   0.765  13.367   4.035 -0.0389  0.0961  0.0277
17432W        W35636  10.973  13.565  14.084  0.4208  0.5050 -0.2302
17433W        W35637  15.334   9.170  16.103  0.0841 -0.2518 -0.0177
17434W        W35638   1.173  14.750  16.612 -0.2429  0.0555 -0.2101
17435W        W35639  10.963   5.586  14.214  0.1356  0.1539  0.0645
17436W        W35640   1.144   8.550  14.213 -0.2190  0.0593 -0.1247
17437W        W35641  11.117   5.050   0.762 -0.1473  0.0215  0.3398
17438W        W35642  17.143   0.045  12.255  0.3009 -0.0290  0.0459
17439W        W35643   7.365   5.967  15.416  0.0560 -0.1859 -0.2891
17440W        W35644   8.928  13.581  17.016  0.0060 -0.2463 -0.1137
17441W        W35645   8.255   7.203   0.064  0.1993 -0.0366 -0.0370
17442W        W35646  16.269   1.247  12.615 -0.1265  0.0711 -0.0510
17443W        W35647   1.406   9.027  16.914 -0.1807 -0.3618  0.0208
17444W        W35648   2.399   7.592  16.675 -0.2191  0.2025  0.3615
17445W        W35649   2.665   6.187  15.163  0.0467 -0.0612 -0.4136
17446W        W35650   3.911   2.667   1.026 -0.3354 -0.0366 -0.0041
17447W        W35651   0.830   6.663  17.216  0.0641  0.0724 -0.0540
17448W        W35652  15.573  12.813   1.852 -0.0034  0.1688 -0.2843
17449W        W35653   5.101   8.551  12.644  0.0414  0.3361 -0.2724
17450W        W35654   6.616   0.162  15.142  0.2586 -0.0883 -0.1100
17451W        W35655   5.144  11.317  12.603  0.1018 -0.2757  0.0175
17452W        W35656  13.761  13.373   4.133 -0.1284 -0.3381  0.0910
17453W        W35657   0.236  10.232  13.366 -0.1801  0.1041 -0.0061
17454W        W35658  12.372  11.233  12.230 -0.0194  0.0256  0.3933
17455W        W35659   6.969   6.047  11.862  0.2481  0.0014 -0.0243
17456W        W35660  13.831  14.321   5.738  0.0076 -0.0216 -0.1287
17457W        W35661   9.723  16.574   1.398 -0.2182 -0.4250  0.0848
17458W        W35662  10.247  13.475  14.933 -0.1246 -0.3306 -0.1541
17459W        W35663  15.881   0.931  12.722 -0.0876  0.0246  0.1697
17460W        W35664   5.123  14.453  14.765 -0.1120  0.2043  0.0718
17461W        W35665  11.155   2.818   5.605 -0.0343 -0.0870  0.1861
17462W        W35666   0.152   0.582  13.463 -0.2044 -0.0257  0.1849
17463W        W35667   6.358  14.695   3.383  0.3152 -0.1677  0.2953
17464W        W35668   3.624   2.458   4.641  0.0289 -0.1189 -0.3422
17465W        W35669   1.184   1.334   2.464 -0.0591  0.1511  0.0634
17466W        W35670   6.263  12.188   0.794  0.2895 -0.3083 -0.0705
17467W        W35671  14.550   6.108   2.764 -0.0542 -0.1496 -0.0858
17468W        W35672  13.539   5.473  15.619 -0.1125  0.0953  0.1113
17469W        W35673   3.048   1.434  12.226 -0.0733 -0.3150  0.2581
17470W        W35674  10.410  16.990   4.844  0.0006 -0.2423 -0.6871
17471W        W35675   6.643  15.722   4.588  0.1629  0.1251 -0.1645
17472W        W35676   8.695  14.581   2.627 -0.1876 -0.0363 -0.0495
17473W        W35677   8.888  16.420   0.757  0.2960  0.0166  0.0478
17474W        W35678  11.170  11.943  16.445  0.0283 -0.0476  0.2526
17475W        W35679   3.520   2.870   1.878 -0.0007 -0.1517 -0.0388
17476W        W35680  11.046  11.213   5.343 -0.1042  0.1811 -0.2178
17477W        W35681  16.706   0.356  14.094 -0.1261 -0.2507 -0.0140
17478W        W35682  12.347   8.284   2.857  0.1359 -0.1699 -0.4438
17479W        W35683  12.038   1.871   6.600 -0.4712  0.1756 -0.1646
17480W        W35684   4.925   0.515  14.270 -0.1877 -0.2741  0.1371
17481W        W35685   0.519   7.630   1.864  0.1153 -0.0060 -0.0374
17482W        W35686   0.847   9.807   3.573 -0.0681 -0.0482 -0.1321
17483W        W35687  15.535   7.255  14.226  0.1897 -0.0564 -0.2459
17484W        W35688   3.316  13.825   4.836 -0.1850  0.2279  0.3495
17485W        W35689   0.211  16.498  15.849  0.1799  0.0016 -0.0401
17486W        W35690   3.390   2.868  16.193 -0.2555 -0.0916 -0.1397
17487W        W35691   4.575   8.279  12.832  0.2828 -0.1694 -0.2628
17488W        W35692  16.983  12.247   5.627 -0.0295  0.1336 -0.0785
17489W        W35693   3.818   3.555  15.290  0.0857  0.2467 -0.0376
17490W        W35694   5.801  14.074   0.392  0.0771  0.1149 -0.1648
17491W        W35695  11.108   6.951   0.349 -0.0177 -0.3073 -0.0121
17492W        W35696   5.675   0.409   4.578 -0.3112 -0.2486  0.1462
17493W        W35697  11.724  17.431  16.500  0.1675  0.1352  0.2284
17494W        W35698   2.106   5.290  17.055 -0.1975  0.2838  0.0279
17495W        W35699   7.124   5.181   5.289  0.1286  0.0345 -0.1378
17496W        W35700  10.061   6.206   3.981  0.3282 -0.0793 -0.1628
17497W        W35701   2.425   8.369  13.159  0.0547  0.2841  0.1164
17498W        W35702  12.861   9.390  14.495 -0.0656  0.0239  0.1159
17499W        W35703  11.055   7.409  15.512 -0.0858  0.0983 -0.1470
17500W        W35704  13.295   5.286   0.891 -0.1829  0.0099  0.1480
17501W        W35705  14.993  14.003  10.908 -0.4921 -0.3716  0.0243
17502W        W35706   5.353   7.070  13.277  0.1114  0.1359 -0.0812
17503W        W35707   8.171  15.601   2.592 -0.0890  0.2006 -0.0903
17504W        W35708  10.487  10.269  14.810  0.0800  0.2275 -0.1012
17505W        W35709  13.853   5.127  15.940  0.1564 -0.0369 -0.2536
17506W        W35710   0.223  14.291   5.353 -0.0555 -0.1198  0.0549
17507W        W35711  15.118   4.871   1.481 -0.0857 -0.1243 -0.0823
17508W        W35712  12.535   5.841   4.301  0.1537 -0.0819  0.0733
17509W        W35713   0.127   9.493  17.177  0.2307 -0.2266  0.0100
17510W        W35714   2.332  17.145   2.397 -0.0389 -0.1605  0.3100
17511W        W35715   9.504  10.872   4.220 -0.0250  0.0608  0.4817
17512W        W35716  12.560   5.495  17.151  0.0002  0.0656 -0.0056
17513W        W35717   0.092   8.929  16.049 -0.2766  0.1144  0.1276
17514W        W35718   6.663   8.087  15.662  0.1494 -0.0295  0.0089
17515W        W35719  15.767   9.454   0.659 -0.1073  0.0803 -0.2424
17516W        W35720  10.318  15.946   3.638  0.0543 -0.1551  0.2230
17517W        W35721  15.867  11.365  16.459  0.2720 -0.2610 -0.1912
17518W        W35722   5.070   2.532  14.539  0.0176  0.0790 -0.2431
17519W        W35723  12.017   4.321   5.188  0.0006 -0.2303 -0.3152
17520W        W35724  11.095  15.315   3.344 -0.0084  0.0420  0.1116
17521W        W35725   1.981   8.264  13.418 -0.0438 -0.1767  0.0017
17522W        W35726   2.192   2.085  13.961  0.1655 -0.0245  0.1945
17523W        W35727  15.810  16.542   1.514  0.0878  0.4257 -0.0999
17524W        W35728   5.969   6.245   2.881  0.0788  0.0814 -0.0686
17525W        W35729  13.207  14.564   4.628  0.0438 -0.0263 -0.0963
17526W        W35730   3.939   3.284   3.168 -0.1432  0.0518 -0.0972
17527W        W35731   7.163   9.689  17.228 -0.1853  0.0038  0.2084
17528W        W35732  14.128   3.825   0.896  0.1161  0.0798  0.1960
17529W        W35733  14.790  14.284  14.046 -0.0055  0.1895  0.0770
17530W        W35734  10.164   4.986  15.643 -0.0601 -0.2098  0.1386
17531W        W35735  16.658   1.578  17.227  0.0422  0.3555  0.0405
17532W        W35736  11.614  10.961  12.527  0.2161  0.0325 -0.0206
17533W        W35737  11.911   5.427  14.308 -0.2914 -0.1588  0.2582
17534W        W35738   1.200   6.365  13.821  0.0268  0.0530 -0.1136
17535W        W35739  11.682   5.997   5.287  0.0394 -0.1254 -0.0312
17536W        W35740   6.435   8.529   4.863 -0.2801  0.0125  0.1487
17537W        W35741  15.795   2.242  14.808  0.1726 -0.1835 -0.2058
17538W        W35742  10.316  15.691  17.193 -0.0917  0.0652 -0.0363
17539W        W35743  12.837  13.780  12.903  0.0998 -0.0087 -0.0120
17540W        W35744  13.987  13.666  14.189  0.2829 -0.1043 -0.2009
17541W        W35745   1.373   0.184   1.292  0.0699 -0.0348  0.2583
17542W        W35746   0.591  13.625  12.405 -0.0773 -0.0313 -0.3395
17543W        W35747   4.961  14.558  16.708  0.0069  0.3291  0.2867
17544W        W35748   6.508  13.265  12.785  0.4448 -0.1269 -0.1597
17545W        W35749   3.403   6.871   5.481  0.0249  0.0464 -0.0204
17546W        W35750   4.809  12.673   0.833  0.2248  0.1847  0.2696
17547W        W35751  16.132   6.458   4.241  0.0048  0.2409 -0.0461
17548W        W35752   1.635   6.388   2.174  0.1624 -0.1232 -0.2688
17549W        W35753   9.023   1.669   3.472  0.3448 -0.2448  0.0519
17550W        W35754   3.310  14.829  17.258  0.0140  0.3413 -0.0832
17551W        W35755   3.625   3.571   0.821  0.2194 -0.0318  0.0624
17552W        W35756   4.741   8.893  13.502 -0.1953 -0.2143 -0.1257
17553W        W35757   3.283   4.186   2.111 -0.3023 -0.0163 -0.1599
17554W        W35758   7.879   2.424   4.201  0.3584  0.2930 -0.1051
17555W        W35759   4.852  16.700   4.290  0.2564 -0.3623 -0.1155
17556W        W35760  11.851   6.653   0.500  0.2025  0.2349  0.3212
17557W        W35761   3.848  14.829  13.887 -0.2898  0.2952  0.0079
17558W        W35762   4.994   5.129   3.125  0.1476  0.0971  0.0390
17559W        W35763   0.010   7.531   2.748  0.0016  0.0805 -0.0749
17560W        W35764   5.876  13.556   0.550  0.1377 -0.1976 -0.1516
17561W        W35765  13.051   8.389   1.388 -0.2161 -0.1166  0.0152
17562W        W35766   2.535  10.497  15.387  0.1249  0.1353  0.0140
17563W        W35767  15.187  16.776  14.549 -0.2386  0.1330 -0.1887
17564W        W35768   7.741   2.799  12.589 -0.2638  0.2328  0.0892
17565W        W35769  16.039   1.095  16.515 -0.2269 -0.2164 -0.1326
17566W        W35770  13.501  10.295   1.024  0.2866 -0.0272  0.0978
17567W        W35771  13.585   4.061   1.741 -0.2665  0.0861 -0.0454
17568W        W35772  10.312  13.879  14.529  0.1345 -0.3537 -0.3973
17569W        W35773   6.650  14.488   1.318 -0.2196  0.1169 -0.2563
17570W        W35774  15.911   1.033   2.279  0.0963 -0.3213 -0.2175
17571W        W35775  12.048  13.913   3.337 -0.0138 -0.0059  0.0710
17572W        W35776   1.475   2.901   6.051  0.1943 -0.2290 -0.1245
17573W        W35777   0.674   0.615  12.149 -0.1709  0.3556 -0.2389
17574W        W35778   4.216  10.786  14.179 -0.0857  0.1452  0.0577
17575W        W35779  12.997  11.677  12.394  0.0904 -0.1767  0.0816
17576W        W35780   2.573  12.743   3.304 -0.1851 -0.0241 -0.0902
17577W        W35781  15.551   4.974  16.669  0.2477 -0.4214 -0.0191
17578W        W35782  17.417   2.856   0.033 -0.2356  0.0885 -0.1751
17579W        W35783   1.118   4.475   5.185  0.0803  0.2963  0.0474
17580W        W35784  10.347   2.920   0.007  0.0249  0.0295 -0.2966
17581W        W35785   5.221   6.507  16.571 -0.0151 -0.1757 -0.1309
17582W        W35786  14.104   6.291   2.631 -0.1093 -0.3686 -0.0547
17583W        W35787   6.875   4.633   2.219 -0.1374 -0.2266  0.0869
17584W        W35788  14.235  16.839   2.563  0.0457 -0.1965 -0.3788
17585W        W35789   5.368  15.181   2.425 -0.0657  0.1107 -0.0965
17586W        W35790   3.647   9.222   3.338  0.1276 -0.2291 -0.0170
17587W        W35791  11.010  13.907   2.452 -0.0235  0.0347  0.1365
17588W        W35792  13.559  14.584   2.588  0.3169  0.2245  0.0917
17589W        W35793   7.278  11.947  16.091  0.0153  0.0150 -0.0009
17590W        W35794   4.317   3.229   5.018 -0.1601 -0.0406 -0.0857
17591W        W35795   0.470  12.853  15.046 -0.2581  0.2918 -0.1986
17592W        W35796  11.047  17.091   5.095 -0.3305 -0.0171  0.1834
17593W        W35797   6.305   5.693   1.232 -0.4706 -0.0402 -0.3950
17594W        W35798   9.120   0.455  13.445  0.0351 -0.2793 -0.0315
17595W        W35799   1.400   9.276  14.833  0.0798 -0.4933 -0.2429
17596W        W35800  14.691   3.375   2.035 -0.2069 -0.0677 -0.0735
17597W        W35801   7.074   7.672   1.537  0.1064  0.0021  0.1632
17598W        W35802   7.168   8.568  12.449  0.1094 -0.1248 -0.3894
17599W        W35803  12.620   8.453  13.655 -0.3592  0.1086 -0.2382
17600W        W35804   4.684  15.561  16.236 -0.0291 -0.0284 -0.2901
17601W        W35805   4.484  12.440   5.083  0.1209 -0.0190 -0.1703
17602W        W35806   2.231  11.755   4.074  0.1063  0.3787 -0.3177
17603W        W35807  11.090  15.905  11.965  0.0680  0.2862 -0.2520
17604W        W35808   9.743  12.805  13.981  0.3183 -0.0251 -0.2214
17605W        W35809   7.600   3.470   5.613  0.0610 -0.0737  0.0913
17606W        W35810  10.255  15.361   2.712 -0.1416  0.0369 -0.0706
17607W        W35811  10.399   3.215  14.822  0.0903  0.2211 -0.0519
17608W        W35812   7.577   8.126   1.027  0.1329 -0.1121  0.0730
17609W        W35813   3.362   4.998  15.638  0.0441  0.1228  0.0202
17610W        W35814   2.520   3.382  15.536  0.2128 -0.1304  0.0391
17611W        W35815  11.784   0.341  15.057 -0.2385  0.3008  0.0616
17612W        W35816   1.536   7.463  16.052  0.2047 -0.0954  0.0963
17613W        W35817   4.972   3.612   4.324  0.0364 -0.2554 -0.2027
17614W        W35818  13.451   3.625  14.869  0.2474  0.1339 -0.2573
17615W        W35819  15.664  12.542   4.309 -0.0819  0.2157  0.0720
17616W        W35820  13.111  10.769  16.408  0.0005  0.3739  0.5387
17617W        W35821   7.079   2.170   4.178 -0.0058  0.1865 -0.0090
17618W        W35822  10.048   2.127   4.518 -0.0303 -0.0826  0.0740
17619W        W35823   7.218   3.837  15.053  0.1932 -0.1237  0.0475
17620W        W35824  13.414   2.010   1.001  0.2149 -0.0690  0.0192
17621W        W35825  16.459   0.145   1.185  0.1366  0.1120  0.2216
17622W        W35826  13.900   7.038  14.634  0.0997  0.0521  0.2314
17623W        W35827   2.543   7.287   1.969 -0.0625 -0.7334 -0.0013
17624W        W35828   0.796  13.371   1.232 -0.0243  0.2606  0.2742
17625W        W35829  11.208   6.983  15.764 -0.1440  0.0945  0.0561
17626W        W35830  15.460  13.786  16.033 -0.1335  0.1917 -0.0344
17627W        W35831  17.429   9.295  12.594  0.1210  0.1590 -0.1637
17628W        W35832   2.166   3.106  14.111  0.1626 -0.2008  0.3064
17629W        W35833   3.511   3.562   1.326 -0.1440 -0.0344 -0.1418
17630W        W35834   8.760  13.231   4.001 -0.0534 -0.0853 -0.0690
17631W        W35835  16.613  13.117   1.098 -0.0787 -0.1460  0.0291
17632W        W35836   0.444  15.021  12.297 -0.1167  0.3491 -0.0797
17633W        W35837   2.490  14.964   5.024 -0.2998  0.0099  0.0033
17634W        W35838   7.670  13.632   0.849  0.0971 -0.1866 -0.1361
17635W        W35839   5.743   8.080   0.366  0.0824 -0.1006 -0.0723
17636W        W35840  16.041  15.125   1.445 -0.0937  0.0352 -0.0289
17637W        W35841   7.665  12.619   1.672 -0.0171 -0.0977 -0.1467
17638W        W35842  14.647  15.182   5.040  0.0326  0.1261 -0.0456
17639W        W35843  15.171   3.001   4.865 -0.0013  0.0866 -0.1028
17640W        W35844   0.422   1.480  12.640  0.0285  0.1103  0.1979
17641W        W35845  15.919   6.120   2.638  0.0072 -0.0435 -0.1270
17642W        W35846  16.445   2.612   5.086  0.2546  0.2303  0.0175
17643W        W35847   4.451   8.041  16.128  0.1829  0.0649  0.1648
17644W        W35848  11.701   5.506  15.670 -0.0704  0.0786  0.0046
17645W        W35849  10.578  14.032   0.542 -0.0635 -0.0503  0.0782
17646W        W35850  10.804   0.721   0.324  0.3213 -0.2393  0.1183
17647W        W35851   9.449  17.514  14.670  0.0814 -0.0673 -0.1439
17648W        W35852   4.336   1.084  16.703  0.0621 -0.2192 -0.0058
17649W        W35853  10.423   8.804   4.209  0.2841 -0.0109 -0.1697
17650W        W35854   1.417  15.284  12.460  0.0549  0.1437  0.0815
17651W        W35855  14.508  15.938   2.871 -0.2158 -0.1474 -0.0664
17652W        W35856  14.054  15.154   5.624  0.0130  0.0391 -0.1911
17653W        W35857   7.663  13.024  14.535 -0.2771 -0.2780  0.0913
17654W        W35858  15.002  11.282  11.511 -0.0590  0.0099 -0.0745
17655W        W35859   3.018   3.265  15.657 -0.1432  0.1063  0.0211
17656W        W35860  14.355  11.772   0.374  0.1845 -0.0648 -0.0233
17657W        W35861   6.927   4.419   1.338  0.1083 -0.1199 -0.1941
17658W        W35862  15.401  17.140   2.410  0.1488  0.2837 -0.2259
17659W        W35863   5.843  10.370  15.489 -0.0246 -0.0536 -0.0341
17660W        W35864  11.783  17.243  13.148 -0.0525 -0.1785 -0.4157
17661W        W35865   2.875   8.540  13.386  0.0157 -0.2602  0.0358
17662W        W35866  14.507  15.586  13.099  0.4426  0.1435 -0.0065
17663W        W35867   5.159   1.770   3.503 -0.3157  0.0834  0.3020
17664W        W35868   0.633   4.054  16.120  0.1134 -0.2624 -0.2169
17665W        W35869   5.562   8.450   2.249  0.0067  0.0208  0.3277
17666W        W35870   1.280  15.762   1.542  0.3678 -0.0278 -0.1270
17667W        W35871   2.332   5.817  12.395 -0.0484 -0.2006 -0.0499
17668W        W35872   7.833   0.374  15.378 -0.5272  0.3496  0.4088
17669W        W35873   0.632  12.547  13.703  0.1278  0.2723  0.1903
17670W        W35874   2.082   3.523  11.887  0.0920 -0.0881  0.0777
17671W        W35875   4.268   5.079  16.283  0.2627  0.1614 -0.1987
17672W        W35876   3.748  17.310   2.612  0.2520  0.0388 -0.2508
17673W        W35877   7.487   9.597   2.587  0.2723 -0.2123  0.1136
17674W        W35878  10.580  16.760  13.236  0.0455 -0.0690  0.0747
17675W        W35879   6.726   7.814  12.951  0.0154  0.1744  0.2233
17676W        W35880   8.636  11.631   3.434 -0.3302 -0.0954  0.3216
17677W        W35881   0.908   1.289  12.831  0.0191 -0.1043 -0.1219
17678W        W35882   1.975   7.447  11.671 -0.0938 -0.0075 -0.3253
17679W        W35883   9.085  15.517   1.431 -0.2244  0.2377  0.1007
17680W        W35884  15.046   6.713  13.032 -0.1361  0.2897  0.1331
17681W        W35885   5.417  11.197  16.274 -0.1202 -0.2727 -0.1001
17682W        W35886  13.020  14.065   0.029  0.2226  0.1124 -0.1284
17683W        W35887  14.295  10.096  12.285  0.0010  0.3540 -0.1784
17684W        W35888  13.994   1.199  13.343  0.1310 -0.0336 -0.2048
17685W        W35889  16.204   2.043  15.141 -0.1934 -0.3375 -0.0774
17686W        W35890   8.401   6.850  14.379  0.2053  0.1896 -0.1798
17687W        W35891   4.497  15.881   0.709 -0.0702 -0.1639 -0.1121
17688W        W35892   0.979  15.245   4.254 -0.6633 -0.0663  0.1888
17689W        W35893  11.237  11.107  16.273  0.2806 -0.3071 -0.2122
17690W        W35894  12.983   6.104  12.422 -0.1173  0.0712 -0.1411
17691W        W35895   8.268  16.504   4.580  0.0075 -0.0017  0.0343
17692W        W35896  10.473  14.045   4.455  0.1346  0.1007  0.0447
17693W        W35897  14.842  10.998   0.164  0.0657  0.0114 -0.3400
17694W        W35898   6.983  14.208  12.772  0.2399 -0.0841  0.0288
17695W        W35899   1.078   5.211   4.325  0.0176  0.1332  0.1698
17696W        W35900  12.288  15.388  16.098  0.0632 -0.0569 -0.1681
17697W        W35901   5.017   8.222   0.609 -0.4652  0.2074 -0.3954
17698W        W35902  11.329   2.011   0.998 -0.0513 -0.0671 -0.0914
17699W        W35903  11.238   4.487  14.744 -0.0180  0.1418 -0.0288
17700W        W35904   0.511  15.653   2.757 -0.2307  0.0396  0.1866
17701W        W35905   7.511  15.078  13.114 -0.1230 -0.1600 -0.1979
17702W        W35906   5.288   3.117   1.342 -0.5182 -0.0987 -0.1712
17703W        W35907  16.866   5.732  15.497  0.1243 -0.4726  0.0031
17704W        W35908   5.603   7.485  12.086 -0.2451  0.1867 -0.2609
17705W        W35909  15.110   8.546  13.413  0.0845  0.0458  0.0486
17706W        W35910   0.112  13.745   2.477 -0.0865 -0.0284 -0.0284
17707W        W35911   4.270   4.775  12.922  0.1373 -0.1876  0.0970
17708W        W35912  16.798  11.924  15.485  0.1807  0.1278 -0.1675
17709W        W35913   3.081  14.882  12.682  0.0804  0.1790  0.1064
17710W        W35914  14.018   8.792  13.173  0.0210  0.0720  0.0895
17711W        W35915   3.381  17.047   5.175 -0.0350 -0.2656  0.1515
17712W        W35916   6.945   1.861   3.090 -0.0245  0.0777  0.1447
17713W        W35917   8.959  10.353   4.035  0.1878 -0.2555 -0.1812
17714W        W35918   7.918  16.653   2.950  0.2428  0.2224 -0.1806
17715W        W35919   8.302  12.260  13.470 -0.3177  0.2429 -0.0266
17716W        W35920   3.085   1.038  13.322 -0.2535 -0.0455 -0.1135
17717W        W35921   3.628   1.952  12.871 -0.1820  0.0867  0.0539
17718W        W35922   9.584   6.456  12.783 -0.0468 -0.0080  0.1488
17719W        W35923   3.716   3.760  14.697  0.0801  0.4090 -0.0521
17720W        W35924  13.258   9.055  13.035 -0.2408 -0.1309  0.3437
17721W        W35925  15.492   2.831   3.575 -0.0979 -0.3103  0.0501
17722W        W35926   1.381   0.674   4.633  0.0831 -0.1089  0.0238
17723W        W35927  10.897  16.514   6.311 -0.3959 -0.0270  0.1969
17724W        W35928   5.594  14.233  15.027 -0.1080 -0.0366  0.2877
17725W        W35929   4.667  15.339   3.973  0.2192 -0.0063  0.1825
17726W        W35930  16.304  15.584   4.782  0.1614 -0.2329  0.2443
17727W        W35931  13.950   2.916   1.228 -0.0468  0.0920 -0.0762
17728W        W35932   4.850  11.710   2.114  0.0560  0.2286 -0.2070
17729W        W35933  15.829  15.058   0.528  0.0446 -0.2104  0.2784
17730W        W35934   3.699  12.009   2.610  0.2585  0.1238 -0.0623
17731W        W35935  16.071   3.315  17.063  0.3143  0.2120  0.3747
17732W        W35936  12.973  12.287  12.814  0.1507 -0.0487 -0.0921
17733W        W35937  15.809  10.856   4.844 -0.0787  0.2441  0.0735
17734W        W35938   5.808   6.749   2.077  0.1267 -0.0304 -0.0382
17735W        W35939  10.935   5.543  15.021 -0.0017 -0.0864 -0.1948
17736W        W35940   2.387   9.126   1.531  0.1704  0.1979  0.1143
17737W        W35941   8.419   9.391   3.332 -0.0468  0.5199 -0.0372
17738W        W35942  15.766   4.291  14.951 -0.2240  0.0776  0.1660
17739W        W35943  13.160   7.939   4.718 -0.2207  0.3292 -0.0859
17740W        W35944  13.571   0.439   0.993  0.1952  0.3642 -0.3434
17741W        W35945   0.417   3.610  17.266  0.0029 -0.0143  0.2573
17742W        W35946   7.495   8.202   1.668 -0.1879 -0.1672  0.1204
17743W        W35947   6.969   8.828   0.206 -0.0856 -0.3693 -0.2510
17744W        W35948   4.116  17.353   2.199 -0.0968  0.0062 -0.2750
17745W        W35949   6.384   3.156  12.433  0.0630 -0.0717 -0.2851
17746W        W35950   6.602   1.868   2.038 -0.3148 -0.0474  0.0600
17747W        W35951  14.320   1.579   4.790 -0.3064  0.0657 -0.2805
17748W        W35952  10.880  11.036  13.256  0.1970  0.1288 -0.2227
17749W        W35953   0.297   8.072  13.527 -0.0001  0.2256  0.0672
17750W        W35954   3.205  12.396  15.914  0.2057  0.1473  0.0943
17751W        W35955  15.340  12.997   1.074  0.2114 -0.1644  0.2061
17752W        W35956   4.856  11.381   2.931  0.0358  0.0969  0.0445
17753W        W35957   3.382   3.775  12.966  0.1083 -0.0349  0.1092
17754W        W35958  15.670   2.507   2.827  0.0813 -0.0799 -0.4565
17755W        W35959   3.323   5.310  16.070 -0.1033  0.1032  0.1253
17756W        W35960   4.017  16.545   0.207  0.0692  0.3354 -0.1025
17757W        W35961   1.533   4.340   0.710  0.2556  0.0833  0.0566
17758W        W35962  11.593   9.078  14.161 -0.0555 -0.2376  0.0423
17759W        W35963   6.354  10.559  11.778 -0.0540  0.3430 -0.2890
17760W        W35964   4.412  17.206   0.698  0.0383  0.2611  0.1285
17761W        W35965  11.124   3.697  17.047  0.0582  0.1804  0.1633
17762W        W35966  14.903   7.853   3.614  0.3448 -0.1116  0.3239
17763W        W35967  11.065   5.781  15.488 -0.0738 -0.0247  0.4528
17764W        W35968   4.083   8.263   3.920 -0.0722  0.3455  0.0899
17765W        W35969   3.455   2.485   1.221 -0.4808  0.0647  0.3102
17766W        W35970   4.344  15.201   4.580 -0.3360 -0.1412 -0.0663
17767W        W35971  14.666   5.530   4.806 -0.0862  0.3737  0.2252
17768W        W35972   6.127  10.691  16.762 -0.1142 -0.3648 -0.0581
17769W        W35973  11.313   4.401  16.474  0.0957 -0.2394  0.0826
17770W        W35974  11.840  11.708   4.546  0.4772 -0.2062  0.1524
17771W        W35975   2.737  13.600  13.581  0.0410 -0.2721  0.0317
17772W        W35976  15.932  11.855   1.735  0.0985 -0.5287  0.3421
17773W        W35977   4.684   3.175   4.625 -0.1033 -0.0656 -0.0425
17774W        W35978  15.810  11.037  11.526 -0.1635 -0.0174 -0.1339
17775W        W35979   3.728  10.202   0.981  0.3389 -0.4228 -0.0827
17776W        W35980   7.674   1.084   4.605  0.0804 -0.1347  0.0204
17777W        W35981   0.811   3.853  15.670  0.3046  0.1657 -0.0222
17778W        W35982   2.586   1.989  12.191 -0.0547 -0.3622  0.0236
17779W        W35983   8.220   5.731   0.153  0.1311 -0.1301 -0.0178
17780W        W35984  14.942   8.581  12.871 -0.1533  0.0099 -0.1926
17781W        W35985   7.603   6.838  13.858  0.1925  0.0194  0.2189
17782W        W35986   2.473   0.050   0.262 -0.0308  0.0802 -0.3996
17783W        W35987   0.493   6.622  15.822 -0.0494 -0.1153 -0.0748
17784W        W35988   0.461  12.459  16.026 -0.1087  0.0870  0.1898
17785W        W35989   1.905  17.321   2.016  0.2347 -0.1534  0.0293
17786W        W35990   3.804  10.957  15.139 -0.0346  0.0857  0.2778
17787W        W35991  16.912  10.706  14.092 -0.0479 -0.0074  0.0520
17788W        W35992   8.895  10.207  14.989 -0.2572 -0.1360 -0.1694
17789W        W35993  16.639   2.998   0.299 -0.3345  0.0340 -0.1956
17790W        W35994  10.344   5.973  12.759  0.0714 -0.3606  0.2820
17791W        W35995   4.232   5.896  14.541  0.0489  0.2596  0.1955
17792W        W35996   8.844   4.461   3.429 -0.0130  0.0130 -0.2362
17793W        W35997   9.147   1.601   0.463  0.1476  0.1957  0.0951
17794W        W35998  13.571   6.591   2.255 -0.0406  0.0597  0.0632
17795W        W35999  11.550   2.663   3.360  0.2034 -0.0440  0.0481
17796W        W36000  15.440   7.781  14.297  0.1169  0.0173 -0.1015
17797W        W36001   9.050   7.760   1.478  0.2264 -0.0786  0.0085
17798W        W36002   9.913  16.128   5.068  0.0022  0.1562  0.1413
17799W        W36003  10.047   8.729  14.948 -0.0106 -0.1556  0.0621
17800W        W36004   5.881  13.539  12.359 -0.0396  0.1485 -0.1693
17801W        W36005  17.153   5.477   0.321  0.0274 -0.1365  0.1758
17802W        W36006   4.337   6.749  14.321  0.1127  0.3138 -0.0773
17803W        W36007  15.082   5.916  13.599  0.1895  0.0304  0.2287
17804W        W36008   2.045   3.728   0.674 -0.2481  0.2193  0.0671
17805W        W36009  14.941  14.201   0.515  0.3899  0.2091 -0.0823
17806W        W36010   0.297   3.366  13.198 -0.0163  0.0612  0.0501
17807W        W36011  15.004   5.700   5.841  0.0986 -0.0533 -0.0717
17808W        W36012  13.690   1.017   5.850  0.3282  0.1555 -0.0224
17809W        W36013  12.629   6.918  16.167  0.0252  0.0230 -0.0842
17810W        W36014   8.352   3.831  12.666 -0.2189 -0.3272  0.4095
17811W        W36015   0.580   1.313   3.131 -0.0243 -0.0365  0.0980
17812W        W36016  12.663  16.230   4.734 -0.4050  0.0874 -0.0866
17813W        W36017   5.953   7.551   1.517  0.0677  0.1879 -0.0628
17814W        W36018  16.179   3.731  16.109 -0.0545 -0.1220 -0.0153
17815W        W36019  10.844   2.850  13.490  0.1704 -0.2051  0.0642
17816W        W36020   9.911   9.550   2.768  0.0736  0.1541  0.1301
17817W        W36021  11.684   3.799   5.190 -0.3561 -0.4101 -0.1751
17818W        W36022   8.728   3.283   4.840 -0.2397 -0.0307  0.1816
17819W        W36023   6.034   8.939  12.789 -0.3617  0.4312  0.0808
17820W        W36024   0.840   4.268   4.360 -0.1302  0.0528 -0.0692
17821W        W36025  17.441  11.659  17.120  0.1004  0.0799 -0.1152
17822W        W36026  14.986  11.992   3.323 -0.0177 -0.0324  0.1524
17823W        W36027  10.317   2.698   0.731 -0.1929  0.1567 -0.0573
17824W        W36028  16.364  10.223  15.218 -0.0311 -0.1488 -0.0248
17825W        W36029   6.095  12.428   3.764  0.3758 -0.1167  0.1060
17826W        W36030  12.051   0.650   4.790  0.1308  0.2013 -0.0347
17827W        W36031  14.886   5.160   2.515 -0.2148  0.0162  0.1139
17828W        W36032   7.506  16.799  12.412  0.2248 -0.0653 -0.1129
17829W        W36033  14.057   0.551   2.344  0.1210 -0.2431  0.1024
17830W        W36034  15.674  13.222   2.866  0.2542  0.0038  0.0275
17831W        W36035   8.144   1.349  16.133 -0.0239  0.1128 -0.3389
17832W        W36036   5.091   1.944   1.330  0.3077  0.0356 -0.0913
17833W        W36037  10.128  16.881   3.922 -0.1204 -0.1515 -0.1169
17834W        W36038  16.638   7.823   3.026 -0.0981  0.2877 -0.2422
17835W        W36039   0.326   0.560   2.756  0.1781  0.1353  0.2763
17836W        W36040   3.083   1.756   2.975  0.0127  0.4888 -0.1441
17837W        W36041  12.897  11.693  15.984  0.0526 -0.0111 -0.0407
17838W        W36042   8.217  10.179   1.401 -0.1560  0.0094 -0.1729
17839W        W36043   6.455   0.582   2.983  0.1558 -0.1704 -0.0300
17840W        W36044   2.482  15.511  15.881 -0.0729  0.1796  0.1510
17841W        W36045   9.639   6.833  16.930  0.4444 -0.0266  0.3431
17842W        W36046  17.313   9.734  14.850 -0.0593 -0.0277 -0.0795
17843W        W36047   5.512   2.839   2.423 -0.0325  0.1933  0.1068
17844W        W36048  15.150   9.697  12.237 -0.1551  0.3807  0.1671
17845W        W36049   1.890   6.405   3.992 -0.1212  0.1791  0.0946
17846W        W36050   6.104   0.236  12.711 -0.0081  0.1231  0.0263
17847W        W36051   3.054   9.312  15.109  0.3090  0.0251  0.2393
17848W        W36052  17.251  13.377   0.438 -0.3222 -0.0514  0.1856
17849W        W36053   4.311   5.249  13.012 -0.0872  0.0350 -0.3398
17850W        W36054  12.849  11.180  12.286 -0.2352 -0.0164 -0.1767
17851W        W36055  13.535   2.534   4.304  0.0839 -0.2120 -0.2775
17852W        W36056   7.500   1.983  14.608  0.2006 -0.0113  0.3302
17853W        W36057  17.446   0.380   2.595 -0.2088  0.1101 -0.1118
17854W        W36058   1.217  17.386   3.873 -0.3011 -0.1036 -0.0982
17855W        W36059   0.685   6.378   5.102 -0.0903 -0.0666  0.0207
17856W        W36060   9.945   9.879   4.461  0.1185  0.0887 -0.1107
17857W        W36061   2.713  11.390   1.245  0.1087 -0.0459 -0.0914
17858W        W36062  13.325   0.584  12.800  0.0515 -0.1311  0.2417
17859W        W36063   1.500  16.985  16.974 -0.2399 -0.1833 -0.0676
17860W        W36064   4.834   6.310   1.523 -0.0237 -0.3465  0.0946
17861W        W36065   1.484   5.627  12.559 -0.1520 -0.1407 -0.2720
17862W        W36066  15.910   0.591  16.300 -0.1239 -0.1226 -0.0832
17863W        W36067   0.379   3.560   4.494 -0.1247 -0.1723 -0.1106
17864W        W36068  14.479   3.638   4.930  0.0892 -0.0533 -0.1294
17865W        W36069   4.805   8.497  15.765  0.0139  0.0037  0.0108
17866W        W36070   6.161  14.386  15.611  0.1848 -0.2312 -0.4212
17867W        W36071   7.324   1.833  15.056 -0.2366 -0.1930 -0.0849
17868W        W36072   4.267   1.572  13.347 -0.1552  0.3156 -0.0385
17869W        W36073   2.124   7.812  17.034 -0.0415 -0.0144  0.1975
17870W        W36074  15.012  14.115  12.986 -0.0715  0.1934 -0.1843
17871W        W36075   2.561   0.271  17.159  0.0056 -0.0644 -0.1223
17872W        W36076   9.143  17.272   0.247 -0.0302  0.0176  0.3094
17873W        W36077   4.080   5.608  12.741  0.0789  0.0472 -0.0844
17874W        W36078  13.621  11.825  14.663  0.2725  0.1202  0.0688
17875W        W36079  15.115   0.686  16.706  0.1765  0.1873  0.1602
17876W        W36080  14.446   5.487   3.353  0.0563 -0.1706  0.0181
17877W        W36081   2.060   0.868   1.350 -0.0699 -0.0506  0.1184
17878W        W36082  11.414  12.768   7.028  0.1067  0.1754 -0.0613
17879W        W36083  16.995  17.260  16.945  0.4545 -0.0855 -0.1109
17880W        W36084   0.240  16.808  12.498 -0.0110  0.2349 -0.1101
17881W        W36085  13.013  17.336  15.658 -0.2861 -0.1210  0.0442
17882W        W36086  16.602   0.605   2.076 -0.4359 -0.1107  0.2318
17883W        W36087  16.399  15.463   4.240  0.1739  0.0702  0.1014
17884W        W36088   6.487   7.017   4.388  0.3893  0.0181  0.3500
17885W        W36089   6.146  13.361   0.148  0.0342 -0.0607  0.0924
17886W        W36090   7.982   4.725  13.286 -0.0009  0.2334  0.1160
17887W        W36091   6.000   1.084  15.217 -0.0504  0.1140 -0.0457
17888W        W36092   6.609   3.428   1.554  0.2867 -0.1103 -0.1458
17889W        W36093  12.240  14.713   4.407 -0.0114 -0.0043  0.3754
17890W        W36094   0.330  12.097   5.245 -0.1495 -0.0662 -0.0398
17891W        W36095   0.618  12.699  17.107  0.1369  0.1728  0.0647
17892W        W36096   2.678   8.553   0.632 -0.2863  0.1306  0.2519
17893W        W36097   0.495   4.696   4.378  0.2075 -0.0482  0.0022
17894W        W36098   6.049   9.787   1.007 -0.3184  0.0602 -0.1528
17895W        W36099  10.742  17.402  14.426 -0.3504  0.3898  0.1087
17896W        W36100  14.229  13.312  16.466 -0.0647  0.1107  0.2115
17897W        W36101   6.997   4.820   1.692  0.0796  0.1492  0.2348
17898W        W36102  10.755   2.066   3.009  0.0895  0.0166 -0.1197
17899W        W36103  16.263  17.455   2.993  0.0761 -0.0553 -0.0575
17900W        W36104  13.325   3.503  16.889  0.1588  0.0786 -0.2802
17901W        W36105   2.911  13.137   3.249  0.1852  0.0289 -0.0663
17902W        W36106   6.007   5.842   4.634 -0.1175  0.1493  0.0717
17903W        W36107   7.701   6.608  11.919 -0.0543 -0.0587  0.0121
17904W        W36108   1.381  12.108  15.767 -0.0917  0.1103  0.1030
17905W        W36109   0.416   1.319   0.335  0.4598  0.2267 -0.2622
17906W        W36110   2.631  11.835   2.120 -0.0093  0.0720 -0.2213
17907W        W36111   6.737  12.816  14.177  0.1898 -0.3727 -0.2668
17908W        W36112  16.986   0.072   2.397 -0.0067  0.0618 -0.0813
17909W        W36113   8.026  13.761   5.070  0.1071 -0.0849 -0.0761
17910W        W36114   4.513  11.935  12.634  0.1693  0.1566  0.1069
17911W        W36115   3.430  14.318   6.540  0.0132 -0.1062 -0.2715
17912W        W36116  16.956  14.685   2.150 -0.0928  0.0104 -0.1546
17913W        W36117   9.961   9.232  14.927 -0.2662 -0.2028 -0.2987
17914W        W36118  10.336  10.843   1.644 -0.0785  0.5425 -0.1166
17915W        W36119   6.290  10.456  12.820  0.0414 -0.0894 -0.0679
17916W        W36120   1.624   1.415  15.536 -0.1482  0.0642 -0.2317
17917W        W36121   9.166   5.926   3.115 -0.2896  0.3723  0.0024
17918W        W36122   6.358  16.441  16.196 -0.1083  0.0244  0.0980
17919W        W36123   1.550   2.840   0.948  0.0612 -0.0620  0.2828
17920W        W36124   8.267   5.972  12.968  0.0919  0.0731  0.2009
17921W        W36125   2.540   3.494  14.100  0.1650  0.1383  0.0802
17922W        W36126   7.940  11.562   3.522 -0.1487 -0.2362  0.0517
17923W        W36127   6.075   9.041   0.153  0.2086 -0.1121 -0.0256
17924W        W36128  11.246   7.035  12.513  0.1397  0.1466  0.1345
17925W        W36129  17.259   4.006   4.932 -0.0297 -0.3912 -0.2539
17926W        W36130  14.400   0.621   1.397  0.0854  0.1632  0.0931
17927W        W36131   4.717   8.659   0.426 -0.0328  0.1821 -0.2613
17928W        W36132  17.252  12.484   4.666  0.1346 -0.2496 -0.1735
17929W        W36133  11.904   1.522   0.144 -0.0276 -0.3515  0.2246
17930W        W36134   2.401  17.048   4.937  0.2380 -0.0726  0.0922
17931W        W36135   0.627  12.571   1.649  0.0164 -0.1717 -0.0522
17932W        W36136   2.135  12.812   4.127 -0.0082 -0.0032 -0.1605
17933W        W36137  15.314  13.047  13.752  0.0045 -0.1459  0.0104
17934W        W36138  12.694   5.035   1.563  0.1688  0.3488  0.0467
17935W        W36139  15.419   7.788   3.522  0.4651  0.0071  0.0939
17936W        W36140   9.268  11.473   2.091 -0.2094  0.2419  0.0148
17937W        W36141   1.337  11.277   2.327 -0.1974 -0.0892 -0.3252
17938W        W36142   0.263   0.014   1.298  0.0995 -0.0812 -0.2349
17939W        W36143   0.145   2.716  16.360 -0.1441  0.0446 -0.0059
17940W        W36144   7.953  11.658   4.994 -0.0504  0.0384  0.1267
17941W        W36145   2.843  13.458  17.033 -0.1814  0.1570  0.0161
17942W        W36146   7.412  13.968   1.309 -0.2755  0.0786 -0.0521
17943W        W36147   3.392   8.559  17.141  0.0506 -0.4634 -0.1025
17944W        W36148   5.612   3.293   2.084 -0.0643 -0.1244  0.1966
17945W        W36149   9.431   0.844  13.168  0.1650  0.0473 -0.1837
17946W        W36150  15.724   0.044   0.822  0.2571 -0.0516  0.0096
17947W        W36151   3.666  16.927  16.494 -0.0005  0.0470 -0.2003
17948W        W36152   1.630  12.535  13.911 -0.2438 -0.2022  0.0778
17949W        W36153   0.104   4.752  14.883  0.0482  0.0700 -0.1845
17950W        W36154  12.651  16.830  15.288 -0.0841  0.2716  0.0447
17951W        W36155   2.188  12.029  17.174 -0.0345 -0.0160 -0.2291
17952W        W36156   3.505   9.875  12.135  0.1870 -0.0406 -0.1662
17953W        W36157   6.628   4.670  14.018  0.0422 -0.1670 -0.1141
17954W        W36158  13.978  10.813   0.854 -0.0641 -0.0839 -0.0596
17955W        W36159   8.356  11.982  14.890 -0.4189 -0.1282 -0.0250
17956W        W36160  11.122   6.777  12.952 -0.2121 -0.0125  0.0322
17957W        W36161  17.418  14.967   2.994  0.0454 -0.4459 -0.2323
17958W        W36162   6.336   1.106  15.671  0.0308 -0.2550 -0.1488
17959W        W36163   3.955  13.843  14.867  0.1269  0.1074 -0.0654
17960W        W36164   2.163   3.725   4.103 -0.2371 -0.3207 -0.0415
17961W        W36165  16.858   5.227   4.924 -0.1801  0.4442  0.1087
17962W        W36166  13.099  16.579  16.666  0.0161 -0.0480 -0.2195
17963W        W36167  13.346   4.014  16.965  0.0227 -0.2019  0.2636
17964W        W36168  17.143   8.375   0.742  0.1417  0.5032  0.2662
17965W        W36169   8.520   8.772  16.498 -0.1382 -0.0864 -0.0710
17966W        W36170  16.380   6.025   5.157  0.1077  0.1316  0.3391
17967W        W36171  15.128   2.199  13.615  0.0607 -0.2766  0.2758
17968W        W36172  16.456  15.143   4.631  0.0325  0.1129 -0.3081
17969W        W36173   1.901   1.023   4.143  0.0759  0.1117 -0.2057
17970W        W36174  11.968   0.754  17.014  0.1393 -0.0737  0.0145
17971W        W36175   3.755   3.173   4.677  0.0000 -0.1659 -0.0713
17972W        W36176   7.228  13.660  11.424  0.0861  0.1198  0.1016
17973W        W36177   3.730   0.243   0.030  0.0435 -0.2099 -0.0314
17974W        W36178   2.290  11.566  12.822  0.2122 -0.0361  0.1053
17975W        W36179   3.132   0.140   3.054  0.0131  0.0129  0.0526
17976W        W36180  13.615   7.632  16.334 -0.0629 -0.2398  0.1150
17977W        W36181   5.747   1.593   3.883  0.3362 -0.0621 -0.2337
17978W        W36182  17.066  13.905  13.725  0.2879 -0.3124 -0.2610
17979W        W36183   2.422  11.240   3.811 -0.2359  0.2405  0.1163
17980W        W36184   2.821   3.116  12.627  0.0470  0.2541  0.1153
17981W        W36185  11.532   0.075  13.506  0.1705  0.1423 -0.1894
17982W        W36186   2.060  11.982  12.674 -0.3965 -0.1872 -0.0812
17983W        W36187  17.545   7.928   3.580 -0.1020 -0.2733 -0.1649
17984W        W36188  16.963   0.758  12.791  0.3541  0.1573  0.3277
17985W        W36189   5.517  13.886  13.482  0.0216 -0.0693  0.2165
17986W        W36190   9.162   5.320   2.879 -0.2745 -0.0574  0.0556
17987W        W36191   5.467   2.924   4.831 -0.0803 -0.2017  0.0639
17988W        W36192   2.795   7.057   3.096  0.0463  0.0689  0.0272
17989W        W36193   6.272  10.703  14.308 -0.0228  0.1049  0.3771
17990W        W36194  14.418   3.194  14.685  0.1439 -0.0598 -0.2128
17991W        W36195   6.909  11.403  13.020 -0.0096 -0.1240 -0.0628
17992W        W36196   8.087   7.459   5.444  0.1235 -0.1454 -0.1317
17993W        W36197   4.138   3.688   5.115 -0.1145  0.0300  0.1619
17994W        W36198   1.636   8.947  11.556  0.1070 -0.1539 -0.0259
17995W        W36199   5.241  17.328  16.958  0.2154 -0.0223  0.2262
17996W        W36200   8.978   2.164   2.696 -0.0170 -0.2055 -0.1301
17997W        W36201  15.673  15.570  15.624 -0.1751  0.2086  0.1564
17998W        W36202   1.831  12.075  16.011 -0.3604  0.0100 -0.0806
17999W        W36203   3.869   0.116  12.743  0.3952 -0.1559 -0.0681
18000W        W36204   8.592  13.620   1.689  0.1057  0.0433 -0.2503
18001W        W36205   8.705   5.329  16.934 -0.2102  0.5551  0.2286
18002W        W36206   1.514   3.573   2.754  0.0221  0.0593 -0.6098
18003W        W36207  13.525   1.743   2.936 -0.2717 -0.3889 -0.0616
18004W        W36208   6.877   9.182   5.308  0.0064 -0.2056  0.1784
18005W        W36209  12.777   0.262   1.285 -0.0679 -0.0801 -0.0337
18006W        W36210  15.712   0.758   1.152 -0.2954  0.1103  0.0307
18007W        W36211   6.292   0.360  16.304 -0.1731  0.0823 -0.1196
18008W        W36212  13.210   6.929   1.865 -0.0897 -0.1382 -0.0671
18009W        W36213  12.825   1.941   0.240 -0.0022 -0.5392 -0.1221
18010W        W36214  10.978  13.531  16.220  0.0042 -0.0400  0.0152
18011W        W36215   6.469   7.501   1.386  0.1475  0.0413 -0.1779
18012W        W36216   8.830  10.384   1.487  0.0052 -0.2160 -0.0020
18013W        W36217  10.284  12.379   3.893  0.1743 -0.2672 -0.1750
18014W        W36218  14.616   9.972   1.798 -0.1751  0.0228 -0.0227
18015W        W36219   5.072   2.018  16.991 -0.3521 -0.1962 -0.0059
18016W        W36220   9.624  11.874  12.144 -0.1134  0.0370 -0.0568
18017W        W36221  12.791   1.375   4.783 -0.1684 -0.1410 -0.0332
18018W        W36222   0.385   1.051   2.731  0.2334 -0.0043  0.1213
18019W        W36223  16.566  13.236  13.338  0.1720  0.2024  0.0028
18020W        W36224  14.944   6.325   1.025 -0.2238 -0.0529 -0.2549
18021W        W36225   8.497   7.851   1.683 -0.0664 -0.0408  0.2209
18022W        W36226  17.115  10.116   1.452  0.2018 -0.1999  0.1786
18023W        W36227  10.157   3.853   4.213 -0.1902 -0.0976  0.3255
18024W        W36228  16.605   3.458   3.166 -0.2917  0.0923  0.2570
18025W        W36229  17.251  11.619  15.604 -0.1471  0.1595  0.1782
18026W        W36230   3.189   5.474  15.486  0.2174  0.5066 -0.1986
18027W        W36231   0.607   1.255   5.022  0.1549 -0.3646  0.1873
18028W        W36232   5.281   6.158   1.612  0.1732  0.0975 -0.2458
18029W        W36233  13.702   1.150   1.094  0.3519  0.1010  0.1325
18030W        W36234   8.856  10.701  16.868 -0.1407  0.4466  0.0314
18031W        W36235  14.876  10.586  17.162  0.0160 -0.1337  0.2219
18032W        W36236   6.112   0.468  17.128  0.1652  0.3487 -0.0573
18033W        W36237   7.904   2.314  15.347 -0.0402  0.3429 -0.1807
18034W        W36238   8.474   7.368   1.516 -0.1004  0.0649 -0.1973
18035W        W36239  13.056  15.528   2.153  0.4278  0.1689  0.1082
18036W        W36240   5.230   4.375   1.073 -0.0981 -0.0027  0.2168
18037W        W36241  14.736   2.754   3.058 -0.1044 -0.4035  0.0396
18038W        W36242   0.747   3.882   3.925 -0.0799 -0.0661  0.0781
18039W        W36243  11.850   0.756   6.066 -0.0004  0.2073 -0.1714
18040W        W36244   7.363   4.608  13.347  0.2251 -0.0254 -0.0325
18041W        W36245  12.498   5.861   2.061  0.0994 -0.0764  0.0647
18042W        W36246  11.113  15.519   5.383  0.0962 -0.1933  0.0640
18043W        W36247   3.024  10.208  13.958 -0.1347 -0.2055 -0.0372
18044W        W36248   1.516  12.855  13.558  0.1497  0.3326  0.1120
18045W        W36249   3.707  14.410   0.171 -0.2370  0.1030 -0.1515
18046W        W36250  15.793  14.510  13.694 -0.2933 -0.0156  0.0467
18047W        W36251   6.239   0.501   0.418 -0.0703  0.3305 -0.2244
18048W        W36252  13.264  16.778  13.980  0.0712  0.0832  0.0151
18049W        W36253   5.290  12.032   5.519  0.1129  0.0221 -0.1418
18050W        W36254   9.494  12.431  17.228  0.0893  0.2223 -0.0149
18051W        W36255  12.670   9.439  13.935 -0.2368  0.1547  0.0939
18052W        W36256   1.154  11.688   3.255 -0.1845 -0.0359 -0.1785
18053W        W36257   5.380  17.336   1.909 -0.1673 -0.2264  0.0067
18054W        W36258  16.544   0.612   0.935 -0.2150 -0.2279  0.0443
18055W        W36259   5.519   1.238  13.471 -0.2136 -0.2322  0.0663
18056W        W36260  17.501  10.790  15.127  0.0870 -0.1201 -0.2802
18057W        W36261   6.230  17.211   2.303 -0.3038  0.0208 -0.0444
18058W        W36262   6.501  14.499  15.191 -0.1862  0.1285 -0.1673
18059W        W36263  12.276   3.930  12.962 -0.0148  0.2783 -0.0088
18060W        W36264   6.260  12.722   1.511 -0.3592  0.0513  0.1840
18061W        W36265  13.549  17.543   5.319  0.1869 -0.2308 -0.1016
18062W        W36266  14.144   3.420  14.306  0.0019  0.0996 -0.0305
18063W        W36267   1.724  15.913   4.327  0.2344 -0.0111  0.0579
18064W        W36268   3.705   7.731  15.360 -0.2328 -0.3351 -0.0658
18065W        W36269   4.306   9.430  13.370 -0.0535 -0.1959  0.0631
18066W        W36270  13.539  17.191   1.986  0.0055  0.1783 -0.1532
18067W        W36271   6.194  14.215   1.357 -0.1262  0.5102 -0.0051
18068W        W36272  14.553  12.873  14.399  0.0456  0.0089 -0.0946
18069W        W36273  16.255  15.994   2.585  0.0900 -0.0904 -0.4035
18070W        W36274  14.669   7.937  12.619 -0.1779 -0.1722 -0.0762
18071W        W36275  11.067   7.733   4.699  0.0613  0.1134  0.5249
18072W        W36276  13.260   1.071  12.900 -0.0164  0.1505 -0.0598
18073W        W36277  10.531   5.292   0.337  0.2384  0.1444 -0.1270
18074W        W36278   6.991  12.575   2.429 -0.2507 -0.2253  0.0566
18075W        W36279   1.650  14.600  15.547 -0.3145 -0.2121 -0.0169
18076W        W36280  16.078   1.230  11.775  0.0929 -0.2301 -0.3002
18077W        W36281   0.800  14.902  11.837 -0.0910 -0.0993  0.0017
18078W        W36282   5.304   0.262   2.943  0.2158  0.1268  0.0661
18079W        W36283   8.097  15.263  14.918 -0.0233 -0.0435  0.0387
18080W        W36284   6.242   4.420  14.294 -0.1407  0.1207  0.1921
18081W        W36285   3.387   7.428  12.483 -0.2586 -0.0790 -0.0758
18082W        W36286  16.137  13.689   3.305 -0.0463 -0.1153 -0.0809
18083W        W36287   7.238  16.317  14.967 -0.0658 -0.0656 -0.0389
18084W        W36288  12.456   3.013   2.597 -0.0152  0.0495 -0.0388
18085W        W36289   3.050  16.714   3.655 -0.0483 -0.1328  0.0573
18086W        W36290   0.312  10.066  16.278 -0.1232  0.1315 -0.1560
18087W        W36291  17.126  17.092   6.217  0.0799 -0.1158  0.0012
18088W        W36292   5.224   6.601   1.420  0.1251 -0.0793 -0.1662
18089W        W36293   8.340  14.548   2.238  0.2591  0.0269 -0.1293
18090W        W36294   3.962  15.510   2.273 -0.1482 -0.2441  0.0357
18091W        W36295   5.842   4.231  16.950  0.3738 -0.3094  0.2253
18092W        W36296  12.430  13.463  12.864 -0.1110  0.0948 -0.1730
18093W        W36297   5.295   2.753   1.712 -0.0697 -0.0590  0.2006
18094W        W36298  10.123   0.553   5.425 -0.1513 -0.0392 -0.1428
18095W        W36299   9.017  14.325  13.901  0.1153  0.3707  0.0673
18096W        W36300  13.110   1.099  13.449  0.2261 -0.1352 -0.0921
18097W        W36301   5.446   7.365  15.958  0.1529  0.0411 -0.2147
18098W        W36302   3.088   9.977   1.665  0.0691  0.5168  0.0919
18099W        W36303   4.518  16.263   1.771 -0.0785 -0.0626 -0.1561
18100W        W36304  13.620   4.486  13.122 -0.0767  0.0148 -0.3076
18101W        W36305  10.529   8.940  17.071 -0.0184  0.1902  0.4066
18102W        W36306   5.402   4.369  17.143  0.1848 -0.1284 -0.0291
18103W        W36307   9.925   6.183   4.599  0.3226 -0.2430  0.2966
18104W        W36308   5.834   1.559   1.192 -0.1599 -0.1903  0.2214
18105W        W36309   0.514  16.772   6.377  0.1449 -0.0483  0.2379
18106W        W36310  11.092   7.319  12.934  0.0246  0.1598  0.2298
18107W        W36311  14.865   6.744  17.046 -0.0750 -0.0104  0.1892
18108W        W36312   1.726  11.854   4.427  0.6815  0.3054  0.2201
18109W        W36313   4.293  16.837  13.313  0.0261 -0.2946  0.1087
18110W        W36314   4.590   1.116  13.282 -0.3202  0.2891  0.0357
18111W        W36315   2.379  10.286   4.268  0.1798 -0.1430  0.1855
18112W        W36316  13.893  15.465   2.296  0.0884  0.0907 -0.0782
18113W        W36317   5.024   4.062   2.932 -0.1645 -0.0165  0.0413
18114W        W36318   8.903   0.498   1.297 -0.0286 -0.3459 -0.1301
18115W        W36319  11.915   2.024   0.137  0.0773 -0.1506  0.2091
18116W        W36320   9.782   7.245  17.236 -0.0030 -0.0679  0.3716
18117W        W36321  10.047  13.543  16.697 -0.1996  0.1004 -0.0208
18118W        W36322  11.367   0.340  16.776  0.1962 -0.1930  0.3946
18119W        W36323   9.223   9.412   4.139 -0.0390 -0.1633  0.1231
18120W        W36324   5.713   5.680  12.171 -0.2449  0.3781  0.0944
18121W        W36325  12.579   1.901   2.497  0.2079 -0.4312 -0.5393
18122W        W36326  12.253   4.780  13.528 -0.0973  0.1864  0.1195
18123W        W36327   4.053  12.261   3.024 -0.1262  0.1896 -0.2534
18124W        W36328   5.379   8.485   0.203 -0.2631  0.1780 -0.2659
18125W        W36329   2.553  14.779  15.235  0.0852 -0.2649 -0.2305
18126W        W36330  16.551  11.027   2.664  0.3257 -0.0717 -0.1970
18127W        W36331  17.442   1.740   5.435 -0.1190 -0.1139 -0.2022
18128W        W36332   6.321  16.805  14.109 -0.1258 -0.0741  0.0500
18129W        W36333   8.438   2.497  12.927  0.1576  0.0841 -0.0322
18130W        W36334   0.841  14.679   1.055  0.1426 -0.0255  0.0891
18131W        W36335   9.176   1.152  15.628  0.0113  0.3158 -0.1569
18132W        W36336   2.441  17.306   4.496  0.0562 -0.0326  0.1884
18133W        W36337  15.289  12.450  15.358  0.0208  0.0591  0.0681
18134W        W36338  10.802  17.438   6.485 -0.0431  0.0445  0.0867
18135W        W36339   4.901   5.712   3.215 -0.1087  0.0878 -0.0060
18136W        W36340   9.840  14.139   5.199 -0.2900 -0.2106 -0.1672
18137W        W36341  17.100  12.341  11.758 -0.2529 -0.0525 -0.0401
18138W        W36342   0.049  10.927   0.029  0.0084 -0.1943 -0.0612
18139W        W36343   3.238  14.089   5.257  0.0139 -0.3839  0.1611
18140W        W36344   7.769  17.375  16.565 -0.1969  0.2745  0.1437
18141W        W36345   4.029   0.345  14.735 -0.1366  0.4711  0.2298
18142W        W36346   4.163  13.180   5.704 -0.2690 -0.1320 -0.3230
18143W        W36347  14.552   5.550   4.286  0.1260 -0.0945  0.2694
18144W        W36348  16.926   5.846  12.867 -0.1559  0.1440  0.0931
18145W        W36349  13.508   3.912   3.864 -0.0906 -0.1636 -0.1626
18146W        W36350  11.264   3.448   3.591  0.0610  0.0998 -0.2524
18147W        W36351  14.208   0.781  12.468 -0.0126  0.0726 -0.3507
18148W        W36352  16.072  11.463  15.069  0.2770 -0.0392  0.3152
18149W        W36353  15.527  12.520   5.082 -0.1679 -0.0704  0.0846
18150W        W36354   4.431   6.486  14.779  0.1068  0.0638 -0.2777
18151W        W36355  13.710  13.172   0.264  0.1063 -0.3935 -0.2486
18152W        W36356  16.851   2.370  12.494  0.2611 -0.0699 -0.4342
18153W        W36357  14.042  14.037  13.774  0.1268  0.3014  0.1052
18154W        W36358  13.187  11.277   0.402 -0.0410 -0.3568  0.0619
18155W        W36359   8.060  10.302  15.861 -0.3142  0.4213  0.1464
18156W        W36360   9.618  10.700   0.614 -0.1490  0.0347 -0.0564
18157W        W36361   6.079  15.013   3.685  0.0231  0.2837  0.0002
18158W        W36362  14.674   0.482   0.326 -0.1141 -0.2919 -0.5059
18159W        W36363  14.550  10.672  12.430 -0.1166 -0.1507  0.1101
18160W        W36364   7.635   6.815   1.403 -0.1080 -0.2877 -0.0173
18161W        W36365  10.027   1.187   4.460  0.3098  0.2236 -0.0820
18162W        W36366   9.823  15.693  11.691 -0.3047 -0.0177 -0.0450
18163W        W36367  12.680  12.611   0.706 -0.1000  0.0533 -0.0791
18164W        W36368  13.613  13.496   5.953 -0.1247 -0.3973  0.5066
18165W        W36369  13.812  10.441  13.643  0.4175  0.1671  0.1642
18166W        W36370   9.880   0.979  12.686 -0.0256  0.0390  0.2437
18167W        W36371  10.739  12.719   4.829 -0.1606 -0.0401  0.0514
18168W        W36372   0.467  16.094   2.037 -0.0447  0.2183 -0.4245
18169W        W36373  14.229  16.147   0.027 -0.2011  0.2428  0.3521
18170W        W36374  11.865  15.186  13.359 -0.0381 -0.0564 -0.0665
18171W        W36375  11.350   0.016   0.912 -0.1022 -0.1501 -0.0126
18172W        W36376   3.859   3.750  16.302 -0.1044  0.1240  0.1553
18173W        W36377  12.270  16.271   5.081  0.2303 -0.1403  0.1033
18174W        W36378   8.087  13.437  15.065 -0.1174 -0.0465 -0.2734
18175W        W36379   3.431   0.735  14.547  0.1658  0.1323  0.1054
18176W        W36380  11.263  11.642   3.207 -0.1008  0.0943 -0.3779
18177W        W36381   7.282   7.886   4.116  0.0424 -0.0598 -0.3963
18178W        W36382   6.769   3.716  13.372  0.0975 -0.1011 -0.0497
18179W        W36383   8.790  14.312  12.646  0.2508 -0.4159 -0.5589
18180W        W36384  17.331   1.932  11.272  0.2290 -0.0666 -0.0476
18181W        W36385  13.883   1.255  11.782 -0.1572 -0.1672 -0.1445
18182W        W36386   1.131  11.171  16.865 -0.1589 -0.4116 -0.0622
18183W        W36387  13.887  15.277   3.340  0.0568 -0.1171 -0.2246
18184W        W36388  10.890   6.433  14.586 -0.0849  0.0784  0.1327
18185W        W36389  12.818  11.477   0.684  0.0224 -0.0440 -0.1510
18186W        W36390  15.552   9.000   3.648  0.0141 -0.0228 -0.2306
18187W        W36391   4.221   4.910   1.569  0.0693 -0.2680  0.1935
18188W        W36392  11.234   0.164   1.365 -0.0794  0.0580  0.4474
18189W        W36393   7.121  10.228  14.824 -0.0179  0.1220  0.0708
18190W        W36394  15.961   6.791   1.112  0.4300 -0.1271  0.0026
18191W        W36395   4.016   1.215   3.818  0.2576 -0.1004  0.0630
18192W        W36396   4.862   8.794   4.703  0.0417 -0.0602  0.0909
18193W        W36397  10.112  16.666  12.371  0.1320 -0.0932  0.0390
18194W        W36398  14.421  12.622  13.468  0.1817  0.3982  0.1070
18195W        W36399  12.135   8.694  14.805  0.3650  0.1085  0.2787
18196W        W36400   6.009  13.698   1.481 -0.0634 -0.2115  0.0094
18197W        W36401  15.985   4.205   4.595  0.2161  0.0930 -0.3080
18198W        W36402   6.250   5.427  16.469 -0.4350  0.1516  0.0860
18199W        W36403   2.592   2.258   4.067 -0.3495 -0.0073 -0.1925
18200W        W36404   3.785   2.205  13.739 -0.2212  0.3247  0.0850
18201W        W36405  16.513   3.366   4.890 -0.1176 -0.2484  0.1077
18202W        W36406  15.534   6.065   0.452  0.1810 -0.2239 -0.0768
18203W        W36407  15.960   7.273   4.637  0.0254  0.0585  0.0620
18204W        W36408   0.085  15.455   5.160 -0.2096  0.1122  0.1786
18205W        W36409  10.768   4.031  17.134  0.1562 -0.0322 -0.0825
18206W        W36410  14.935  11.601   4.533 -0.1213 -0.1721  0.0599
18207W        W36411   2.872   9.077   1.798 -0.1122  0.2007 -0.3380
18208W        W36412   6.703   5.881  12.909  0.0021 -0.1592 -0.3649
18209W        W36413  15.147   9.795   5.396  0.0221  0.0943  0.1497
18210W        W36414   7.373  14.322  13.068  0.2798 -0.0189  0.3890
18211W        W36415   2.223  13.441  13.612 -0.0798 -0.0882 -0.0632
18212W        W36416  15.576  10.680   0.698  0.1529 -0.0427  0.2748
18213W        W36417  15.633  15.529  14.783 -0.0546 -0.2032  0.0188
18214W        W36418  11.824  17.080  16.126 -0.2135  0.2147  0.1504
18215W        W36419   8.844  10.110   0.418  0.2634 -0.1342  0.0172
18216W        W36420   9.221  10.722  16.289 -0.2019  0.0019 -0.1398
18217W        W36421  11.624  11.068  17.165  0.2144  0.0732 -0.5241
18218W        W36422   5.068   3.257  16.328 -0.1012 -0.3520  0.0021
18219W        W36423  10.485   5.700   4.048  0.2980 -0.1194 -0.0757
18220W        W36424  15.883   1.139  15.273  0.1433  0.1243 -0.1377
18221W        W36425   8.897  13.635   1.187  0.3238  0.1388  0.2036
18222W        W36426   3.553   0.811  12.579 -0.1073  0.2030  0.3668
18223W        W36427   3.769  15.726  13.712 -0.0317  0.1118 -0.2529
18224W        W36428  10.143   6.294  15.758  0.0553  0.7180  0.3371
18225W        W36429  16.222  15.168   2.227  0.2064  0.2745  0.5022
18226W        W36430   5.507  13.559   4.085  0.1784 -0.0436  0.0692
18227W        W36431  15.285   3.919  12.733 -0.0073  0.2437 -0.0059
18228W        W36432   7.947   0.674   4.549  0.0089 -0.2151  0.1315
18229W        W36433   9.127   2.553   1.506 -0.0157 -0.1972 -0.3451
18230W        W36434   9.104  10.014   1.295 -0.1830 -0.0153 -0.0515
18231W        W36435   9.179  16.329  14.859 -0.0456  0.0126  0.1438
18232W        W36436  13.271   1.031   0.070 -0.0831 -0.0179  0.1275
18233W        W36437   6.210   1.340   2.638  0.0709  0.1919  0.1261
18234W        W36438  10.503  13.404   5.442  0.1654 -0.0615  0.0491
18235W        W36439  16.526   6.164   4.109 -0.0374 -0.0540  0.1397
18236W        W36440   8.530   9.112  12.800  0.3107  0.2190  0.1598
18237W        W36441   0.638  15.083  13.786  0.0966  0.0061  0.3114
18238W        W36442  12.542  16.507  14.305  0.3754 -0.2092  0.0677
18239W        W36443   2.505   0.675  16.943  0.1097  0.1019  0.1026
18240W        W36444  17.531   1.373  16.883  0.2336  0.1150  0.0102
18241W        W36445  11.607   9.180   1.322 -0.1232  0.0876 -0.1621
18242W        W36446  11.955   6.355   3.804  0.1223  0.0286 -0.2994
18243W        W36447   2.676  15.387   4.797  0.1497 -0.2577  0.0710
18244W        W36448  13.926   9.809  12.085 -0.0319 -0.3085  0.1132
18245W        W36449   4.545  12.569  13.305  0.0323 -0.0588 -0.3688
18246W        W36450   6.649  11.047   0.150 -0.0118 -0.0144  0.0706
18247W        W36451   1.326   4.745   2.865 -0.2311 -0.2429 -0.1675
18248W        W36452   0.616   0.938  14.442  0.0613 -0.0588 -0.2388
18249W        W36453   4.396   1.289  15.250 -0.0030  0.2242  0.1391
18250W        W36454  11.079  11.451   4.678  0.0996  0.1011  0.3429
18251W        W36455   4.984  15.741  14.132 -0.1597  0.1365  0.2803
18252W        W36456   3.354   7.993   4.846 -0.1706 -0.0885  0.1619
18253W        W36457   1.699  13.940   3.560 -0.2405  0.2386  0.0939
18254W        W36458   9.663  10.973  16.313 -0.1158 -0.0740  0.2246
18255W        W36459   1.458  17.084   2.339 -0.1359 -0.0359  0.0555
18256W        W36460   6.542   3.712  12.520  0.1059  0.0742 -0.1218
18257W        W36461  14.902  10.419   1.981 -0.1494  0.0475 -0.0993
18258W        W36462  13.574  10.721   2.269  0.2796 -0.1468 -0.0932
18259W        W36463   7.922   2.772  15.059  0.1043 -0.2692 -0.2328
18260W        W36464   8.246  13.681   0.682 -0.0430  0.2218 -0.0408
18261W        W36465  11.918   3.615   2.125 -0.1534  0.1539 -0.2467
18262W        W36466   6.728   8.431   1.581  0.1478  0.1174 -0.1196
18263W        W36467   9.803  14.956  14.981  0.1392 -0.1232 -0.2657
18264W        W36468   7.522  11.931  12.396 -0.0218 -0.1177 -0.1038
18265W        W36469  11.042   1.609   0.985  0.2229 -0.1978 -0.2713
18266W        W36470   2.328   6.274  14.064  0.0974  0.1774 -0.0569
18267W        W36471   8.359   1.963  12.424  0.0839 -0.1293 -0.1387
18268W        W36472   2.769  11.141   4.766  0.1413  0.0792 -0.2075
18269W        W36473  15.600   5.217  12.377  0.2126 -0.0798  0.0942
18270W        W36474  12.309   1.214   0.398  0.0698  0.2101 -0.0986
18271W        W36475   7.881   2.829   3.235 -0.0426 -0.1350  0.2714
18272W        W36476  15.577  10.113  14.397 -0.0573  0.0264 -0.2662
18273W        W36477   5.978   5.725  16.040 -0.5802  0.0435  0.1211
18274W        W36478  13.211   4.923   4.014  0.2371  0.1102  0.4571
18275W        W36479  16.127  13.126   4.927 -0.2137  0.2636 -0.0497
18276W        W36480   6.605   2.502  17.065 -0.3852 -0.1510  0.0039
18277W        W36481  10.394  17.061  14.577 -0.3808 -0.1533  0.1540
18278W        W36482  12.669  14.067  14.934  0.1807  0.1513  0.0833
18279W        W36483  16.141   7.228  15.891  0.0390  0.0964 -0.1438
18280W        W36484   9.989   4.782   1.668 -0.1630  0.2071  0.0300
18281W        W36485  15.195  15.882   6.010 -0.0573  0.3114  0.1249
18282W        W36486   9.739   1.622  16.890 -0.2548 -0.1209 -0.0141
18283W        W36487  10.985  14.955   5.349  0.2865 -0.1113  0.0467
18284W        W36488  12.330   5.932  15.798 -0.1436  0.0480 -0.0566
18285W        W36489   2.282  14.236   4.844 -0.0592  0.2604 -0.1482
18286W        W36490   1.490   1.542   1.061  0.1163  0.0228  0.1746
18287W        W36491   1.597  15.547  15.271  0.2240  0.1560  0.0232
18288W        W36492   9.735   9.161  11.173 -0.1448  0.1145 -0.6788
18289W        W36493   1.247  14.893  12.789  0.0009  0.1844  0.1256
18290W        W36494   5.679  11.281  14.086 -0.1519 -0.5777  0.0856
18291W        W36495  16.957  14.259   1.353  0.1421 -0.0551 -0.2322
18292W        W36496   7.218   9.632   4.972 -0.1395 -0.0006 -0.2080
18293W        W36497  12.787   7.131  14.072 -0.2505 -0.2750 -0.2078
18294W        W36498   5.191  10.367   2.216 -0.0449  0.2752  0.2090
18295W        W36499   6.424   9.150  12.493  0.1621 -0.0069  0.1699
18296W        W36500   8.981   8.335  15.741  0.1501  0.1346  0.2186
18297W        W36501  12.443  14.041  14.069  0.1050 -0.1017 -0.2305
18298W        W36502   9.719  12.697   2.746 -0.1663 -0.1161  0.0672
18299W        W36503  11.794   9.822  13.024  0.1006 -0.2574  0.1274
18300W        W36504   1.671   0.573   2.549 -0.4721  0.0809 -0.0474
18301W        W36505  17.067   6.755  12.979  0.1224 -0.0283 -0.0098
18302W        W36506   5.063   3.859  15.498 -0.2252  0.0856 -0.0250
18303W        W36507   2.990   1.039   3.009  0.0230  0.1454 -0.0855
18304W        W36508  17.174  10.941   6.189  0.0261  0.3121 -0.3185
18305W        W36509  14.555   3.164   4.150  0.3579 -0.1885 -0.0908
18306W        W36510  15.689  12.315   1.677  0.1006  0.2530  0.0180
18307W        W36511   4.315   1.787  15.421 -0.2508 -0.1583  0.1455
18308W        W36512   1.695   6.962   2.331 -0.2059 -0.0115 -0.1002
18309W        W36513  16.920   8.609  14.889 -0.1886  0.1155  0.0862
18310W        W36514   5.307  13.960   0.435 -0.1087  0.2033  0.2041
18311W        W36515  17.161  15.719  15.022  0.0049 -0.3221 -0.2414
18312W        W36516   2.623  11.009   2.819 -0.4950 -0.0167  0.1756
18313W        W36517   2.748   4.258   0.135 -0.2738  0.0771  0.2825
18314W        W36518   9.171   2.757  14.389  0.1665 -0.0624 -0.0335
18315W        W36519   4.568  17.165  14.296 -0.2451 -0.2298  0.4710
18316W        W36520  14.296  12.760  11.941 -0.2338 -0.0762 -0.0366
18317W        W36521  14.643  10.847   1.913  0.0253  0.2506  0.2513
18318W        W36522   9.710   2.748   3.664 -0.1359 -0.1216  0.0647
18319W        W36523   2.078   3.538  17.216  0.0047 -0.2833 -0.3558
18320W        W36524  14.783   4.403   0.755  0.0609  0.0730 -0.1549
18321W        W36525   0.290  16.472  15.326  0.5456  0.1864  0.0510
18322W        W36526   6.798   3.634  15.323 -0.1852  0.0193 -0.0704
18323W        W36527   2.840   4.582   1.303  0.0095 -0.4451 -0.1739
18324W        W36528   2.061  11.649   0.172 -0.1154  0.0001 -0.0337
18325W        W36529  11.268   5.543   1.543  0.1049 -0.0422  0.0597
18326W        W36530  11.634  10.741  15.319  0.0894 -0.0449 -0.0206
18327W        W36531   4.244  13.302   2.202  0.3148 -0.0010  0.1869
18328W        W36532   3.697  16.305   5.298  0.1604  0.1003  0.0761
18329W        W36533   7.645   6.160  11.682  0.1921 -0.1305  0.2333
18330W        W36534   3.739  11.156  14.717  0.0579 -0.0715 -0.0409
18331W        W36535   6.824   0.024   4.367  0.0402  0.3897  0.0148
18332W        W36536   1.891   1.845   2.443 -0.0563  0.1123 -0.2945
18333W        W36537  11.198  10.706   1.298  0.1912 -0.0797 -0.0629
18334W        W36538   2.941   9.991  15.035  0.3479 -0.0509 -0.1359
18335W        W36539  15.621   6.318  16.806 -0.0823 -0.2169 -0.0277
18336W        W36540  13.995   0.056   4.320 -0.0452  0.0608 -0.1422
18337W        W36541  12.896  12.903   2.066 -0.2042 -0.3611 -0.4015
18338W        W36542  14.443   5.615  15.265 -0.2473  0.1065  0.0637
18339W        W36543   5.855  11.453  15.796 -0.1805  0.0105  0.0025
18340W        W36544  16.786   9.671  14.179 -0.1047  0.0204 -0.1443
18341W        W36545  14.803   7.311   2.837 -0.0786  0.1339  0.1743
18342W        W36546   3.222  12.706  11.755 -0.1717  0.0794  0.1796
18343W        W36547   1.874  15.172  12.027  0.2350  0.0170  0.0217
18344W        W36548  16.596   8.122  14.100 -0.0101  0.0201  0.1040
18345W        W36549   8.706   1.253   3.119  0.2697  0.1003  0.1469
18346W        W36550   5.721  16.598  13.561  0.0271 -0.2419 -0.3967
18347W        W36551   8.457   4.006  16.468  0.2298 -0.0920 -0.4099
18348W        W36552   0.644  15.929  13.923  0.2186  0.0605  0.0929
18349W        W36553   6.032   8.686   4.069 -0.0831 -0.0832 -0.1796
18350W        W36554   1.062  13.329   3.114  0.0717 -0.0375  0.0401
18351W        W36555   7.182  13.322   5.128 -0.1432  0.1667 -0.2071
18352W        W36556  15.719   4.144  15.406  0.2394 -0.0268  0.1756
18353W        W36557   6.647   4.511  12.896 -0.1336 -0.0896 -0.0958
18354W        W36558   7.760   8.941   2.781  0.0700 -0.0081  0.1887
18355W        W36559  16.514   3.486   0.075  0.2082 -0.1741  0.0107
18356W        W36560   0.065  14.686   5.105 -0.1826 -0.1534 -0.1866
18357W        W36561  14.190   1.765   3.051  0.4064  0.3460 -0.1147
18358W        W36562  13.196   1.076  15.188  0.1505 -0.0364 -0.1097
18359W        W36563  11.291   6.765   3.983  0.1833  0.1484 -0.0733
18360W        W36564   0.700   2.941   3.904 -0.0826 -0.0056  0.0679
18361W        W36565  15.761   8.249  15.840 -0.2422  0.2108  0.1308
18362W        W36566   5.826   4.563   4.286 -0.0431  0.0144 -0.2899
18363W        W36567  14.310   2.874   5.317  0.1405 -0.1131 -0.0189
18364W        W36568  10.176  13.649  14.120 -0.2135  0.1915  0.0443
18365W        W36569   2.940  16.874   2.630 -0.1264  0.1790  0.4453
18366W        W36570  10.544   9.825  15.869  0.0242  0.1266  0.1566
18367W        W36571   4.425  14.063   0.716 -0.0715  0.0407  0.3229
18368W        W36572  15.174   7.401  14.600  0.1254 -0.1017 -0.2833
18369W        W36573   6.969  12.187  14.871  0.0253 -0.2278  0.1935
18370W        W36574  14.461   3.056   2.766  0.0590 -0.0923 -0.0286
18371W        W36575  13.890  10.796  16.054  0.2594 -0.0535  0.0832
18372W        W36576   6.566   5.270   0.960 -0.2642  0.1071 -0.2290
18373W        W36577   6.729  16.342   5.245 -0.0208 -0.2104 -0.2637
18374W        W36578  17.050   1.296  16.702  0.2970  0.3231  0.2258
18375W        W36579   6.245   2.206  16.716 -0.1093  0.0177  0.3916
18376W        W36580  15.913  12.464   4.741 -0.2169  0.0974  0.0428
18377W        W36581  16.031  12.927   2.149  0.0245 -0.1142  0.1278
18378W        W36582  12.778  10.911   3.383  0.1137  0.1092  0.0465
18379W        W36583   1.696   2.678  14.658  0.2865  0.2161  0.1051
18380W        W36584  15.462   4.870   3.188  0.1386  0.4232 -0.0993
18381W        W36585   8.732  16.986   1.624 -0.0335  0.0239 -0.0234
18382W        W36586   2.738  14.462   4.725 -0.1668 -0.0539  0.0257
18383W        W36587  12.881   7.666  14.255  0.0352  0.1267 -0.1493
18384W        W36588   6.114   4.855   3.546  0.0279 -0.1774  0.1030
18385W        W36589  11.009   6.167   4.811  0.1272 -0.0672  0.2347
18386W        W36590  10.547   0.818   5.226 -0.1111  0.0024  0.1242
18387W        W36591   2.710  14.438   1.923 -0.1321  0.1730 -0.1818
18388W        W36592   1.970   3.042  15.444  0.1195 -0.0163 -0.1115
18389W        W36593   4.730   9.941  14.355 -0.0948  0.0349 -0.2220
18390W        W36594  15.578  13.036  17.177  0.0511 -0.0675 -0.1649
18391W        W36595   7.866   9.388  14.539 -0.1801 -0.1763  0.0298
18392W        W36596  10.597  17.053   2.445  0.2141 -0.0053  0.0617
18393W        W36597   4.382   6.292   0.743 -0.0771 -0.0696 -0.0176
18394W        W36598   5.448   3.374  14.611  0.1711 -0.2325  0.0428
18395W        W36599   8.849  12.292  14.822 -0.0237  0.0111 -0.0679
18396W        W36600  14.354  14.685   5.570  0.1489  0.0016 -0.2070
18397W        W36601   1.722   1.919   1.374  0.1916  0.1163  0.2992
18398W        W36602  12.349   1.439  15.959 -0.2652 -0.1396  0.0731
18399W        W36603   4.109   1.769   1.168  0.1043  0.0764 -0.0505
18400W        W36604   9.687   4.477   2.862 -0.2465  0.0554  0.0767
18401W        W36605   9.820  10.962  15.452  0.0275 -0.0516  0.2492
18402W        W36606  15.188   6.448   1.480  0.1469  0.2813 -0.0143
18403W        W36607   7.580  15.723   2.731  0.0373  0.1724  0.4690
18404W        W36608  13.243  11.550   2.859  0.1727 -0.4561 -0.0367
18405W        W36609  13.337  10.309   4.833  0.1466  0.1333  0.0286
18406W        W36610  16.774   3.100   3.991  0.1317 -0.1392 -0.3763
18407W        W36611  13.176  13.595   4.010  0.2514 -0.0938  0.0596
18408W        W36612  12.136  12.152   3.212  0.0985  0.0303 -0.1336
18409W        W36613  15.388   1.962  13.992 -0.0963  0.1863 -0.0317
18410W        W36614  15.624   0.681   4.745  0.2747  0.3254  0.3092
18411W        W36615   7.108   5.555  15.511  0.0210 -0.0437  0.1946
18412W        W36616  16.129  10.390  13.487 -0.0859  0.0768 -0.1634
18413W        W36617  12.652   1.548   0.555 -0.0527 -0.0947  0.1951
18414W        W36618   1.031   9.760   4.606  0.2507  0.1474  0.0450
18415W        W36619   0.446  10.148   1.389 -0.0019 -0.0651  0.2782
18416W        W36620  11.078  15.817  15.115  0.2091 -0.0122 -0.0314
18417W        W36621   4.095  10.444  12.271 -0.1020  0.1427 -0.0534
18418W        W36622   9.918   6.820  12.657 -0.1020  0.3023 -0.3013
18419W        W36623   6.977   3.357   4.859  0.0326  0.4087 -0.1966
18420W        W36624  11.871  15.550  16.469 -0.0872  0.3265  0.2762
18421W        W36625  11.850   6.421  12.782 -0.0342  0.0712  0.0737
18422W        W36626   3.122   6.186  14.059  0.3310  0.1838  0.1047
18423W        W36627   5.562   5.222  14.158  0.0918  0.0460 -0.1616
18424W        W36628  13.395   0.710   3.304  0.0276  0.0913  0.2233
18425W        W36629   4.513   0.542  14.054 -0.1996 -0.0555  0.0822
18426W        W36630   0.156   1.275   5.400  0.3549 -0.0268  0.3347
18427W        W36631   3.346  13.821   1.555  0.0418  0.1448  0.3169
18428W        W36632  10.277   6.193  14.246  0.1840  0.2790  0.0259
18429W        W36633  12.559   4.731   3.230 -0.1302 -0.1205  0.1645
18430W        W36634  13.744   3.280  12.563  0.1466 -0.2804  0.1709
18431W        W36635   3.837  16.799   1.708  0.2724 -0.1949  0.2143
18432W        W36636  15.523  15.314   5.366 -0.6254 -0.2984 -0.1876
18433W        W36637  11.347  14.668   5.242  0.2277  0.0490  0.0611
18434W        W36638  16.957  11.749  14.708 -0.3453  0.0915  0.0985
18435W        W36639   1.310  11.610  15.536  0.0814 -0.1421 -0.2289
18436W        W36640   6.951  12.660  14.697 -0.2174 -0.0661  0.2394
18437W        W36641   7.744   2.796   2.164 -0.0264 -0.0065  0.0143
18438W        W36642  15.803   9.112   4.785 -0.1334 -0.4474  0.2255
18439W        W36643   0.376   9.454  13.386 -0.1352  0.0184  0.2807
18440W        W36644   2.072  12.232   0.872  0.1751 -0.1644  0.2164
18441W        W36645  12.977   7.182  14.537 -0.0565  0.1878  0.0907
18442W        W36646   7.409  16.777   4.555  0.1087 -0.0274  0.5146
18443W        W36647   5.983  16.429  13.931  0.1640  0.1014 -0.1674
18444W        W36648   6.274   4.030  16.578  0.2217 -0.2690  0.0698
18445W        W36649   1.270   8.101  14.420  0.0778  0.0999  0.0049
18446W        W36650  15.438  10.888   3.378 -0.0247 -0.4215  0.0460
18447W        W36651   0.556   5.338   0.199  0.2486 -0.0768  0.0886
18448W        W36652  14.026  11.130  14.075 -0.0684 -0.3817 -0.2460
18449W        W36653   7.458  15.502   3.520  0.0727 -0.2200 -0.0004
18450W        W36654  12.245   0.429  16.095  0.0577 -0.1405  0.0684
18451W        W36655   0.395   6.722   4.725  0.2608  0.2765 -0.2430
18452W        W36656  12.592   8.677  15.126  0.2596  0.0181  0.0614
18453W        W36657   1.411  10.373  15.851  0.1941  0.0814 -0.1328
18454W        W36658  14.789  14.934  15.769  0.0545 -0.0379 -0.1471
18455W        W36659  12.010   3.920  13.403 -0.1252 -0.0666  0.1272
18456W        W36660   1.644  13.814  13.440  0.0374 -0.0768  0.1405
18457W        W36661  14.592   6.594  13.120  0.3021  0.1933 -0.1846
18458W        W36662   9.316   4.461  14.500  0.0663  0.2721  0.4202
18459W        W36663  16.320   5.048   3.140 -0.0001  0.1208 -0.3049
18460W        W36664  12.547  10.711  14.211 -0.0823 -0.2463 -0.1861
18461W        W36665   5.146  12.453  13.391 -0.1839 -0.0860 -0.3360
18462W        W36666  15.033  11.793   0.173 -0.1899  0.0319 -0.0855
18463W        W36667  14.713  17.403   1.173  0.1184 -0.1067  0.1700
18464W        W36668  12.712   4.137  15.664  0.1891 -0.0272  0.3692
18465W        W36669   8.340  15.168   2.736 -0.1299 -0.0228 -0.2298
18466W        W36670   3.574   0.732   4.631  0.0180 -0.4720  0.0008
18467W        W36671   7.398  10.694   4.320 -0.2278  0.0958  0.1939
18468W        W36672  10.681   1.240  13.352  0.3349 -0.1249  0.5102
18469W        W36673   0.747  17.412   3.606  0.4245  0.1302  0.1897
18470W        W36674   0.352   1.364  14.508 -0.1674  0.0994 -0.2162
18471W        W36675  10.183  14.239   0.241 -0.0910  0.0690 -0.1617
18472W        W36676  10.422  13.338  14.474  0.2632  0.0236  0.1389
18473W        W36677   5.061   0.785  17.217  0.1873  0.0684  0.1665
18474W        W36678   4.830  16.575  12.395 -0.2474  0.0246 -0.1594
18475W        W36679  15.765   6.259   3.760 -0.2421 -0.1319 -0.0597
18476W        W36680   8.862   9.187   5.012 -0.3901  0.1789  0.0494
18477W        W36681   7.576   2.689  15.465  0.2945 -0.4134 -0.0354
18478W        W36682  16.878   3.955   5.568  0.1703 -0.1563  0.1491
18479W        W36683  11.805  15.131   5.203 -0.0024 -0.1272 -0.2184
18480W        W36684  15.575  14.618  14.685  0.1631 -0.1332 -0.0058
18481W        W36685   1.494  16.527   4.817 -0.1049 -0.2717  0.0584
18482W        W36686  10.606   6.935   1.952 -0.1849 -0.0496 -0.1885
18483W        W36687  14.273  12.086  16.862 -0.0866 -0.1882  0.4056
18484W        W36688   5.541  10.259  15.115  0.1463 -0.2612  0.1139
18485W        W36689  12.736   2.347   2.890  0.0579 -0.1108 -0.0305
18486W        W36690   4.472  14.186   4.127  0.1467  0.0316  0.2326
18487W        W36691  17.509  15.810  14.736 -0.2522 -0.1069  0.4319
18488W        W36692   4.481   6.898  13.722 -0.1038  0.1590 -0.0854
18489W        W36693  16.338   8.321   4.874 -0.0236 -0.2308 -0.0405
18490W        W36694   3.877   2.381   1.495 -0.4212  0.1149 -0.2953
18491W        W36695  15.981  14.827   6.013  0.0717 -0.0092  0.3495
18492W        W36696   7.418   7.727   1.926 -0.1922  0.1543  0.1044
18493W        W36697  12.747   3.679   0.549  0.0984  0.0833 -0.0324
18494W        W36698   9.589   4.504  12.454 -0.1890 -0.1892 -0.0789
18495W        W36699   0.845  12.028  12.384  0.0325  0.3204  0.0952
18496W        W36700   8.216  13.853   2.971 -0.3548 -0.0344  0.0329
18497W        W36701   9.042   8.827  15.141  0.2877 -0.1788  0.0252
18498W        W36702  10.078  16.508  16.994 -0.5234 -0.1543  0.2312
18499W        W36703  13.668   1.402  12.765 -0.1804  0.0254 -0.1992
18500W        W36704  10.834   8.046  13.962  0.4478 -0.1899 -0.0904
18501W        W36705   1.163   4.947   2.395 -0.3739 -0.1238  0.0820
18502W        W36706   9.121  15.301  16.759  0.0450  0.2138 -0.1051
18503W        W36707   3.271   5.732   4.715  0.1254 -0.0994  0.1433
18504W        W36708  10.880   8.554   4.220  0.1283  0.0680  0.0845
18505W        W36709   9.497   6.041   0.655  0.0776 -0.0361 -0.0127
18506W        W36710  10.255  11.184  15.263 -0.1176 -0.0766  0.3956
18507W        W36711  10.794  12.054  16.083  0.1081  0.0312 -0.1310
18508W        W36712   6.661   9.395  15.902  0.2328 -0.1740 -0.2319
18509W        W36713  15.216  11.385  17.211  0.2836 -0.1493 -0.0440
18510W        W36714  14.992   8.256   3.232  0.3618 -0.1263  0.1663
18511W        W36715   4.713   0.718   1.938 -0.2561 -0.2785 -0.1349
18512W        W36716  12.526   0.516   4.884  0.2000  0.2076 -0.0111
18513W        W36717  14.050  13.894   6.971 -0.1442 -0.0265 -0.0389
18514W        W36718   2.623   9.445  13.590 -0.1818 -0.3358 -0.0088
18515W        W36719   3.028  10.212   2.605  0.0598 -0.0742 -0.1554
18516W        W36720  16.048   2.441   0.071 -0.4708  0.2736 -0.0431
18517W        W36721  11.489  12.977  15.834  0.0388  0.0226  0.0612
18518W        W36722   5.140   8.160  13.589 -0.1283  0.1008 -0.0316
18519W        W36723  13.687  14.454  12.354  0.2053 -0.0842 -0.0523
18520W        W36724   4.142   0.805  16.221 -0.2660 -0.0633 -0.2763
18521W        W36725  12.015  15.874   4.800  0.4449 -0.0861  0.1598
18522W        W36726   3.179  10.007  16.364  0.1354  0.0860 -0.2521
18523W        W36727   9.960  11.634   0.378 -0.4454  0.0116 -0.0909
18524W        W36728   9.106  13.788   4.754 -0.6479  0.1879  0.0075
18525W        W36729   2.783   4.674  16.134  0.4049  0.0618 -0.2585
18526W        W36730   6.375   3.682  15.030 -0.2795  0.1251  0.2314
18527W        W36731  16.939   5.533   4.493  0.0438  0.2354 -0.0436
18528W        W36732   9.497   0.286   2.973 -0.0373 -0.2299  0.0800
18529W        W36733   3.909   7.713   3.657  0.2088 -0.1836 -0.0714
18530W        W36734  14.738   5.815  14.480  0.0214  0.2787 -0.0796
18531W        W36735   1.288   5.366  15.306  0.0443 -0.1490 -0.1361
18532W        W36736   9.379   2.134   1.360 -0.1177 -0.1145  0.0522
18533W        W36737  13.250  16.288  14.533  0.0637  0.1000 -0.2544
18534W        W36738  14.504   1.429   2.862 -0.0011 -0.4814 -0.2160
18535W        W36739   7.128  14.731  16.401 -0.2797  0.1447 -0.0821
18536W        W36740  12.401   1.891   3.327  0.2823  0.1893  0.1200
18537W        W36741   8.213   7.457  12.098  0.1268 -0.1424 -0.0914
18538W        W36742   2.712   9.712   0.743 -0.0563  0.2566 -0.1095
18539W        W36743  15.279  16.334   0.111 -0.0639 -0.0050 -0.0199
18540W        W36744   5.843  14.649   6.103  0.0173  0.0391  0.3372
18541W        W36745   8.540   3.017   2.242  0.0717 -0.0748  0.3272
18542W        W36746  12.641  16.080  11.892 -0.0428  0.1313  0.1392
18543W        W36747   4.938   2.190   5.509 -0.1597  0.0752  0.1868
18544W        W36748  16.838   2.556   1.738 -0.2290  0.3218 -0.1689
18545W        W36749   3.254   5.721  14.007 -0.1468 -0.2318 -0.0158
18546W        W36750   4.796   6.141  11.644 -0.2549 -0.2527 -0.0580
18547W        W36751  10.102   3.439   2.410  0.0487  0.0898  0.0600
18548W        W36752  16.665  10.699  12.118 -0.3472 -0.0378  0.1833
18549W        W36753  12.683   8.719   2.156  0.2220  0.2124  0.1191
18550W        W36754   8.307  16.603   1.536 -0.0704 -0.0356  0.3322
18551W        W36755   5.636   9.305   0.956 -0.1720 -0.2192 -0.0800
18552W        W36756  17.158  15.600  12.147 -0.2666 -0.0704  0.1026
18553W        W36757   9.695  14.429  11.736  0.1821 -0.0509 -0.0431
18554W        W36758   2.900  16.575   4.130  0.1197 -0.0819  0.0456
18555W        W36759   2.726  14.532  12.508 -0.1944  0.1356 -0.1626
18556W        W36760  15.336   1.766   0.935 -0.1015 -0.0121 -0.1465
18557W        W36761   0.700   2.292   3.199  0.0000  0.0147 -0.0124
18558W        W36762   7.098  10.144  15.863  0.0360 -0.2604 -0.1402
18559W        W36763   7.601  13.774  15.201  0.1309 -0.1297  0.0726
18560W        W36764  16.692   9.475   4.476  0.0024  0.2864  0.2672
18561W        W36765  10.932   5.245  12.266  0.1572 -0.1705  0.0428
18562W        W36766   5.162   9.954  16.637  0.3004 -0.3131  0.3627
18563W        W36767  15.449   8.944  11.972 -0.1041 -0.1283 -0.0047
18564W        W36768  13.756  15.821   2.672  0.1886 -0.1647  0.0272
18565W        W36769   5.997   6.325  12.727  0.1037 -0.0915 -0.0590
18566W        W36770   6.641  16.870  15.461 -0.4673  0.0399 -0.1621
18567W        W36771   9.841   3.534   3.371  0.0498 -0.0412  0.1175
18568W        W36772   6.753  12.614  15.930 -0.2127 -0.2247 -0.1636
18569W        W36773  13.071   9.487  15.014 -0.0104 -0.0737  0.1114
18570W        W36774   9.463  16.204  15.710  0.4268  0.2466 -0.2355
18571W        W36775  16.498   8.441  14.529  0.1784 -0.1640  0.0773
18572W        W36776   6.489   0.058  12.405  0.0269 -0.1929  0.0431
18573W        W36777  11.662  14.844  14.287 -0.2135  0.1880  0.1570
18574W        W36778  16.902   2.035   1.616 -0.2587  0.0830 -0.1792
18575W        W36779   9.571  12.733   1.754 -0.0248 -0.0294 -0.3494
18576W        W36780   3.667   8.830   0.586 -0.0604 -0.0552 -0.0876
18577W        W36781  11.810   7.960   1.910 -0.0748  0.1461 -0.0488
18578W        W36782  10.104  10.897   0.835  0.1371 -0.0923  0.3019
18579W        W36783   5.450  17.186  13.218 -0.1583 -0.1446  0.3070
18580W        W36784   2.737   1.898   3.338  0.0171 -0.0182 -0.1721
18581W        W36785   9.355   2.310   1.928 -0.3331 -0.2348 -0.0191
18582W        W36786  14.218   3.135   3.311 -0.0557 -0.0531 -0.1323
18583W        W36787   4.046  11.903  12.493  0.3588  0.1862  0.1697
18584W        W36788   6.664   3.606   2.822  0.0037  0.1954 -0.3374
18585W        W36789   5.387  15.136   0.573  0.1553  0.3158 -0.3307
18586W        W36790   4.555   1.226  12.731  0.1510  0.2747  0.2261
18587W        W36791  17.138   5.876   4.801  0.0816 -0.2054 -0.0899
18588W        W36792   3.869   5.022  13.195 -0.1568  0.1889 -0.4464
18589W        W36793   8.683   5.999  14.668  0.2867 -0.0604 -0.0967
18590W        W36794   1.734   6.418  12.094 -0.1176  0.2669  0.2193
18591W        W36795  17.139   6.370   4.497 -0.2588 -0.1869  0.0963
18592W        W36796   0.134   2.053  13.480  0.2347  0.0565  0.2068
18593W        W36797  12.501  10.855   0.912 -0.0198  0.4868 -0.4192
18594W        W36798  14.210  12.571  17.032  0.3413  0.2661  0.0805
18595W        W36799  17.041  13.292   4.722 -0.0438  0.1543 -0.0717
18596W        W36800   8.977  10.652   3.477 -0.1312 -0.0518 -0.1000
18597W        W36801   5.697   0.011  14.276 -0.0775  0.3452  0.0366
18598W        W36802   5.490   9.818  17.025 -0.0258 -0.0140  0.0319
18599W        W36803  12.416   3.514   4.947  0.0632  0.1054  0.1220
18600W        W36804   1.432   2.598   2.745 -0.2430 -0.0119  0.1750
18601W        W36805  13.208  10.092   2.987 -0.3205  0.0011  0.1504
18602W        W36806  15.004   3.280   0.031 -0.0997 -0.2836  0.3550
18603W        W36807   0.794  11.932  11.845  0.0242  0.2033  0.1734
18604W        W36808  12.033   3.501  12.951 -0.1423  0.1471 -0.0196
18605W        W36809  14.593   0.689  13.910 -0.0341  0.2124 -0.2800
18606W        W36810  12.903   3.580  16.088  0.2701  0.1077  0.0120
18607W        W36811   5.819   6.562  16.287  0.3673 -0.0327  0.1165
18608W        W36812  10.321  10.260  15.836  0.2805  0.2302  0.2413
18609W        W36813   5.108  11.940  13.392  0.1324  0.1854  0.1287
18610W        W36814   2.773  10.864  14.624  0.0024  0.0716  0.0282
18611W        W36815   2.904   0.046   4.566 -0.0359 -0.4621  0.3652
18612W        W36816   9.654   5.114  13.866  0.1457 -0.2576 -0.0687
18613W        W36817  15.423  14.698   4.808 -0.2536  0.1038 -0.3741
18614W        W36818   2.200   8.481   3.519 -0.0071  0.1278  0.2221
18615W        W36819   7.698   4.310  13.000  0.1065  0.1730  0.1397
18616W        W36820  13.397  13.169   3.724 -0.0995  0.7103 -0.0901
18617W        W36821   7.680   7.402   0.957 -0.0460  0.2061 -0.1846
18618W        W36822   6.280   1.624  13.037  0.1371  0.0271  0.0340
18619W        W36823   3.305   9.752   0.252  0.0203  0.0135 -0.0343
18620W        W36824   8.052  17.085  16.929 -0.2060 -0.0629  0.0578
18621W        W36825   7.786   1.746  15.768  0.2497 -0.1400 -0.0218
18622W        W36826   5.540   8.405  12.886 -0.3069  0.1448  0.0330
18623W        W36827  12.655  12.377   3.765 -0.1630  0.1788  0.0203
18624W        W36828   4.594   4.422  13.796  0.0939 -0.2252  0.0442
18625W        W36829  13.082   3.261  15.110  0.0797 -0.2582  0.0801
18626W        W36830  15.838  14.105   0.771  0.0324  0.0667  0.0321
18627W        W36831  12.640  12.904  13.130  0.1195 -0.1145  0.1677
18628W        W36832   3.504   1.960   5.285 -0.1425 -0.0896  0.0402
18629W        W36833  14.397  15.056  14.486 -0.3116 -0.4186  0.0191
18630W        W36834   6.901  17.100   5.024  0.0352 -0.3500  0.1430
18631W        W36835  16.031  16.361  15.681 -0.0883 -0.0160 -0.1509
18632W        W36836   3.240   6.434   1.950  0.2243 -0.3400 -0.0933
18633W        W36837  15.056   4.157   4.368 -0.1502  0.3009 -0.1270
18634W        W36838   8.587   8.815  14.140 -0.2011 -0.2520 -0.0893
18635W        W36839  14.190  16.657   4.597 -0.0781 -0.3164  0.1160
18636W        W36840  13.576  15.225   3.983 -0.1498  0.1117  0.1438
18637W        W36841   0.581  14.725   5.290 -0.1157  0.1999  0.1798
18638W        W36842   9.537   2.248   0.408 -0.1458  0.0563 -0.0773
18639W        W36843  14.261  13.710   3.008 -0.2088 -0.0779  0.0144
18640W        W36844  13.681  10.524  15.636 -0.0473 -0.1243  0.1624
18641W        W36845   5.253  15.669   2.723  0.1967 -0.1022 -0.3439
18642W        W36846   2.516  13.741  13.154  0.1325 -0.3926  0.1801
18643W        W36847  14.774  14.485  12.264  0.2623 -0.1389  0.1698
18644W        W36848   4.927  14.172   0.825  0.0728  0.1685  0.1881
18645W        W36849  10.858   0.410   4.934  0.1152  0.0330  0.1561
18646W        W36850  14.812   3.921  12.949  0.0363 -0.0373 -0.2002
18647W        W36851  15.456   5.291   2.592 -0.1035 -0.0071 -0.1073
18648W        W36852   7.968   0.808   2.457 -0.1091 -0.0432  0.3214
18649W        W36853   6.606   6.174  16.605 -0.0921 -0.2730 -0.3348
18650W        W36854   8.761   7.085  16.440  0.1152 -0.1004 -0.0176
18651W        W36855   9.499   6.847  15.660  0.3127 -0.1807  0.1042
18652W        W36856  14.044  11.703   1.725 -0.2006 -0.1355 -0.0064
18653W        W36857  15.166   5.565   4.302 -0.1330 -0.0772  0.0966
18654W        W36858  11.353  14.117  13.807  0.0536  0.2470  0.2812
18655W        W36859  14.964   5.175   4.485 -0.1879 -0.0432 -0.2162
18656W        W36860   3.185   6.868   2.241 -0.0109 -0.1560  0.2942
18657W        W36861   4.124  14.153  15.889 -0.0672 -0.0581  0.1027
18658W        W36862   4.058   3.498   1.420  0.0467 -0.1115  0.1950
18659W        W36863  13.715  11.226   3.769  0.2109 -0.0004  0.2705
18660W        W36864  12.585  16.880   3.495  0.1379 -0.1871 -0.0220
18661W        W36865   5.478  15.731   3.146 -0.1246  0.4570  0.3308
18662W        W36866   5.779   9.786  12.326 -0.0316 -0.1039 -0.3166
18663W        W36867  13.258  11.273   5.057 -0.2316  0.0819  0.1948
18664W        W36868  15.414   8.702   0.143 -0.1318  0.1782  0.0682
18665W        W36869  17.417  13.514   1.297 -0.0140 -0.2314 -0.0803
18666W        W36870   7.654   8.339   5.337  0.2436  0.1177  0.0797
18667W        W36871  10.697   7.864  14.408 -0.0015 -0.1378  0.0179
18668W        W36872   6.111  12.423  14.528 -0.0684  0.0736 -0.0661
18669W        W36873   0.280  13.267  14.795  0.0096  0.1112  0.0382
18670W        W36874   5.667   5.123  17.138  0.2803 -0.0408 -0.0385
18671W        W36875  15.651   5.485  14.168  0.0583 -0.1850 -0.2161
18672W        W36876  12.748  13.091  16.355 -0.1074  0.1770 -0.0104
18673W        W36877   8.826   3.769   4.786  0.2408  0.1575 -0.1972
18674W        W36878   4.344   8.733   1.550 -0.2516  0.1058 -0.1750
18675W        W36879  12.920  12.131  17.223  0.2195 -0.1679 -0.0382
18676W        W36880  11.656   5.673   4.262 -0.2834  0.1613  0.0347
18677W        W36881  12.647  15.966  17.069 -0.6089  0.1309  0.5201
18678W        W36882   6.384  17.314  12.905  0.1879  0.2354  0.0226
18679W        W36883   6.174   1.152  12.929 -0.1025 -0.0031 -0.1242
18680W        W36884  15.814   9.331  15.830 -0.2470  0.0215  0.3193
18681W        W36885  13.944  12.746   0.225 -0.0737  0.1088 -0.0983
18682W        W36886  13.386   6.248   4.699  0.0718 -0.1370 -0.0185
18683W        W36887   4.054   1.361   4.940  0.2438  0.0937  0.0524
18684W        W36888   5.799   2.808  14.927  0.0608 -0.0537 -0.0208
18685W        W36889   6.188  17.440   2.732  0.1035 -0.0493 -0.2923
18686W        W36890   6.779   7.738  14.419 -0.2654 -0.0652 -0.2711
18687W        W36891   7.742   8.056  13.121  0.1187  0.0458 -0.1513
18688W        W36892  15.471   5.842  12.643  0.1171 -0.1201 -0.1732
18689W        W36893   0.657  12.027  13.924  0.1151  0.0019  0.0857
18690W        W36894   3.446   9.590   1.582  0.0770  0.0567 -0.0843
18691W        W36895   8.354   2.226   4.303  0.2362 -0.2217  0.2541
18692W        W36896  12.782  13.376  17.234  0.2736 -0.5226  0.7211
18693W        W36897   9.287   2.826   1.871  0.0337  0.2355 -0.1462
18694W        W36898   5.304  13.979  15.451 -0.0213 -0.2744  0.0022
18695W        W36899  16.615  17.324   1.517  0.2843 -0.1670 -0.0812
18696W        W36900  10.435  15.770   3.008  0.1672  0.0123  0.1449
18697W        W36901   6.101   1.964   4.365 -0.0971  0.2801  0.0305
18698W        W36902  13.914  10.726  13.025  0.1767  0.2253  0.3019
18699W        W36903  15.811   9.637  16.993 -0.0372  0.1784 -0.0450
18700W        W36904   9.572  15.830  12.172 -0.0345  0.4806 -0.2482
18701W        W36905   4.081   2.650   1.932  0.2512 -0.4044 -0.1121
18702W        W36906  13.230   4.238   0.950 -0.1593 -0.0590  0.1003
18703W        W36907   2.352   9.112  11.645  0.0610 -0.2668 -0.0767
18704W        W36908   5.556   6.053   2.151 -0.1242  0.3142 -0.0258
18705W        W36909   7.810  16.533  17.214 -0.0304 -0.1580 -0.0555
18706W        W36910   3.873  16.015   4.522  0.0425  0.0336  0.3971
18707W        W36911   0.047  11.516   4.883  0.0065 -0.0075  0.0927
18708W        W36912  15.661   4.221  11.341 -0.1942 -0.0856  0.1235
18709W        W36913   3.122   6.767   0.572 -0.3213  0.0191  0.2741
18710W        W36914   7.371   2.958  13.511 -0.0441 -0.1299  0.0648
18711W        W36915  13.625   9.387   1.327  0.0373  0.1410 -0.2164
18712W        W36916  17.283   3.053  14.593 -0.1218  0.1604 -0.2148
18713W        W36917  14.533  13.462   1.428  0.1005  0.2485  0.0845
18714W        W36918  13.153   5.344  16.516 -0.3456 -0.1264 -0.0116
18715W        W36919  14.242   4.638   3.170 -0.2175  0.1787 -0.1384
18716W        W36920  14.660  14.559  13.014  0.1405 -0.2239 -0.0234
18717W        W36921  16.267  13.000   0.638  0.1653 -0.2994  0.4870
18718W        W36922   1.051   9.568   1.475 -0.3162 -0.0412 -0.0732
18719W        W36923  10.509   5.277  15.049 -0.0345 -0.2897  0.1474
18720W        W36924   0.071   8.118   1.501 -0.1384 -0.0069  0.1867
18721W        W36925   4.251  13.577  12.186 -0.0670  0.0436 -0.0605
18722W        W36926   6.817   6.744   1.904  0.2400 -0.2087 -0.3562
18723W        W36927   2.594   5.915   0.728 -0.2104  0.0320 -0.2397
18724W        W36928   4.030   0.480   2.636  0.1834 -0.1760 -0.0303
18725W        W36929   3.721  10.272  13.010 -0.0192 -0.0530 -0.4316
18726W        W36930   9.730   5.896  14.927  0.0582 -0.1591  0.0631
18727W        W36931  10.368  13.805   1.487 -0.0069  0.2149 -0.3313
18728W        W36932   8.620  15.474   2.448  0.0532 -0.1326  0.0842
18729W        W36933  15.136  14.853   0.034 -0.0117 -0.2422  0.1076
18730W        W36934  13.571   2.042   4.160  0.1796 -0.0746 -0.5472
18731W        W36935   7.652   9.413  17.092 -0.2442  0.1274  0.0430
18732W        W36936  11.543  11.969  12.799  0.1326 -0.2370  0.2089
18733W        W36937   4.116  12.192  17.274 -0.0615 -0.3262  0.0690
18734W        W36938  11.661  11.473   2.013 -0.0424 -0.2136  0.1363
18735W        W36939  12.762  10.568   1.843 -0.1785 -0.1132 -0.2574
18736W        W36940   3.047   5.561   3.494 -0.2428  0.2014 -0.2287
18737W        W36941   2.098  12.087   0.376  0.0589  0.0441 -0.5439
18738W        W36942   1.158  15.935  14.123 -0.4472 -0.1813 -0.1428
18739W        W36943   5.478   6.043  15.590 -0.2630 -0.1497  0.0344
18740W        W36944   2.605   5.327  12.452 -0.0319 -0.1637  0.1152
18741W        W36945   9.214   2.640  12.385 -0.0160 -0.4026  0.0173
18742W        W36946   1.771   6.611  15.156  0.0445 -0.0701 -0.2062
18743W        W36947  11.934  15.460  15.293  0.0525 -0.0635  0.1733
18744W        W36948   1.802   6.450  13.787  0.1600 -0.0552  0.1945
18745W        W36949  10.217  13.631   3.681  0.0009  0.0587 -0.4345
18746W        W36950  10.058  17.033  16.804  0.4082 -0.0953  0.0405
18747W        W36951   6.459  12.529   4.068  0.2516  0.0237  0.1623
18748W        W36952  15.720   8.129  14.026 -0.0153 -0.2277 -0.0025
18749W        W36953  12.181   9.626  15.111  0.1816  0.1847 -0.0834
18750W        W36954   3.397   5.820  13.387  0.2242 -0.0803 -0.1172
18751W        W36955  16.604   9.563   2.760 -0.0816 -0.1075  0.0235
18752W        W36956   3.758  12.409  13.240 -0.0946  0.1458 -0.1650
18753W        W36957   7.859   1.115   0.081 -0.2539  0.0303  0.0945
18754W        W36958   8.763   9.031  13.237  0.0208  0.1109 -0.0265
18755W        W36959   0.034   6.433  14.339  0.0402  0.0090  0.1001
18756W        W36960   6.333   7.921  14.488  0.1875  0.0586  0.0443
18757W        W36961   5.936  11.349   0.480 -0.0686  0.1038  0.2233
18758W        W36962   5.266  17.107  11.358  0.0194 -0.1824  0.3686
18759W        W36963  10.663   4.407   0.163  0.0619  0.1854 -0.0465
18760W        W36964   7.086   9.748  14.947  0.0482 -0.1196  0.0518
18761W        W36965   6.011   6.646   3.866 -0.0688  0.2103 -0.4780
18762W        W36966  12.715   6.786   1.922 -0.0686  0.0098  0.0412
18763W        W36967  10.234   5.109  14.057 -0.0787  0.0730  0.1945
18764W        W36968   9.193  13.212  12.382 -0.3822 -0.0801  0.0161
18765W        W36969  10.837  15.431  12.694  0.2139 -0.1242 -0.0296
18766W        W36970  11.802   4.719   2.641  0.2372  0.1990  0.0054
18767W        W36971   3.469  13.611  14.687 -0.3252  0.3491 -0.0391
18768W        W36972   3.564  16.630  16.908 -0.1484 -0.2599  0.0630
18769W        W36973  16.868   8.740  14.190 -0.0979 -0.2104  0.1283
18770W        W36974   9.029   4.602   3.860 -0.0819  0.1306 -0.0139
18771W        W36975   0.874   3.972  11.882  0.1651 -0.1387 -0.1651
18772W        W36976   6.991   3.418   1.931  0.0697  0.1043  0.1451
18773W        W36977   5.246  10.797  16.759 -0.2122  0.0300 -0.0720
18774W        W36978  11.434   6.411  15.554 -0.2812 -0.1808 -0.1777
18775W        W36979   5.737  16.560   2.282  0.0253 -0.3190  0.1726
18776W        W36980   4.543  15.646   4.702 -0.4268 -0.2663 -0.1557
18777W        W36981   2.411  13.317   4.596  0.0051 -0.1021  0.2614
18778W        W36982   2.102   6.609  16.370  0.0092  0.1752 -0.0980
18779W        W36983   3.763  15.032   2.411 -0.1719 -0.0995 -0.2595
18780W        W36984  12.438   5.730  13.077 -0.0659  0.1392  0.2078
18781W        W36985   7.531  13.532  14.488 -0.0905  0.0842  0.0799
18782W        W36986  16.234  17.380  15.798  0.1648  0.2606 -0.0841
18783W        W36987   3.088   5.984   0.931  0.0466 -0.0945  0.2766
18784W        W36988  13.170   6.224   0.392  0.1419  0.1056  0.0455
18785W        W36989  10.920   4.008   4.667 -0.1165 -0.1461 -0.3315
18786W        W36990  15.653  15.745   2.213  0.0190 -0.0092 -0.1320
18787W        W36991   8.148   6.300  14.453  0.1900  0.0328  0.1680
18788W        W36992  13.115  15.684  14.486  0.0236 -0.0198  0.2059
18789W        W36993   0.145  11.858   1.934 -0.1415  0.2315  0.1121
18790W        W36994  17.429  11.992   2.706  0.0178 -0.1130 -0.2800
18791W        W36995  11.082  12.945   6.625 -0.3115 -0.0150 -0.0489
18792W        W36996   1.502   0.333  11.080 -0.1929  0.1596  0.1456
18793W        W36997   1.981   3.452   3.721 -0.0998  0.2841  0.3597
18794W        W36998   8.083   1.456  13.054  0.1156 -0.3254  0.0499
18795W        W36999  16.215   3.829   4.918 -0.0927  0.0188 -0.0284
18796W        W37000   6.785   3.525  11.326  0.1609 -0.2526  0.2084
18797W        W37001   2.175   2.245   0.980 -0.2863 -0.2814  0.0112
18798W        W37002   0.665  15.720  15.490  0.1740 -0.1337  0.0254
18799W        W37003  11.910  10.126  15.119 -0.3076  0.1498 -0.1032
18800W        W37004   3.752   2.110   0.068  0.0700 -0.0231 -0.2442
18801W        W37005  17.248  12.141  17.188 -0.0721  0.0096 -0.0880
18802W        W37006  10.608   1.885   3.883  0.0025 -0.0683 -0.0418
18803W        W37007   8.605  14.764  14.415 -0.1399  0.3115  0.1218
18804W        W37008   3.066   4.641   0.375  0.0325  0.2526 -0.1993
18805W        W37009   2.692   3.615   0.709 -0.0727 -0.2269  0.1016
18806W        W37010   9.737   6.022  13.468 -0.3968  0.0852 -0.3206
18807W        W37011  13.505   8.780   0.071 -0.1755 -0.1199 -0.1309
18808W        W37012   0.924   4.077   2.461  0.2394 -0.0442 -0.1406
18809W        W37013   8.451   4.396   5.604 -0.0596 -0.0355  0.0129
18810W        W37014   1.651   0.094   5.120  0.3047  0.1951  0.1736
18811W        W37015   4.625   5.647   4.098  0.2931  0.1616 -0.0409
18812W        W37016  10.507  15.879  15.072 -0.1704  0.0480  0.1629
18813W        W37017   8.872  15.923   4.690  0.2234 -0.2453 -0.1081
18814W        W37018   1.672   3.475  12.747  0.1066  0.0749 -0.1394
18815W        W37019   5.540   9.594  12.823 -0.1671 -0.0541  0.1193
18816W        W37020  16.183   8.095  14.385 -0.0531  0.0302 -0.1949
18817W        W37021   9.226   9.898  16.240 -0.3645 -0.1057 -0.2791
18818W        W37022   3.148   4.428   2.635  0.0112  0.1777 -0.1370
18819W        W37023   1.530   5.171   1.241  0.0797  0.1110  0.0375
18820W        W37024  12.292  10.533   3.245 -0.1237  0.2824  0.1815
18821W        W37025   5.374  14.669   2.406  0.0053  0.0324  0.0150
18822W        W37026   3.071   5.299   3.009  0.1343 -0.1375 -0.2015
18823W        W37027   0.970   8.645   2.605 -0.2275 -0.2921 -0.3480
18824W        W37028  14.759   1.939   4.061 -0.1135  0.0962 -0.1035
18825W        W37029   1.300   5.474   0.161 -0.2535 -0.0785  0.2123
18826W        W37030   7.520   4.028   1.946 -0.2594  0.0243 -0.0913
18827W        W37031   5.094  12.630  15.522  0.2320  0.0517 -0.0470
18828W        W37032  11.076  16.118  16.857 -0.2019 -0.1815 -0.3485
18829W        W37033  14.944   3.188  16.143  0.0574  0.0675 -0.5910
18830W        W37034   5.922  16.049   2.961  0.0247 -0.1539 -0.0654
18831W        W37035   6.641  13.995   1.250  0.1634 -0.0128 -0.1374
18832W        W37036   7.744  10.419  17.159  0.2191 -0.0715 -0.0528
18833W        W37037   1.162   9.523   0.189 -0.2699 -0.0835 -0.2461
18834W        W37038   8.814   0.182  15.001  0.0438  0.1509  0.1474
18835W        W37039   4.536  15.421   3.477 -0.1573 -0.0443  0.1056
18836W        W37040  12.800   7.344   3.171  0.2378 -0.3060  0.4179
18837W        W37041   6.243  15.288  11.319  0.1452  0.0201 -0.1469
18838W        W37042  10.236  11.801   0.775  0.2329  0.4221  0.0983
18839W        W37043  17.228  14.534  15.831  0.1897  0.1296 -0.0169
18840W        W37044   6.558   1.774   1.438 -0.1828 -0.0892 -0.2118
18841W        W37045   6.627  17.206   4.074 -0.3284 -0.4110 -0.0423
18842W        W37046   1.326  10.072   1.407 -0.2822 -0.0858  0.2817
18843W        W37047   0.007   9.224  13.661  0.0687 -0.2743  0.0941
18844W        W37048  12.795   0.495   4.411 -0.0422  0.0015 -0.3422
18845W        W37049  13.659  11.588   2.598 -0.1258 -0.1944  0.1055
18846W        W37050   4.133  11.410   0.848  0.1854  0.0850 -0.1101
18847W        W37051   2.614   3.372  13.003 -0.1453 -0.2080  0.0247
18848W        W37052   2.392   8.510   2.206 -0.0661  0.0059 -0.0048
18849W        W37053   1.918  12.098  14.882  0.0637  0.0410  0.1305
18850W        W37054   1.844   0.567  15.495 -0.0208 -0.1465 -0.2131
18851W        W37055  16.310  15.210  13.402 -0.1799  0.0999 -0.1385
18852W        W37056  12.938  13.742  15.205 -0.0283 -0.0157 -0.2365
18853W        W37057  12.412   1.508   4.467  0.0587  0.1143  0.0739
18854W        W37058  17.237   6.997   5.059 -0.1130  0.0068  0.0983
18855W        W37059  16.490  16.599  11.780  0.1943  0.2521 -0.0373
18856W        W37060  12.914  13.684   3.552 -0.0120 -0.2150  0.2719
18857W        W37061   9.395  16.136   0.881 -0.2293 -0.0797 -0.0018
18858W        W37062  13.104   5.972   5.117  0.1286 -0.0832 -0.1726
18859W        W37063   3.407   7.840   2.720 -0.1189 -0.1122 -0.0193
18860W        W37064   1.512   6.918   4.397  0.0667  0.0279 -0.0800
18861W        W37065  16.974   2.500   5.189 -0.0322  0.3938 -0.2476
18862W        W37066  17.254  12.812  11.751 -0.1157  0.0412  0.4137
18863W        W37067   7.680   1.509   1.064  0.2586 -0.1035  0.0082
18864W        W37068  15.949   4.325   3.401 -0.0151  0.0475  0.1234
18865W        W37069   7.960  13.700   3.621  0.0373 -0.0035 -0.0071
18866W        W37070   3.720  16.163  13.381  0.1002 -0.4006  0.1200
18867W        W37071   8.486   3.557   3.065 -0.0128  0.1118  0.2346
18868W        W37072   9.878  14.543   0.986 -0.2851  0.0512 -0.6660
18869W        W37073   3.288  14.311  17.091  0.1772  0.1210 -0.2592
18870W        W37074  13.970   1.480  15.294  0.0767  0.0788  0.1416
18871W        W37075  11.494  13.281  13.377 -0.1521  0.1054  0.2956
18872W        W37076  16.127   8.236  11.264  0.0261  0.1299  0.1092
18873W        W37077  15.505   8.375   3.775  0.3235 -0.0457  0.2516
18874W        W37078   1.559   7.668   2.897  0.1410 -0.1518  0.2161
18875W        W37079   3.395   5.376   2.504  0.0104 -0.0034  0.2261
18876W        W37080  17.508   6.953  13.179 -0.1089  0.0293  0.0300
18877W        W37081   3.563   8.102   3.093  0.0269  0.0529 -0.2805
18878W        W37082   6.117  17.044   1.635 -0.1306  0.0269 -0.4213
18879W        W37083   5.598   6.566  15.547 -0.1562 -0.0458 -0.0317
18880W        W37084   0.304   6.367  15.362 -0.0725 -0.1539  0.0990
18881W        W37085   3.436  16.941  15.978 -0.1962 -0.0188  0.1957
18882W        W37086   0.784  16.531   1.925  0.1681  0.0265 -0.0292
18883W        W37087  14.146  14.895  16.881  0.1905  0.3167 -0.0463
18884W        W37088  11.793   8.392  15.300  0.1479 -0.1439  0.2935
18885W        W37089  10.133  12.199   2.127  0.1339 -0.1307 -0.0163
18886W        W37090   7.089  12.321   2.870  0.0330 -0.1379 -0.2336
18887W        W37091  15.979  14.736   2.256 -0.0053  0.1131 -0.3877
18888W        W37092   2.924   8.971  13.748 -0.3931  0.1175 -0.0764
18889W        W37093  13.039   9.810   2.153 -0.0067 -0.5667 -0.1561
18890W        W37094  17.042   7.764  13.249 -0.1131 -0.1062 -0.0398
18891W        W37095  17.416   2.243  14.110 -0.2771 -0.1004  0.2525
18892W        W37096   5.092   5.631   0.654  0.0653 -0.1725  0.2439
18893W        W37097  17.541  10.043   2.614  0.0828 -0.0934 -0.2897
18894W        W37098  11.309  13.684   0.724  0.0288 -0.1957  0.2918
18895W        W37099   0.395  11.117   3.549  0.4011  0.1079 -0.0896
18896W        W37100   0.019   7.099   2.460 -0.1097  0.0962  0.1473
18897W        W37101   1.660  16.332  14.759 -0.1043 -0.0702 -0.0013
18898W        W37102   5.615   2.416   0.873  0.0274 -0.2029 -0.0624
18899W        W37103  17.489  12.339  14.274  0.3304  0.0173 -0.1499
18900W        W37104  15.987  13.380   4.548  0.1357  0.2761  0.2125
18901W        W37105  11.481   7.994  14.905 -0.2246 -0.0664 -0.3229
18902W        W37106  15.064  11.525   1.383 -0.2624  0.0114 -0.2680
18903W        W37107   9.922  10.312  14.676 -0.1729  0.2906 -0.0860
18904W        W37108  11.445   1.045  15.077  0.0540 -0.1304  0.0669
18905W        W37109   7.894  13.663  12.661 -0.2196 -0.2910  0.0812
18906W        W37110   4.237  11.948   2.580 -0.0722  0.1377 -0.1533
18907W        W37111   2.495  10.001  15.232  0.4297 -0.2104  0.0687
18908W        W37112  15.186  11.351   4.959 -0.3197 -0.2213  0.1068
18909W        W37113  12.238   1.763   5.259  0.3450  0.0885  0.2873
18910W        W37114   5.874  10.898  15.569 -0.0073 -0.0984 -0.0538
18911W        W37115   5.728   7.576  15.625  0.2264  0.3160 -0.0327
18912W        W37116  14.790   8.300  16.872  0.0766 -0.1610  0.0847
18913W        W37117  17.256  14.634  12.569  0.1088 -0.2036  0.2488
18914W        W37118  13.116   5.601  12.264 -0.3556 -0.0590 -0.1913
18915W        W37119   5.786   1.766  12.897 -0.0382  0.0742 -0.1438
18916W        W37120   6.428  15.982  13.231 -0.1516  0.5484  0.0362
18917W        W37121   6.209   6.488   0.237 -0.0383 -0.3052 -0.0747
18918W        W37122   7.708  16.272  16.806 -0.0318 -0.1066  0.3108
18919W        W37123   4.037  16.168  16.219 -0.2163  0.1767 -0.1433
18920W        W37124  14.190  14.586  13.291  0.0508 -0.2757 -0.0287
18921W        W37125   1.905  16.079   1.003  0.0064  0.1216  0.0513
18922W        W37126   6.906  14.492  13.515 -0.1097 -0.1303  0.4522
18923W        W37127  12.978  13.655   0.344  0.1342 -0.0333  0.3256
18924W        W37128   9.354  10.301  15.975  0.0746 -0.1025 -0.0214
18925W        W37129  16.016  17.047   2.770  0.1836  0.1280 -0.0128
18926W        W37130   3.179   7.143   5.135 -0.2340 -0.1086  0.2610
18927W        W37131  12.764  14.609   2.233  0.0564 -0.0315 -0.1917
18928W        W37132  14.570   3.627  14.552  0.0133  0.2012 -0.2512
18929W        W37133   4.305  13.007   4.517 -0.0135 -0.1110  0.1541
18930W        W37134  13.319   0.267  17.068  0.2029  0.1142 -0.1627
18931W        W37135   6.470   6.041   0.292 -0.2539  0.1121  0.0033
18932W        W37136   5.268  15.058   4.944  0.0738 -0.1052 -0.1123
18933W        W37137   8.848  12.723  12.243  0.2032 -0.2656  0.2360
18934W        W37138   5.163  16.164   3.429  0.0400  0.2622  0.0880
18935W        W37139  13.478  10.260   3.992 -0.0068 -0.1641  0.1494
18936W        W37140   6.258  14.320   6.222 -0.0279 -0.0753  0.0748
18937W        W37141   9.264   8.695   4.846 -0.1109 -0.1521  0.2215
18938W        W37142  14.142   5.395   2.586 -0.0200  0.0027  0.2319
18939W        W37143   7.386  12.019  13.333 -0.1464  0.1381 -0.0968
18940W        W37144   7.586   5.542  15.461  0.1327  0.0002  0.1469
18941W        W37145  13.854   4.183   2.123  0.0913  0.2168 -0.3881
18942W        W37146   7.110   5.476   2.842 -0.0537  0.1770 -0.0933
18943W        W37147  13.106   8.566  12.799  0.1948  0.0222 -0.1681
18944W        W37148  16.127  14.311   6.116  0.0077 -0.0253  0.0097
18945W        W37149   0.022   8.168  16.641  0.0580  0.0298  0.0376
18946W        W37150   1.119  12.721  13.852 -0.4280  0.2129 -0.1569
18947W        W37151  16.244  13.296  15.257 -0.3071  0.1296  0.1475
18948W        W37152  11.744   3.943  12.931 -0.2469 -0.2782 -0.2182
18949W        W37153   3.822   4.078  15.469  0.0700 -0.0217 -0.0811
18950W        W37154  13.957  14.136   3.747 -0.2150 -0.0494  0.2233
18951W        W37155   0.231   6.500  12.164 -0.0708 -0.4722 -0.3625
18952W        W37156   5.442   1.173   2.669  0.2638  0.3281  0.0396
18953W        W37157   9.925  13.959   1.723  0.2593  0.0571  0.4418
18954W        W37158   7.134   5.230   1.950  0.0762 -0.0690  0.0826
18955W        W37159   7.112  11.635  13.634  0.0300  0.0495  0.2696
18956W        W37160   3.727   7.111   5.229  0.2753 -0.0371  0.2194
18957W        W37161   6.509   8.868   3.843 -0.0808 -0.3004  0.0448
18958W        W37162   1.495   3.811  13.117  0.2001  0.1192 -0.0741
18959W        W37163  11.029   8.552   0.657  0.1667  0.4423  0.3287
18960W        W37164   9.201  14.713  12.651 -0.0300  0.1496  0.1524
18961W        W37165   5.695  14.946  12.766 -0.0247 -0.3987  0.0031
18962W        W37166  13.187  10.597   3.493 -0.3199  0.1020 -0.2057
18963W        W37167   5.985   2.146  13.129 -0.2539 -0.2033 -0.2712
18964W        W37168   6.684  13.861   2.734 -0.0013 -0.0590 -0.1408
18965W        W37169  14.206  15.295  14.044 -0.0548 -0.3486 -0.1716
18966W        W37170  15.523   4.159   4.297  0.0793  0.0503 -0.3494
18967W        W37171   3.635  14.689  14.821  0.1764 -0.1049 -0.1904
18968W        W37172  16.389   5.259  12.752 -0.3220  0.0738 -0.0496
18969W        W37173  17.378  15.163  13.390 -0.1565  0.1693 -0.1314
18970W        W37174   0.097  14.840   4.001  0.3556 -0.0148  0.1065
18971W        W37175   8.489  11.450   2.184 -0.2923 -0.0682 -0.0423
18972W        W37176   1.936  16.819   4.004  0.3704 -0.1607  0.1846
18973W        W37177  11.949  13.052  14.450 -0.0928  0.0501  0.0551
18974W        W37178   8.827  16.915   0.862 -0.3313 -0.0680  0.1291
18975W        W37179   8.574   8.214  14.564  0.0841 -0.3304 -0.0012
18976W        W37180   7.383  11.542  13.182 -0.1453 -0.1212  0.0456
18977W        W37181   5.701  11.540   3.885 -0.1768 -0.1135  0.1981
18978W        W37182   1.840   2.372   0.584 -0.3085  0.0219 -0.2177
18979W        W37183   2.490   3.918  16.541  0.0684  0.1816  0.0745
18980W        W37184   4.187   7.209   1.323 -0.2828 -0.0404 -0.0560
18981W        W37185   9.935   8.335   0.984  0.1409 -0.2850  0.0188
18982W        W37186   6.891  11.865  13.231 -0.0039  0.0956 -0.4602
18983W        W37187  14.680  17.428  16.767  0.1237  0.1612  0.3551
18984W        W37188   6.054  12.213  16.200  0.0246  0.1299 -0.2545
18985W        W37189  11.618  15.671  14.878  0.1128 -0.0955  0.1176
18986W        W37190   3.346  10.735  12.979  0.1276  0.1506 -0.2928
18987W        W37191  15.710  16.982  13.787  0.0638 -0.3920  0.0236
18988W        W37192   7.757   8.307  16.550  0.1036 -0.1051 -0.0318
18989W        W37193  15.601   0.370   3.018 -0.1522 -0.0017 -0.1629
18990W        W37194  13.902  13.095  11.999  0.1321 -0.1809  0.1341
18991W        W37195  10.113   7.087  14.397 -0.4898  0.1427 -0.1370
18992W        W37196  15.837   7.108   2.980 -0.0515  0.2555 -0.3060
18993W        W37197   7.497   9.481  13.208  0.1754 -0.4001  0.0110
18994W        W37198   8.258   3.707  16.154  0.3007  0.0946 -0.3211
18995W        W37199   5.471   2.106  12.290  0.1432  0.4669  0.0332
18996W        W37200   8.360  12.173   3.448  0.2756  0.0434 -0.1346
18997W        W37201  12.508   5.688  15.026  0.2308 -0.1019 -0.0734
18998W        W37202   9.411   4.019  16.916  0.4698 -0.1187 -0.1161
18999W        W37203   1.320  11.688  14.630  0.2790 -0.0285  0.0749
19000W        W37204   1.328   0.228   2.731 -0.0422 -0.4309 -0.0341
19001W        W37205  12.162   1.778  17.054  0.3160 -0.0347  0.2136
19002W        W37206  10.883  16.461   4.737  0.5210  0.2815 -0.2043
19003W        W37207  16.685   1.401  14.703 -0.1066  0.1969 -0.2488
19004W        W37208   7.597   9.367   3.665 -0.1682 -0.1219 -0.2376
19005W        W37209   9.385   2.502  13.351  0.1129  0.0659  0.0294
19006W        W37210   1.200   5.350   4.797  0.0081 -0.1838 -0.1900
19007W        W37211   0.459   3.330   3.127  0.1580 -0.3293 -0.1009
19008W        W37212  13.431  14.391  13.968 -0.1299  0.0042 -0.0769
19009W        W37213   6.513  14.871   2.947  0.1688  0.1880  0.1815
19010W        W37214  17.201   7.493  15.083  0.5020 -0.1148  0.3641
19011W        W37215  14.604  12.191   1.911  0.1156 -0.1213  0.0467
19012W        W37216   2.346   1.052   2.605 -0.0596  0.1689  0.3357
19013W        W37217   0.519   5.202  16.508  0.0346  0.0562 -0.0278
19014W        W37218   9.354   2.130  17.052 -0.2435  0.0048 -0.1135
19015W        W37219  16.343   1.130   0.001 -0.1066 -0.2188  0.2210
19016W        W37220   9.457  14.754   0.124  0.0154 -0.0976  0.1152
19017W        W37221  12.273   3.176   2.022  0.1688 -0.0990 -0.1408
19018W        W37222   2.183   2.737   0.574  0.3025 -0.1203  0.2733
19019W        W37223   7.173   0.271   4.104  0.0497 -0.2454  0.2705
19020W        W37224   3.630   4.013  13.332  0.1939  0.0268  0.0255
19021W        W37225  11.112  12.369   4.682  0.1217  0.0847 -0.0667
19022W        W37226   2.553  16.546   0.122 -0.0599 -0.1104 -0.0271
19023W        W37227  12.771  12.831   2.532  0.2410  0.1700  0.0164
19024W        W37228  10.493   9.048   2.846 -0.1636 -0.1077 -0.1976
19025W        W37229   3.971   4.659  16.090  0.1736  0.0972 -0.1530
19026W        W37230   1.821  13.134   3.909  0.0641 -0.1236  0.3016
19027W        W37231  15.818  10.050   2.502 -0.1387  0.0035 -0.1605
19028W        W37232  16.940   0.897   1.795 -0.1566 -0.0028  0.1210
19029W        W37233   6.759   4.875  14.463  0.1505  0.6124  0.0173
19030W        W37234   6.982  13.244  11.140  0.0160  0.3475  0.0801
19031W        W37235   8.655   2.639   0.576  0.3246 -0.0219  0.2671
19032W        W37236  15.448  13.793   4.809  0.0632  0.0272 -0.0336
19033W        W37237   3.884   2.808  13.912 -0.3779  0.0927  0.2753
19034W        W37238   1.629   7.763   0.362 -0.1461  0.3119  0.1959
19035W        W37239  13.084  13.024  12.421  0.1394  0.1302  0.1760
19036W        W37240  17.122   1.276  17.196 -0.1700  0.0484  0.1739
19037W        W37241   8.968   4.922   2.603  0.2647  0.2040 -0.0614
19038W        W37242  12.382   1.987  16.052  0.3431  0.1729  0.2372
19039W        W37243   7.573  12.825  15.975 -0.2836 -0.3534  0.1169
19040W        W37244   2.594  16.914  17.060  0.0460 -0.0717 -0.2333
19041W        W37245   5.324  12.537   0.986  0.0564 -0.0846 -0.0788
19042W        W37246   6.363   5.732   3.895  0.2021 -0.1386  0.0276
19043W        W37247   3.275   2.112   0.085 -0.1122 -0.2081 -0.0393
19044W        W37248   1.420   7.443  13.737  0.4572  0.2878  0.1766
19045W        W37249   4.211   7.249  16.138  0.0212  0.0177  0.2343
19046W        W37250  12.167   3.048  17.225 -0.4202 -0.2275 -0.0183
19047W        W37251  11.000   4.822  16.583  0.1186 -0.0435  0.0908
19048W        W37252   9.823  10.095  12.069 -0.0463 -0.0858 -0.1284
19049W        W37253  16.439   5.693  15.743 -0.0350 -0.1490 -0.0615
19050W        W37254  15.591  11.977  14.608  0.1511  0.2954  0.3968
19051W        W37255   4.775  11.396   3.836  0.1574 -0.0058 -0.3465
19052W        W37256  17.218   2.894   1.803 -0.2214  0.2857  0.0645
19053W        W37257   5.274  16.911  15.697 -0.3648 -0.1476 -0.1831
19054W        W37258   4.073   9.093  11.931 -0.2428  0.0367  0.1240
19055W        W37259   1.393  16.714   2.708  0.2335 -0.0721  0.2105
19056W        W37260   5.059   9.734   4.452 -0.3962 -0.1886  0.0206
19057W        W37261  12.619  16.677   2.605 -0.2104  0.0427 -0.0556
19058W        W37262   9.811   4.378  14.609  0.0024  0.3229 -0.0282
19059W        W37263  13.498   0.332   1.545  0.2669  0.0562  0.2790
19060W        W37264   3.426   7.242   0.170 -0.2331  0.1629  0.0435
19061W        W37265  10.006  17.425  13.724  0.1759 -0.0063 -0.2074
19062W        W37266  11.649   6.916  12.829  0.1787  0.1899  0.0208
19063W        W37267   9.243   0.192   3.510  0.2042  0.0363  0.0377
19064W        W37268  15.300   4.633  16.334 -0.0223 -0.2924  0.0239
19065W        W37269   9.119  12.685   2.846 -0.0027  0.0174  0.0475
19066W        W37270  11.221  16.853   0.946 -0.2580 -0.2633  0.4712
19067W        W37271  14.213   0.438   0.525 -0.0504  0.3497 -0.2424
19068W        W37272  12.907   6.034   2.935  0.0592 -0.0493  0.0843
19069W        W37273   3.577  11.341   4.217 -0.0449  0.0952  0.1447
19070W        W37274  16.073   1.242  16.036 -0.2178 -0.0540 -0.0190
19071W        W37275  14.510   0.526   1.921 -0.1487  0.2379 -0.4328
19072W        W37276   8.529   0.834   2.443 -0.3478  0.0860  0.0384
19073W        W37277  15.645   7.694   4.858 -0.1855 -0.0748  0.2190
19074W        W37278   3.568   2.497   3.170  0.0560  0.0687  0.1569
19075W        W37279   1.277   7.765  15.389 -0.2272  0.1422  0.1186
19076W        W37280   0.775   7.555  15.572  0.0169  0.0840 -0.0439
19077W        W37281  12.673  13.545  15.634  0.1281 -0.0301  0.2974
19078W        W37282  14.757  12.541  12.646  0.2115  0.0472 -0.0147
19079W        W37283   8.422  16.692   4.088  0.0716 -0.1709 -0.0685
19080W        W37284  12.843  15.708  14.072 -0.2715 -0.0459 -0.1866
19081W        W37285   2.383   4.211   2.475  0.1551  0.2283 -0.0164
19082W        W37286   4.211  13.225  14.148  0.0637  0.2095  0.3752
19083W        W37287   0.442   9.476  15.329 -0.1271  0.1356  0.0156
19084W        W37288   1.959   8.671   2.350  0.4036  0.0652  0.1243
19085W        W37289   7.079  13.055   2.404  0.0882 -0.2565 -0.0005
19086W        W37290  15.407  14.564  16.953  0.1417  0.0728  0.1625
19087W        W37291  15.448  11.988   2.095  0.1208 -0.0056 -0.1338
19088W        W37292  16.665  11.550  12.204 -0.0703 -0.0948 -0.0302
19089W        W37293  13.548  12.034   4.497  0.0733  0.5729 -0.3534
19090W        W37294  11.166  11.126   4.331 -0.1627 -0.0684 -0.0150
19091W        W37295   5.636   1.851   1.841  0.1276 -0.0861  0.0499
19092W        W37296  16.217  16.497  12.905 -0.2202 -0.0345  0.0636
19093W        W37297   0.260  10.691   2.320 -0.0083 -0.0388  0.1822
19094W        W37298   3.800   4.314  14.235 -0.0873  0.2321 -0.0048
19095W        W37299   8.949   5.027   0.612  0.1373  0.2652  0.2187
19096W        W37300  13.609   8.938   1.037  0.0166  0.1677 -0.1823
19097W        W37301   8.685   2.122   0.513  0.1698 -0.3779  0.0640
19098W        W37302   1.460   9.683  12.917 -0.0881  0.1953 -0.3066
19099W        W37303  11.330   1.869   0.176 -0.2325 -0.4446  0.3062
19100W        W37304   3.890   5.248   4.202  0.0271 -0.2932  0.2050
19101W        W37305  15.264  13.837   0.432  0.0115  0.1215  0.2408
19102W        W37306   2.981   2.708  14.109  0.0328  0.4741  0.3301
19103W        W37307  17.260   7.785   1.645 -0.0520  0.0312  0.0379
19104W        W37308   3.438  10.404   2.913  0.0365 -0.0808 -0.3278
19105W        W37309  13.336   6.652  11.852  0.1844 -0.0923 -0.0991
19106W        W37310  12.890   5.974  13.643  0.4467  0.2146  0.1007
19107W        W37311   8.352   9.244  14.632  0.3612  0.1803  0.0096
19108W        W37312   7.232   4.566  12.241 -0.1765  0.1713  0.0113
19109W        W37313  16.167   2.816   1.025 -0.0800  0.0700  0.0897
19110W        W37314  13.887  10.376  14.873  0.0245 -0.0474  0.0077
19111W        W37315  15.475   8.777  16.461 -0.1281 -0.1049  0.1321
19112W        W37316   5.945  11.964  15.800 -0.2035  0.1927  0.1510
19113W        W37317  12.508  10.613   4.605 -0.3209  0.0972 -0.0015
19114W        W37318   3.434   3.372   2.722  0.2060  0.1118 -0.1113
19115W        W37319   9.566  12.570  14.450 -0.1206  0.3767  0.0256
19116W        W37320  17.118   7.159   1.431  0.0055  0.1127 -0.1133
19117W        W37321   9.333  10.433   4.859  0.0066 -0.0703 -0.1012
19118W        W37322   7.626  13.930  15.727 -0.0316  0.0276  0.0356
19119W        W37323   3.170   0.891  14.904 -0.1426 -0.2633  0.0021
19120W        W37324   8.046   1.323   3.765 -0.0756 -0.0745 -0.0121
19121W        W37325   4.226   1.266   2.239  0.0751 -0.0131  0.2379
19122W        W37326  16.942   9.421  12.868 -0.1018 -0.0925 -0.0027
19123W        W37327   1.518  14.927  15.943  0.2775  0.2668  0.0072
19124W        W37328  14.589  11.500   2.761 -0.0195  0.0480 -0.2233
19125W        W37329   4.232  16.572   1.494  0.1842 -0.1442  0.1014
19126W        W37330  14.635   3.448  13.136 -0.0443 -0.0016  0.2529
19127W        W37331  10.203  12.987   1.544  0.0418 -0.1131 -0.0521
19128W        W37332  10.572   2.429   1.137  0.1854 -0.0407  0.0053
19129W        W37333   7.797  14.244   4.989  0.0229  0.0821  0.0554
19130W        W37334  11.939  16.571   0.153 -0.2524 -0.1301 -0.2097
19131W        W37335  11.773  11.678   5.698 -0.3373 -0.0656 -0.2211
19132W        W37336   4.490   7.818  14.138  0.1296 -0.2963  0.1071
19133W        W37337   4.506  10.913  12.607  0.0769 -0.2955  0.1089
19134W        W37338   7.485   1.996  17.097  0.1152 -0.0298  0.3560
19135W        W37339   5.890  12.154  14.161  0.0405  0.4139  0.0100
19136W        W37340  10.403  11.180  15.775  0.0906  0.0163  0.1339
19137W        W37341  14.143   8.003  12.140 -0.0597  0.1006 -0.1945
19138W        W37342   4.160   3.577  12.483 -0.2216  0.0411 -0.2347
19139W        W37343   6.322   0.099   4.117 -0.0337 -0.0328  0.0537
19140W        W37344  15.044  15.894  16.182 -0.0578 -0.0358 -0.0143
19141W        W37345   6.178   2.710  13.020  0.4201 -0.2224  0.0433
19142W        W37346   3.711   3.700  16.799  0.0897 -0.0954  0.0572
19143W        W37347   6.532   4.869   1.658 -0.0067  0.0217  0.0243
19144W        W37348   3.347   3.952   2.742  0.0169  0.1701  0.1457
19145W        W37349   6.471   8.928   5.391  0.0074  0.2193 -0.1778
19146W        W37350   9.976   6.268   5.738 -0.1168  0.1511 -0.2685
19147W        W37351  14.015  14.391  12.862  0.0142  0.3841  0.3253
19148W        W37352  10.015   8.170   3.720 -0.1305  0.0156  0.0793
19149W        W37353  13.037   9.730   3.321 -0.2254 -0.1544  0.0626
19150W        W37354   7.717  15.472  14.422 -0.1310 -0.1705  0.1883
19151W        W37355   2.515  13.825  14.002  0.1366 -0.0963  0.3413
19152W        W37356   7.152   5.894   1.600 -0.1023 -0.1951  0.3403
19153W        W37357  16.180  11.299   2.384  0.2140 -0.2377 -0.0209
19154W        W37358  11.447   8.854   4.963 -0.3010  0.1633 -0.1274
19155W        W37359   9.893   7.343  12.965  0.0861  0.1317 -0.2374
19156W        W37360  11.836  11.696   3.918  0.1205  0.0055 -0.0095
19157W        W37361  15.133  12.986   4.454  0.2667 -0.0201 -0.1125
19158W        W37362   5.077   8.923  16.393  0.3796  0.4998  0.3339
19159W        W37363  10.350   6.302   0.374 -0.1345 -0.0621 -0.1174
19160W        W37364   1.239   0.784  16.309  0.1935  0.0952 -0.2463
19161W        W37365  10.817   2.645  14.495  0.0429  0.0107  0.0607
19162W        W37366   7.521   7.512  12.668 -0.0952  0.4142  0.0558
19163W        W37367  13.593  12.972  14.835  0.1738 -0.2239  0.2075
19164W        W37368  10.279  11.802   1.315  0.1311 -0.0507 -0.3298
19165W        W37369  16.039   8.780   2.770  0.0215 -0.0494  0.0279
19166W        W37370   7.488   0.347   4.858 -0.4570  0.2497  0.1713
19167W        W37371   7.660   2.516  14.020 -0.1066  0.1522 -0.0399
19168W        W37372  11.905   8.590   2.961  0.0466 -0.2660  0.0661
19169W        W37373   2.965   5.499  16.642 -0.0803  0.0827 -0.1013
19170W        W37374   8.519   5.724  16.434  0.4107  0.0275 -0.2079
19171W        W37375   9.105   2.976   0.273  0.1489  0.2606 -0.1895
19172W        W37376   5.499  13.064  14.118 -0.0431 -0.1047 -0.1827
19173W        W37377   8.436   6.500  13.379  0.2718 -0.1888 -0.0096
19174W        W37378   9.978  15.907  15.460 -0.1150  0.1244 -0.2538
19175W        W37379  14.291  16.603   0.766 -0.0503 -0.0783 -0.1527
19176W        W37380   6.673   0.419  17.285  0.2219  0.0827 -0.1403
19177W        W37381   1.911   3.046  14.890  0.1746  0.0267  0.1645
19178W        W37382   0.579   2.473   1.708 -0.0214 -0.2621 -0.0027
19179W        W37383   9.451   4.031  14.676  0.2019  0.0194 -0.1305
19180W        W37384  11.158  15.186  15.087  0.0633 -0.1766  0.2867
19181W        W37385   7.288  15.376   2.525 -0.3869 -0.1139 -0.0830
19182W        W37386  10.777   4.829   0.424 -0.1428 -0.1426  0.1223
19183W        W37387   0.063  11.182   2.202  0.0671 -0.2513 -0.1306
19184W        W37388  12.014   7.486   1.014 -0.1140 -0.0158  0.1313
19185W        W37389   5.201   8.031  16.549  0.1019 -0.0702  0.3281
19186W        W37390   2.392   8.426   0.207  0.1465 -0.1753  0.0686
19187W        W37391   6.483  15.178  11.896 -0.1015  0.0894 -0.1086
19188W        W37392   8.788   2.239  13.284  0.1938 -0.1258  0.2734
19189W        W37393   0.733  13.452   0.363 -0.0060  0.1211 -0.3731
19190W        W37394  13.485  13.810   2.195 -0.3281  0.2136  0.5322
19191W        W37395  12.090   5.934   4.037  0.3219 -0.2349 -0.0771
19192W        W37396  13.468  10.999  13.209  0.1184  0.0517 -0.1402
19193W        W37397  15.890   9.519   3.314 -0.0709 -0.2288 -0.1058
19194W        W37398   7.015   0.326   1.204  0.2084 -0.3314 -0.0849
19195W        W37399  11.142   6.153   3.969 -0.1042 -0.3409 -0.1785
19196W        W37400   8.503  15.206  12.897  0.2362  0.2011 -0.0081
19197W        W37401   3.467   9.737  13.734 -0.2078  0.0746  0.1319
19198W        W37402  10.930  16.575   4.199 -0.0944  0.2379  0.1965
19199W        W37403   5.644   4.154   0.898  0.0585 -0.4602  0.3631
19200W        W37404   6.268  16.665   6.127 -0.1706  0.2364 -0.3858
19201W        W37405   1.431  15.591   2.913 -0.3608  0.1842  0.0270
19202W        W37406  10.711  11.626  14.892  0.0940 -0.0138  0.1532
19203W        W37407  16.852  14.722  12.115  0.0740 -0.0395 -0.0335
19204W        W37408  10.912  16.274   3.635  0.1793 -0.0274 -0.1712
19205W        W37409   5.415   7.089   2.239  0.2960 -0.2551  0.0762
19206W        W37410   7.234  12.783   1.534  0.0246  0.0835 -0.1797
19207W        W37411   2.996  12.071  12.448  0.0806 -0.1310 -0.2914
19208W        W37412  13.190   7.834  12.214 -0.0570 -0.2196  0.1585
19209W        W37413  13.876   3.310  17.137  0.0675 -0.0639  0.3313
19210W        W37414  13.424  15.132  15.626 -0.2496 -0.0603  0.3132
19211W        W37415   0.764  13.275   2.497 -0.0683 -0.1043 -0.0272
19212W        W37416   0.510   4.862   3.688  0.0798 -0.0766  0.1291
19213W        W37417   9.028   0.623   0.804  0.1554  0.1121  0.1742
19214W        W37418  10.008  11.678  13.879  0.1768 -0.1063  0.1692
19215W        W37419   6.693  14.701  16.198 -0.0681  0.1274  0.1938
19216W        W37420  16.392  14.961   5.692  0.0703 -0.0637  0.0792
19217W        W37421   6.474  16.396  11.094 -0.0585  0.3328 -0.0564
19218W        W37422   4.411   0.106  14.871  0.2158 -0.1091 -0.3737
19219W        W37423  16.561   9.362  16.242  0.1869 -0.0592  0.0883
19220W        W37424   6.078  10.809   1.432  0.1834 -0.0428  0.1290
19221W        W37425   7.719   1.419   0.582 -0.0953  0.0455  0.4181
19222W        W37426   7.130  13.733   1.004  0.2540  0.0560  0.0797
19223W        W37427  15.707  14.442   1.164 -0.1867 -0.3120  0.2131
19224W        W37428   5.337   7.736   4.236 -0.0165  0.0993  0.0814
19225W        W37429  13.559  17.432  14.036  0.0368  0.1285 -0.2798
19226W        W37430   5.847   2.445   4.427  0.0665  0.3027  0.0688
19227W        W37431   5.787  10.553   4.594  0.1337  0.0581  0.1605
19228W        W37432  14.977   6.428  12.182  0.0801  0.3337  0.1197
19229W        W37433  11.365   2.172  14.049  0.0110  0.0872 -0.2355
19230W        W37434   9.546   8.525   1.297  0.2467 -0.0880  0.1459
19231W        W37435   8.274   1.012   2.840 -0.0834  0.0012  0.1096
19232W        W37436  12.245   5.322  12.832  0.2549  0.1431  0.0552
19233W        W37437  12.526   5.985  13.981 -0.0004  0.0311 -0.1858
19234W        W37438  10.984   6.865  13.873 -0.1126  0.3322  0.2516
19235W        W37439   7.515   4.932   1.767 -0.5178  0.0790 -0.4096
19236W        W37440  12.317  14.553   3.165 -0.0749  0.2363  0.3816
19237W        W37441  12.532   2.421  16.129 -0.0595  0.1388  0.2068
19238W        W37442  11.589   6.798   4.467  0.0146 -0.0891 -0.0540
19239W        W37443  13.038   5.503  14.922  0.2869 -0.1012  0.0382
19240W        W37444   9.975  14.937   2.135 -0.0466 -0.0722  0.2430
19241W        W37445   7.837  10.720   4.079  0.1852 -0.1537 -0.1814
19242W        W37446   5.097   7.282   3.961  0.0613 -0.0740 -0.0149
19243W        W37447  10.747   5.084  14.269 -0.1861  0.2149 -0.0948
19244W        W37448  12.315   9.216  13.504  0.1302  0.0511  0.4277
19245W        W37449   2.758   6.555  14.049  0.2304  0.0586  0.4640
19246W        W37450   2.416   2.616  16.237  0.2472 -0.0087  0.0063
19247W        W37451   4.231  16.345  16.967 -0.0558  0.2549 -0.1924
19248W        W37452   4.277  11.423  16.164 -0.2755 -0.1818  0.2485
19249W        W37453  13.219  16.853  15.328 -0.4053 -0.2405 -0.1929
19250W        W37454   0.087   0.363   0.161  0.4525 -0.3611 -0.1571
19251W        W37455  10.586  10.106  16.297 -0.1638 -0.1433 -0.1048
19252W        W37456   5.874   7.692  16.144 -0.1136  0.4278 -0.2302
19253W        W37457   7.050   5.011   4.732 -0.0432 -0.2838  0.2661
19254W        W37458  10.536   6.635  13.553  0.1901  0.2149  0.1035
19255W        W37459   9.272   8.104  14.009  0.0012  0.0684 -0.1216
19256W        W37460  13.015  12.211   4.121  0.1860 -0.0309 -0.0327
19257W        W37461   1.467  11.031  14.074  0.1595  0.0347 -0.0027
19258W        W37462  13.181   7.359   3.636  0.0225 -0.3132 -0.1925
19259W        W37463   6.673   8.788  13.276 -0.1571  0.0036 -0.0605
19260W        W37464  17.111   8.937   0.558  0.1174 -0.3262 -0.1690
19261W        W37465   0.126  10.548  16.479  0.1123 -0.0822  0.3490
19262W        W37466   2.721   9.299  14.226  0.0819  0.3953 -0.0603
19263W        W37467   1.223   3.642  15.048 -0.1411  0.0971 -0.1496
19264W        W37468  11.212   5.945   3.488  0.1853 -0.2416  0.0919
19265W        W37469  13.986  10.234  12.716  0.2493 -0.0417 -0.2418
19266W        W37470   1.559   6.226   4.885 -0.1608  0.3357 -0.0561
19267W        W37471  10.196  14.726  12.835 -0.1300 -0.1352 -0.2402
19268W        W37472   8.835   5.071   3.697 -0.2017  0.3640 -0.2890
19269W        W37473   8.460   7.091  15.432 -0.0806 -0.2206 -0.3082
19270W        W37474   6.820  10.636  14.625  0.4456  0.1952 -0.0748
19271W        W37475  15.810   0.778   3.835 -0.1584 -0.0031  0.3996
19272W        W37476   0.642   9.397   2.098 -0.3040 -0.1936  0.0977
19273W        W37477  11.230   8.027   2.876 -0.0416 -0.2871  0.2032
19274W        W37478   8.683   7.396  17.183  0.2530 -0.1358  0.0741
19275W        W37479   7.523  13.978  14.189  0.2685 -0.0872 -0.1576
19276W        W37480   4.914   1.120  15.163  0.0030 -0.0798  0.0585
19277W        W37481  16.404   4.482  16.163  0.4150  0.1502 -0.0727
19278W        W37482   5.225   2.398   3.480 -0.1261  0.3391 -0.3517
19279W        W37483   4.034  16.079  12.378 -0.1181 -0.0130 -0.0157
19280W        W37484   9.304  15.236   0.268 -0.1188 -0.0781 -0.0507
19281W        W37485   3.863   0.352   3.308  0.2545 -0.3611 -0.1167
19282W        W37486  12.804   7.685   3.662 -0.1121 -0.0955  0.0521
19283W        W37487  16.687   7.521   3.452  0.1670  0.1835  0.1453
19284W        W37488  12.695   4.534  15.343 -0.4135  0.2836  0.1137
19285W        W37489   7.818  16.218  14.956  0.2247 -0.1670  0.1978
19286W        W37490  13.914   7.751   2.563 -0.1179 -0.2935  0.0301
19287W        W37491   7.142   2.903  15.344 -0.0231  0.1571  0.1887
19288W        W37492   5.025  15.070   1.907 -0.0183  0.1320 -0.0945
19289W        W37493   0.360   1.202   2.192 -0.2561  0.3037  0.0870
19290W        W37494  13.117  16.447  13.586  0.4015 -0.0581 -0.1854
19291W        W37495   8.534   5.458   6.198  0.3749  0.1168  0.0705
19292W        W37496  11.661   2.191   3.295  0.2288 -0.1630  0.2324
19293W        W37497   7.765  13.972   1.669  0.1029  0.1399 -0.3384
19294W        W37498   1.339   3.908   4.440 -0.1047 -0.3710  0.0836
19295W        W37499  11.582   4.014   3.188 -0.1146  0.0142 -0.5012
19296W        W37500  16.284   8.646   3.252 -0.1358  0.0517  0.0413
19297W        W37501   3.929   8.423  16.171  0.0847 -0.3296 -0.0464
19298W        W37502   5.727   7.026   3.615 -0.2777  0.0646 -0.3950
19299W        W37503  11.974  12.070  13.167  0.0002 -0.1838 -0.3021
19300W        W37504  16.010  10.448   3.975 -0.0687 -0.1035 -0.3275
19301W        W37505   4.477  10.997   2.414  0.2071 -0.0426  0.2136
19302W        W37506  14.296   6.652   1.151  0.0951  0.3246  0.4386
19303W        W37507  14.499   9.006   2.222  0.0536  0.4163  0.0492
19304W        W37508   1.044  12.712  13.261 -0.0151  0.2147 -0.2538
19305W        W37509  12.857   8.664  16.395  0.1790  0.2449  0.1137
19306W        W37510  10.783  15.584  13.212 -0.0825  0.0015 -0.0845
19307W        W37511   8.049   3.923  16.734  0.1983 -0.2680 -0.1160
19308W        W37512  14.239   2.656   3.028  0.1117 -0.2774 -0.3823
19309W        W37513   0.612  17.516   0.653  0.1567 -0.0950 -0.0713
19310W        W37514   2.008   2.683   0.110 -0.0584  0.1017 -0.1324
19311W        W37515   2.167   3.153   1.452 -0.1700 -0.0897 -0.2018
19312W        W37516   2.312   2.558  12.209  0.1958 -0.2558 -0.1651
19313W        W37517   9.880   7.719  15.855  0.0735  0.0563 -0.1569
19314W        W37518  14.826   6.271   4.943  0.3139  0.0234  0.2468
19315W        W37519   4.730   9.174  12.576  0.0968  0.1663 -0.1541
19316W        W37520   8.548  17.241   3.222  0.0735 -0.1390  0.0262
19317W        W37521  12.436  13.757  13.239  0.2094  0.0790  0.2739
19318W        W37522  12.490   2.743  11.699  0.1611 -0.0218  0.6157
19319W        W37523   0.263  14.631  16.754  0.1365 -0.2447  0.4698
19320W        W37524  13.350   5.025  16.821 -0.0619 -0.0624 -0.0052
19321W        W37525   6.369  11.745   1.631  0.0104 -0.2390 -0.2288
19322W        W37526   8.277   0.446   2.653 -0.2013  0.1067 -0.1442
19323W        W37527   1.009   6.294   3.946 -0.4742 -0.1450  0.0619
19324W        W37528   6.443   0.583  12.503  0.1421 -0.3301 -0.5310
19325W        W37529   5.718   7.689   2.798 -0.0970 -0.1197 -0.1403
19326W        W37530   5.657  11.391  13.609  0.2096 -0.0791  0.0090
19327W        W37531   8.918   2.362   2.152  0.1912  0.1358  0.0616
19328W        W37532   2.612  10.502   0.965  0.2537 -0.1429 -0.1446
19329W        W37533  15.171   1.062  14.618 -0.0608  0.1573 -0.1729
19330W        W37534   6.401   0.475   3.660 -0.1027  0.2048 -0.0713
19331W        W37535   4.372   2.846  15.255  0.1937  0.0691 -0.0103
19332W        W37536   1.120   3.390   0.615  0.0598  0.1814  0.0935
19333W        W37537   7.686   6.618  15.754  0.2939 -0.3149 -0.0714
19334W        W37538   9.040  17.487   1.404 -0.1728 -0.1577  0.0976
19335W        W37539  17.041   3.549   4.063 -0.0778 -0.1482  0.0542
19336W        W37540  10.686   1.808  15.310 -0.2255 -0.1069  0.3454
19337W        W37541  13.834  11.628  14.157 -0.0255  0.0097 -0.1940
19338W        W37542   4.286   5.139   0.272 -0.3527 -0.2009  0.0222
19339W        W37543   4.651   3.285   3.139 -0.0837 -0.0615 -0.1116
19340W        W37544  12.842   0.947   4.014  0.3307  0.1484  0.2354
19341W        W37545  11.679  13.311  12.589  0.6034  0.2499  0.0639
19342W        W37546  14.322   5.408  12.965  0.1324  0.2569  0.0778
19343W        W37547   4.810   9.497  14.562  0.0390  0.1492  0.2435
19344W        W37548  14.615  15.092   3.382  0.1081  0.1015 -0.1409
19345W        W37549   4.127  11.547  15.605  0.0509  0.2597  0.2932
19346W        W37550  16.742   6.621   4.241 -0.4546 -0.0391  0.0666
19347W        W37551   7.316   4.936  15.471 -0.3155 -0.0174 -0.1017
19348W        W37552  13.227   3.843   1.419  0.0521 -0.1520 -0.1595
19349W        W37553   9.191   1.573   1.369  0.1403 -0.2093  0.1202
19350W        W37554  14.260   6.993  12.982 -0.0274 -0.0800  0.0048
19351W        W37555  13.342  14.499   5.992  0.0816  0.0674 -0.1468
19352W        W37556   2.034  14.761   5.169 -0.0195 -0.2633 -0.0342
19353W        W37557   4.693   9.571   1.056  0.0665 -0.0264  0.2065
19354W        W37558   4.571  17.031  13.693 -0.0366 -0.1184  0.2334
19355W        W37559   6.799   6.986  12.559 -0.0684  0.1849 -0.1757
19356W        W37560   5.996  14.389  13.510  0.4105  0.0673 -0.0250
19357W        W37561   4.154   3.771   3.236 -0.0534 -0.3180 -0.2037
19358W        W37562   5.394   0.640  14.106  0.2417 -0.0487 -0.4600
19359W        W37563   4.789  14.617   0.002 -0.1014  0.0027  0.1282
19360W        W37564   6.756  17.524   0.964  0.0277 -0.0375 -0.1191
19361W        W37565   9.134   5.009  14.707  0.0404  0.1401 -0.4992
19362W        W37566   0.851   8.061  15.623  0.1856  0.1554  0.1342
19363W        W37567   8.829   4.625   1.652  0.0566  0.1611 -0.0356
19364W        W37568   7.225  12.830   4.909  0.0273 -0.2161  0.3109
19365W        W37569   8.094  16.794   2.396  0.1718 -0.1451 -0.0252
19366W        W37570  16.406  10.032   2.476 -0.1571  0.2363 -0.0177
19367W        W37571   1.742   0.963  12.622 -0.0456  0.2980  0.0606
19368W        W37572   4.519   2.051  16.886 -0.4713 -0.0726  0.0094
19369W        W37573   3.993  14.579   1.919 -0.2650  0.2648  0.0220
19370W        W37574   6.535  10.370   1.983  0.2677 -0.1075  0.1769
19371W        W37575   9.633   4.696   4.678  0.4187  0.0788  0.2041
19372W        W37576   6.240  13.819  14.140 -0.0863 -0.2445  0.0390
19373W        W37577  16.911  12.147  14.422  0.0128 -0.0415 -0.4205
19374W        W37578  14.799   1.816   0.806 -0.2117 -0.0024 -0.1020
19375W        W37579  11.131   7.382   6.185  0.3172  0.0667 -0.2902
19376W        W37580   6.401  11.852   0.414  0.1566  0.0358  0.1675
19377W        W37581  14.263   7.666  15.561 -0.5952  0.0379  0.2660
19378W        W37582   1.106   2.907  12.693 -0.1841 -0.0571  0.1506
19379W        W37583  15.944   6.067  12.585  0.0534 -0.1639  0.5436
19380W        W37584  11.637  12.478  15.819  0.1874 -0.3182  0.0682
19381W        W37585  16.694  10.367   1.550  0.1499 -0.0414 -0.0039
19382W        W37586  13.574   5.158  17.274  0.2274 -0.1146 -0.2326
19383W        W37587   9.527   3.057  14.258 -0.1598  0.2558  0.0938
19384W        W37588  14.521   0.580  15.932 -0.2310  0.3463  0.0969
19385W        W37589   8.130   1.704   4.846 -0.2092  0.1955  0.2236
19386W        W37590   2.999   0.425   1.645 -0.0482  0.0886 -0.0395
19387W        W37591  15.896  12.503   0.576  0.2792 -0.3730 -0.1482
19388W        W37592   7.651  13.227   5.056 -0.2588 -0.2306  0.1394
19389W        W37593   2.901  16.127   3.806  0.2989 -0.0476  0.3220
19390W        W37594  12.655   6.706  14.617 -0.2365 -0.1037  0.0146
19391W        W37595  11.373  13.336   0.039  0.4686  0.3321  0.0385
19392W        W37596   9.121  14.770   1.866  0.0497 -0.1756 -0.1597
19393W        W37597   6.648  14.395  15.792 -0.0326 -0.1019  0.2827
19394W        W37598  15.351   2.678   2.076 -0.1773 -0.4363  0.0424
19395W        W37599   6.791   6.357   1.577 -0.2259  0.1369 -0.3942
19396W        W37600   1.109   7.617   3.396  0.0855 -0.2246 -0.3249
19397W        W37601  10.687   8.325   0.327  0.0183 -0.1368  0.2443
19398W        W37602   0.840   5.068   2.769  0.1735  0.1091 -0.2042
19399W        W37603   5.482  15.687   5.122  0.2035 -0.2198 -0.2886
19400W        W37604   4.099   9.997   1.305 -0.0092 -0.0315  0.1132
19401W        W37605  13.364   5.139  13.798 -0.0276  0.0213 -0.1063
19402W        W37606   6.789  11.883  14.367 -0.2631 -0.2054 -0.1320
19403W        W37607   8.825   1.305   5.864 -0.1366  0.3109  0.4023
19404W        W37608  14.927  12.541   1.571 -0.4841 -0.0590  0.1135
19405W        W37609  12.886  15.579  12.690  0.0289 -0.2380  0.2174
19406W        W37610  16.738   9.107   0.895  0.2628  0.1078 -0.1091
19407W        W37611  12.650   4.816  12.113 -0.2460 -0.0068 -0.3586
19408W        W37612  16.545   6.085  15.224  0.1455  0.0011  0.2478
19409W        W37613   7.007   6.360   2.857  0.0822 -0.1962  0.1305
19410W        W37614  13.110   0.449  12.347  0.0877  0.1620 -0.3401
19411W        W37615  10.134  12.228  11.608 -0.2029 -0.1172  0.0897
19412W        W37616  10.935  15.935   4.651 -0.1163 -0.1460 -0.2361
19413W        W37617   8.366  10.080  12.339  0.0292  0.3060 -0.3815
19414W        W37618  13.269  12.156   5.469  0.0165 -0.1178 -0.1090
19415W        W37619  10.817   9.726   4.762 -0.2565 -0.1157  0.0133
19416W        W37620  11.697  12.540   0.733  0.2261 -0.1922  0.1183
19417W        W37621  15.008   8.831  11.712 -0.0694 -0.0577 -0.1366
19418W        W37622  12.462   4.648  14.507 -0.0881 -0.3316  0.1140
19419W        W37623  11.164   3.950   3.765  0.0111 -0.6028  0.0292
19420W        W37624   8.605  11.257  12.834  0.3325 -0.0827  0.2389
19421W        W37625   1.824  16.531   2.988  0.0407  0.0740  0.2013
19422W        W37626   2.220   2.939  13.552  0.1943  0.0004 -0.1191
19423W        W37627  15.775  12.892  13.680  0.1377  0.0171  0.0165
19424W        W37628   6.493  16.395  17.247 -0.1786 -0.1284 -0.0305
19425W        W37629  14.949   0.836   0.033  0.1963  0.0825 -0.0763
19426W        W37630   0.446  12.838  12.603  0.0148 -0.1708  0.2764
19427W        W37631   3.609  10.990   2.529 -0.0214  0.0505 -0.1222
19428W        W37632   9.110  17.320  15.760 -0.2371  0.1554  0.2032
19429W        W37633   2.067   6.370  15.550  0.4508 -0.1496  0.2135
19430W        W37634   6.512  11.824   2.707  0.0159 -0.1745  0.0275
19431W        W37635  12.420  15.629   2.073  0.0282 -0.2183 -0.1091
19432W        W37636  15.013   4.463   2.266  0.0349 -0.1012 -0.0867
19433W        W37637   2.059   7.404   4.825 -0.2575  0.0483 -0.0578
19434W        W37638  14.496  13.185   3.737  0.0173 -0.3592  0.0249
19435W        W37639  10.396  13.158   0.790  0.0246 -0.1633 -0.1571
19436W        W37640  15.755  11.244  13.108  0.0655 -0.4337 -0.0633
19437W        W37641   4.686   7.652  15.378 -0.0680  0.2944 -0.0648
19438W        W37642  12.590  13.402   1.839 -0.1651 -0.0477 -0.0622
19439W        W37643  12.269   9.522   4.268 -0.1418  0.0726 -0.0290
19440W        W37644  12.957   7.370   1.802  0.0640 -0.2438  0.1803
19441W        W37645  12.931  10.289   1.414 -0.1774 -0.0560 -0.0908
19442W        W37646   4.671   0.182  13.337  0.0011  0.0508  0.2569
19443W        W37647  13.937   9.516  16.892 -0.3021 -0.0707 -0.1248
19444W        W37648   9.018   2.774  13.504  0.1321 -0.1691 -0.0470
19445W        W37649   7.206  15.934   1.813  0.2094 -0.1676 -0.0889
19446W        W37650   8.842   0.057   3.885  0.2105  0.1218  0.2945
19447W        W37651   2.150   9.235  15.492  0.0134 -0.0340  0.2005
19448W        W37652  15.352  12.158  13.203  0.0944 -0.2271 -0.0340
19449W        W37653   7.822   7.028   3.449 -0.2951  0.1851 -0.0774
19450W        W37654  17.412   4.186  16.144  0.2443 -0.0240  0.1229
19451W        W37655  17.004  16.774  16.871  0.0249  0.3018  0.0498
19452W        W37656   7.700  10.718   2.401 -0.0748  0.2369  0.0541
19453W        W37657  15.308  14.767  16.525 -0.0218  0.1720  0.3507
19454W        W37658  17.194  12.192   6.079 -0.1179 -0.0982 -0.2242
19455W        W37659   7.422   1.675   4.221 -0.0438  0.0305 -0.2416
19456W        W37660  13.620   8.504   3.645  0.0359  0.0511 -0.0179
19457W        W37661   3.434   0.821  15.935 -0.0125 -0.0617 -0.0651
19458W        W37662   9.237  12.024  17.100 -0.0112 -0.1799  0.2302
19459W        W37663   9.452  10.810  15.853 -0.2166 -0.1405 -0.2902
19460W        W37664  13.476  16.185   4.166 -0.0071 -0.1087 -0.0036
19461W        W37665  12.822   0.746  13.167  0.2335  0.2310 -0.0440
19462W        W37666  14.439  14.016   0.285  0.1079  0.2415  0.1536
19463W        W37667   8.717   6.496  14.203  0.1381  0.0801 -0.0065
19464W        W37668  10.203  15.309  16.158  0.0744  0.3601  0.1418
19465W        W37669  13.798  10.925   4.738  0.1631  0.0071 -0.2149
19466W        W37670   9.242   6.432   3.193 -0.0588  0.0549 -0.1317
19467W        W37671   5.034   2.955  13.496 -0.0750  0.0204 -0.1827
19468W        W37672   3.950  13.120   5.213  0.1351  0.0614 -0.2673
19469W        W37673   3.978   1.377  11.546 -0.2408  0.1550  0.2554
19470W        W37674  10.455  15.795  14.588  0.1782 -0.0639 -0.0872
19471W        W37675   2.803   3.870  12.216 -0.0312 -0.1343 -0.0878
19472W        W37676  14.738  16.153   0.119 -0.2010 -0.2530  0.0159
19473W        W37677   7.435   7.314   1.462 -0.2414 -0.1440  0.2479
19474W        W37678   2.501   4.284  16.981 -0.0688 -0.1323  0.0564
19475W        W37679  11.385  10.594   5.948 -0.4503  0.2128 -0.1073
19476W        W37680  14.530  15.137   5.525  0.2090 -0.1333 -0.1248
19477W        W37681   4.899  10.994  12.880  0.2842 -0.2022  0.0590
19478W        W37682   4.915   3.254   0.967 -0.1363 -0.0579  0.3953
19479W        W37683   8.605   9.762   1.017  0.2345 -0.1879  0.3610
19480W        W37684  12.713  16.371   0.198 -0.1930  0.1439 -0.2028
19481W        W37685  14.237   2.157  13.681 -0.1303 -0.0139 -0.0834
19482W        W37686  17.135  17.121   3.294 -0.1309  0.0137  0.2796
19483W        W37687   4.726  12.403  16.261 -0.0105 -0.0488 -0.3864
19484W        W37688  14.996   7.149  12.842 -0.2910  0.0569 -0.0032
19485W        W37689   0.252   6.866   2.056 -0.0021  0.1574  0.0398
19486W        W37690  10.365   8.843   2.197  0.0618 -0.0523 -0.0028
19487W        W37691   4.579   5.677   0.730  0.2201 -0.1736 -0.0462
19488W        W37692   6.200   1.837   2.576  0.1624  0.1308  0.1842
19489W        W37693   4.300  12.012  16.491 -0.4001 -0.1242 -0.0074
19490W        W37694  13.683  16.475  13.791  0.0999 -0.0873  0.0393
19491W        W37695  12.563  13.400   1.339 -0.1887 -0.0813  0.0823
19492W        W37696   5.232  12.503  16.477  0.1151 -0.1093  0.0608
19493W        W37697  16.384   6.377   3.023  0.1902  0.0103  0.0640
19494W        W37698  14.281   6.259   3.613  0.1772  0.1301  0.0057
19495W        W37699  12.788  13.222   2.860 -0.0261 -0.1071 -0.1483
19496W        W37700   3.314  17.349   4.265 -0.0910  0.1323  0.0558
19497W        W37701  14.617   0.561  15.405 -0.1002 -0.0056  0.3401
19498W        W37702   7.028  10.011  13.988 -0.0387 -0.2736 -0.1164
19499W        W37703  17.275  16.097  13.778 -0.1958 -0.2158  0.1704
19500W        W37704   9.460   7.185   1.071  0.2189 -0.0228  0.1329
19501W        W37705  13.205   4.620  12.280 -0.2605 -0.0198 -0.1403
19502W        W37706  17.258   1.266   3.997 -0.2192 -0.2481  0.0319
19503W        W37707   7.759   0.748   4.997 -0.0725  0.2040  0.1140
19504W        W37708   9.857   8.170   4.929  0.0527  0.0084  0.2670
19505W        W37709  13.512  12.159   1.738  0.0506  0.2135 -0.0711
19506W        W37710  13.646   4.955  12.174  0.0458 -0.0423  0.0621
19507W        W37711   1.425  13.561   5.198 -0.0230 -0.2452  0.3392
19508W        W37712   2.591   0.266  14.648 -0.3594  0.1284  0.2244
19509W        W37713   2.581  16.806  12.341  0.0119  0.1739  0.2493
19510W        W37714   3.662  14.121   1.793 -0.4351 -0.0392 -0.2935
19511W        W37715   7.581   0.028  13.843  0.3073 -0.3535  0.0811
19512W        W37716   0.543   2.186   4.879  0.1138 -0.0149 -0.1045
19513W        W37717   6.367  12.166   4.945 -0.1095  0.1048  0.0147
19514W        W37718  15.674   4.813   2.719  0.2013  0.0521 -0.0353
19515W        W37719  16.167   1.424  15.549  0.1263 -0.3114 -0.4985
19516W        W37720   8.667   7.861  16.917 -0.1828 -0.0390  0.0549
19517W        W37721   8.919   0.396  17.090  0.1132  0.1268 -0.0106
19518W        W37722   9.235   7.361  12.021  0.0062 -0.1070 -0.2678
19519W        W37723   6.671   1.995  14.553 -0.0098 -0.2277  0.3313
19520W        W37724   8.859   2.364  15.247  0.0599  0.1583  0.0904
19521W        W37725   5.713  11.371   2.226  0.0832  0.1525 -0.0715
19522W        W37726   7.358  16.065   4.661  0.0207  0.1676 -0.2129
19523W        W37727   5.530   8.473   0.673  0.1774  0.1819 -0.2298
19524W        W37728   5.845   8.476  14.008  0.0116 -0.2328 -0.1118
19525W        W37729  17.101  15.528  14.529 -0.0479 -0.1816 -0.2991
19526W        W37730   4.878  15.318   2.692  0.0851  0.3966  0.0019
19527W        W37731   1.281  15.465  15.689 -0.0322  0.2215 -0.0779
19528W        W37732   6.915   4.003   2.687  0.3328 -0.0533  0.1963
19529W        W37733   0.957  17.063  14.364  0.1001 -0.1434 -0.1116
19530W        W37734   3.378   7.731   2.030  0.2153  0.0186  0.1552
19531W        W37735   0.549  16.615   5.914 -0.0107 -0.2839 -0.2678
19532W        W37736   6.371   6.126  15.754  0.1001  0.0991 -0.3614
19533W        W37737   3.431   0.061   1.013  0.0500  0.1182  0.0192
19534W        W37738   3.156   1.797  15.314 -0.2755 -0.0753 -0.1753
19535W        W37739   6.844   6.096  15.329  0.1138  0.1999  0.1662
19536W        W37740  17.034   4.350   4.564  0.0689 -0.3199  0.1580
19537W        W37741  14.624   3.899   3.699  0.1491  0.3555  0.3575
19538W        W37742  15.844   7.568  12.536  0.1600  0.0132  0.0479
19539W        W37743   2.018  12.715   5.031 -0.3630  0.0979 -0.3498
19540W        W37744   9.374  13.300  11.765 -0.2268  0.0283 -0.0743
19541W        W37745  11.215  13.341  12.372 -0.0078  0.0791 -0.1458
19542W        W37746  13.717   4.638   0.231 -0.3088 -0.0812 -0.1137
19543W        W37747  14.432   9.680  12.044  0.3384  0.0296 -0.0191
19544W        W37748  14.030   9.371  11.870 -0.1149  0.2384 -0.1715
19545W        W37749  11.388  15.183  14.606  0.1658 -0.2814  0.0053
19546W        W37750  14.697  16.441   5.249  0.0934  0.1679 -0.2059
19547W        W37751   1.953   4.390   1.135 -0.1145  0.3312 -0.1986
19548W        W37752   8.485   7.463   0.908  0.1699  0.2115  0.1081
19549W        W37753   9.914  12.562  11.372 -0.0919 -0.1113  0.2982
19550W        W37754   9.901  14.695  12.440 -0.1580  0.2320 -0.1151
19551W        W37755  15.829  12.393  14.358  0.2861 -0.3787 -0.1350
19552W        W37756  13.647  14.366   0.272  0.0826 -0.0064 -0.1006
19553W        W37757  15.465   9.298  15.466 -0.3277 -0.0095  0.0947
19554W        W37758   6.491   2.131   0.938 -0.0162 -0.3138  0.1543
19555W        W37759  15.149   0.863   3.594 -0.0398  0.1649  0.3613
19556W        W37760  14.365   7.567   1.869  0.2277 -0.1450 -0.0767
19557W        W37761   9.747   1.011  15.589 -0.0560  0.0689  0.1453
19558W        W37762   6.749   0.063   4.862 -0.0815  0.2623  0.1789
19559W        W37763   3.342  10.387   1.777 -0.0797 -0.2249 -0.0261
19560W        W37764  11.522   0.468   1.994  0.2103 -0.0397 -0.0339
19561W        W37765   5.313   6.838   2.681 -0.2044 -0.0016 -0.0455
19562W        W37766   6.862   8.994   4.384  0.1143 -0.0322 -0.2736
19563W        W37767   1.357  10.522   1.628  0.2584 -0.0675  0.2123
19564W        W37768   9.999  13.158   2.838  0.0709  0.2749 -0.0778
19565W        W37769   2.921  10.731  15.550  0.0025 -0.0593  0.3073
19566W        W37770   2.329  15.302   1.379  0.2760 -0.0191  0.1520
19567W        W37771  10.243   5.128   3.438 -0.0332  0.0585  0.1189
19568W        W37772  13.706   4.080   0.382 -0.0047 -0.2369  0.3120
19569W        W37773   5.355   1.556   1.529 -0.0738  0.3774  0.0122
19570W        W37774  12.190  12.130  16.956 -0.0186 -0.1390 -0.1449
19571W        W37775   5.403   0.980   0.327 -0.1647  0.0763  0.1358
19572W        W37776   0.452   4.568  12.677 -0.0988  0.2965 -0.1864
19573W        W37777   9.181  14.569  14.578 -0.1510 -0.1146  0.1865
19574W        W37778   9.471   6.016  13.059 -0.3354  0.1095 -0.1285
19575W        W37779  11.989   0.672   1.167 -0.4905 -0.1739 -0.0609
19576W        W37780   2.248  10.548   4.812 -0.0734  0.0816  0.2177
19577W        W37781  12.315   7.989   1.125  0.0475 -0.1754 -0.0817
19578W        W37782   0.262   7.460  15.531 -0.0769  0.1383 -0.4374
19579W        W37783  15.905   3.256  13.476 -0.0915 -0.2178 -0.0666
19580W        W37784  14.473  11.557  12.761 -0.0374  0.0855  0.1982
19581W        W37785  14.944  13.488  16.420  0.0721 -0.1891  0.1450
19582W        W37786  13.523   5.011  13.320 -0.1411  0.6535 -0.0827
19583W        W37787   2.041   9.228   1.963  0.1400 -0.0149 -0.0510
19584W        W37788  14.388   4.999   2.352  0.3289  0.2983 -0.0508
19585W        W37789   5.943  10.275   5.135  0.0720 -0.3984 -0.0394
19586W        W37790   5.648  13.732   4.598 -0.0116 -0.1614 -0.1853
19587W        W37791   2.370   0.530   3.856  0.2474  0.3980 -0.1525
19588W        W37792   6.241  13.890  15.778 -0.0487 -0.2837 -0.2195
19589W        W37793   9.907  17.065   3.053 -0.0077  0.0226  0.2321
19590W        W37794   3.613   1.725  13.734  0.0875  0.3422  0.0990
19591W        W37795   6.727  16.474   3.527 -0.0649  0.3579 -0.1115
19592W        W37796  15.177   5.572  14.552 -0.1803 -0.1709  0.1399
19593W        W37797   5.116   0.895  14.712  0.1745 -0.3582 -0.0004
19594W        W37798  16.677  12.640  13.811 -0.1921  0.1620 -0.0673
19595W        W37799  16.545   6.380   1.878  0.0012  0.3010 -0.1093
19596W        W37800   3.566   1.193  15.130 -0.2331 -0.2131  0.0287
19597W        W37801   6.735  13.219   3.484 -0.2993  0.0718  0.4278
19598W        W37802   8.322  10.826   4.597 -0.0895 -0.0330  0.0772
19599W        W37803   4.057   4.355  13.099  0.1766  0.0957  0.3108
19600W        W37804   5.150  13.603  15.146  0.2035  0.0591 -0.2313
19601W        W37805   0.202   9.988  12.006 -0.1541 -0.0666  0.0001
19602W        W37806  12.667   8.891   4.713 -0.0480 -0.2175 -0.0638
19603W        W37807  12.940   2.316   5.229  0.0314 -0.0975  0.0321
19604W        W37808  13.266  15.206  13.986  0.1904  0.4314 -0.1052
19605W        W37809   2.457  12.145  14.057 -0.1853 -0.0441 -0.1595
19606W        W37810   7.680  11.137   2.149 -0.1395  0.3039 -0.1906
19607W        W37811   1.914   9.997   4.538 -0.2131  0.1818 -0.1685
19608W        W37812   4.835  11.611  15.074 -0.2802 -0.2682 -0.0481
19609W        W37813  16.403  12.218   5.097 -0.0742  0.1014 -0.2360
19610W        W37814   7.075   3.285  13.767  0.0236 -0.0314  0.1169
19611W        W37815  15.184  13.904  13.486  0.0386  0.0712  0.1726
19612W        W37816   9.090  13.670  13.028 -0.4334 -0.0137  0.0004
19613W        W37817  15.051   9.881  15.924  0.1020  0.0182  0.2985
19614W        W37818  11.317  10.316  13.891 -0.0605 -0.1622 -0.2913
19615W        W37819  11.578   4.742   3.534 -0.1329 -0.0142  0.0484
19616W        W37820   2.598  12.266  16.665 -0.0551  0.1312  0.1297
19617W        W37821  15.799  10.330  16.816 -0.0601  0.0621  0.1787
19618W        W37822   2.424   0.642  14.376 -0.0378  0.2802  0.3207
19619W        W37823  10.446  12.432  12.618  0.2314 -0.1657 -0.2440
19620W        W37824   7.828  11.828  15.086 -0.0882  0.1999 -0.0064
19621W        W37825  10.372   4.764  15.189  0.0781 -0.0496 -0.1189
19622W        W37826   6.864   4.074   0.058  0.0838 -0.0462  0.0027
19623W        W37827  11.931  10.089  15.960 -0.0408  0.0624  0.0890
19624W        W37828   2.414   0.930   0.949  0.3831  0.1418  0.3303
19625W        W37829  17.370   0.019   3.521  0.1495 -0.1720 -0.2682
19626W        W37830   9.019   8.642  16.369 -0.0672  0.0804 -0.1322
19627W        W37831   0.382   8.180  17.031 -0.0963 -0.0674 -0.0289
19628W        W37832   3.621  16.050   1.926 -0.1338 -0.0639 -0.0919
19629W        W37833  13.626   8.537   3.116  0.1131  0.0306  0.2868
19630W        W37834   5.403   2.109  15.656  0.0860  0.1064  0.0851
19631W        W37835  16.544  15.710   2.215 -0.2503 -0.0694  0.0982
19632W        W37836   0.327   8.537  16.327 -0.0011 -0.0990  0.2833
19633W        W37837  14.248  13.536  13.726 -0.1940  0.1880 -0.0208
19634W        W37838   8.105   3.403  12.953  0.0979 -0.0212  0.1297
19635W        W37839   8.992  12.444  17.197  0.1089 -0.2101 -0.0985
19636W        W37840  17.465  10.535  16.905  0.1749 -0.0447 -0.0512
19637W        W37841   9.089  12.231  14.338  0.0829  0.2217 -0.2282
19638W        W37842  13.443   0.449  14.327  0.0141  0.7308 -0.0357
19639W        W37843  14.239   4.969   1.023  0.0296 -0.2837  0.2131
19640W        W37844   8.403  16.316   0.770 -0.0462 -0.2617 -0.3607
19641W        W37845   4.072   8.373   3.038 -0.0279  0.0498  0.1632
19642W        W37846  11.791   4.822  17.275 -0.2655  0.1257 -0.2255
19643W        W37847  16.421   4.136  12.525  0.1416 -0.0310  0.4013
19644W        W37848  15.103   6.519   5.287  0.1484 -0.0523 -0.4451
19645W        W37849  15.317  13.235  12.884  0.3471 -0.0374  0.1532
19646W        W37850   6.952   8.874   1.926 -0.2060 -0.0432  0.1416
19647W        W37851   5.669  16.912  12.152  0.2598 -0.0856  0.0781
19648W        W37852  10.406   4.766   1.363 -0.1937 -0.1450 -0.2083
19649W        W37853  16.948   0.172  13.282  0.0719  0.3235  0.3362
19650W        W37854   1.375   5.984   0.116  0.2542 -0.2426  0.1959
19651W        W37855   5.938   9.436  15.975  0.0935  0.1020  0.0416
19652W        W37856   3.513   0.195   4.533 -0.2852 -0.3400 -0.0255
19653W        W37857   9.425  16.028   5.236  0.0498  0.0112 -0.3099
19654W        W37858   7.717  15.907  13.753  0.1489  0.2687  0.0845
19655W        W37859  11.608  13.996   2.202  0.1333  0.0035 -0.3168
19656W        W37860   6.413   6.381  14.625  0.1043  0.0560  0.1578
19657W        W37861   9.368  11.475  13.170  0.2769 -0.0088  0.1495
19658W        W37862  15.896   4.837   3.392 -0.3819  0.1627  0.0191
19659W        W37863  16.791   9.921  16.896 -0.1196  0.3231  0.1468
19660W        W37864   8.504   6.521  16.758 -0.4320 -0.0722 -0.0211
19661W        W37865   6.777  12.667   0.604  0.1455  0.2833  0.1130
19662W        W37866   5.647   9.906  16.489  0.0809  0.1620 -0.1915
19663W        W37867   1.131   6.911   5.867  0.2576  0.1335 -0.0419
19664W        W37868   3.817  11.080   0.037 -0.0847  0.1630 -0.0122
19665W        W37869  14.043  13.777   2.124 -0.0901 -0.0686  0.1386
19666W        W37870   0.716   4.852  14.152  0.0451 -0.2382  0.3046
19667W        W37871   5.028   7.642   3.579  0.2700 -0.1477 -0.0992
19668W        W37872   3.576  16.900   0.070 -0.3271  0.1925  0.0007
19669W        W37873   8.538   8.481  12.384 -0.0981  0.3396 -0.1876
19670W        W37874   3.228   9.089   2.155  0.0587  0.2005  0.1781
19671W        W37875  15.490  11.561   0.371 -0.0319 -0.4322  0.2950
19672W        W37876  14.455  13.994   5.199 -0.0760  0.3259  0.2291
19673W        W37877   7.358  10.236  11.555  0.0683 -0.0972 -0.0903
19674W        W37878   5.777   5.596   0.028  0.2144 -0.2892 -0.0728
19675W        W37879   8.306   2.970   0.445 -0.1157 -0.2746 -0.2660
19676W        W37880  15.855  14.841   3.962 -0.0482 -0.1339 -0.2761
19677W        W37881   3.806  10.615   1.291 -0.2034  0.0625 -0.0032
19678W        W37882   5.847   2.560  14.011  0.2465  0.0149 -0.2340
19679W        W37883   7.351  15.614   5.262  0.0888 -0.0148 -0.0090
19680W        W37884   8.759   9.157  16.328 -0.2304 -0.1218  0.0098
19681W        W37885  12.650   1.257  13.318 -0.2882 -0.3167 -0.0838
19682W        W37886  12.211   7.037   1.769 -0.2429  0.1011 -0.1040
19683W        W37887   2.564   1.769   5.117 -0.0961 -0.1896  0.2507
19684W        W37888  15.890   6.349   0.645 -0.0403  0.0202  0.0904
19685W        W37889   8.772   7.095  14.628  0.1178 -0.1159 -0.0552
19686W        W37890  10.711   0.519  12.707 -0.0635  0.1585  0.1259
19687W        W37891  14.870  15.641   1.760  0.0021  0.0896 -0.2802
19688W        W37892   3.984   8.124  15.287  0.1616 -0.0267 -0.1079
19689W        W37893   6.673   4.536  14.829  0.1714 -0.0589 -0.1947
19690W        W37894   4.243   0.925   0.804 -0.0337  0.0899 -0.0034
19691W        W37895   1.992   1.504   5.276  0.0099  0.2088 -0.0390
19692W        W37896   5.244   9.898   1.599 -0.0181 -0.1312  0.3856
19693W        W37897   1.153   3.982   3.563  0.3572  0.1359  0.0099
19694W        W37898  11.501  13.527  15.983  0.0021  0.3334 -0.3244
19695W        W37899  15.738  15.276  16.086  0.1821 -0.0432 -0.2075
19696W        W37900  17.040   2.687   0.281  0.1085  0.4428 -0.2724
19697W        W37901   4.314   7.228   3.407 -0.0545 -0.1695  0.1536
19698W        W37902   9.347  13.947  16.313 -0.0244  0.3309 -0.0732
19699W        W37903   5.347   7.188   0.273  0.1106 -0.0730  0.0532
19700W        W37904   6.067  13.606  16.522  0.1211 -0.2564  0.1461
19701W        W37905  14.821   1.231  12.875 -0.0150 -0.1107  0.0540
19702W        W37906  11.126   8.915   3.981 -0.3549 -0.0393 -0.0109
19703W        W37907   9.137   8.300   1.459 -0.4137 -0.1661  0.3569
19704W        W37908   8.284   8.413  14.999 -0.0450 -0.1467 -0.3049
19705W        W37909  13.946   3.677  15.319  0.2310  0.1582 -0.2322
19706W        W37910   0.950   5.555   4.002  0.3521  0.2774  0.2487
19707W        W37911  15.029   6.883   0.261  0.0198  0.0457  0.0255
19708W        W37912  11.258  12.755   4.342 -0.0881 -0.0481 -0.2095
19709W        W37913   4.965  10.918   2.980 -0.0056 -0.2094  0.0433
19710W        W37914   9.115   9.963   3.711  0.0322 -0.1573 -0.1541
19711W        W37915   8.007  14.451   1.491  0.0317  0.1673  0.2020
19712W        W37916   6.388   7.208   2.635 -0.0435 -0.2211 -0.4054
19713W        W37917  17.525   4.489   2.936  0.1314 -0.0344 -0.3322
19714W        W37918  14.315   4.522  16.159 -0.1610  0.0254 -0.0525
19715W        W37919   0.466   2.464   2.234  0.1282  0.0258  0.0476
19716W        W37920   5.318  15.740   1.409 -0.0649  0.1254 -0.0191
19717W        W37921  15.808   6.742  16.920 -0.3359 -0.1753  0.1172
19718W        W37922  15.167   1.386   5.078 -0.1008 -0.2591  0.1357
19719W        W37923  16.495  15.282   0.584  0.0112 -0.0288 -0.0108
19720W        W37924   8.282   7.693   4.509  0.1606  0.2390  0.0249
19721W        W37925   2.678  16.476  16.434 -0.0693  0.0347 -0.0598
19722W        W37926   3.872   6.302  14.630  0.0910  0.0962 -0.1315
19723W        W37927   6.725  11.825   4.902  0.0400  0.0427 -0.1415
19724W        W37928   9.448  10.337  16.566  0.0661  0.1168  0.1575
19725W        W37929  16.975   0.659   5.184 -0.1498 -0.1630  0.2743
19726W        W37930  13.764  12.012  13.831  0.1014 -0.1604  0.2517
19727W        W37931  16.199   6.809   4.626 -0.0719 -0.0467 -0.0072
19728W        W37932   2.742   6.635  16.764  0.1670  0.0632  0.0116
19729W        W37933   0.712  11.010  12.166 -0.0684  0.2578  0.4636
19730W        W37934  16.422   3.513  14.169 -0.1406  0.1106  0.2021
19731W        W37935   5.705   8.309  16.713  0.0270  0.2683  0.0630
19732W        W37936   9.489  14.772   1.323  0.1846 -0.3761  0.0900
19733W        W37937  11.129  15.056  12.532 -0.0943  0.0916  0.1886
19734W        W37938   0.166  10.625  14.659 -0.1772 -0.0726 -0.0041
19735W        W37939  11.511  11.485  16.485 -0.0969  0.0605  0.0749
19736W        W37940   7.025   1.141   2.224 -0.0618  0.2216 -0.1918
19737W        W37941  11.284  13.687   3.962  0.0934  0.0479  0.0311
19738W        W37942  17.499  13.035  15.221 -0.1206 -0.3289 -0.0777
19739W        W37943   9.509   5.483   3.885  0.1710 -0.0765  0.3297
19740W        W37944  14.803   9.029  15.449  0.3067  0.0441  0.1419
19741W        W37945   6.891   1.250  14.203  0.2159 -0.0372  0.0186
19742W        W37946   9.935   6.383   2.506 -0.3341 -0.2714  0.2688
19743W        W37947  11.630   1.719  17.010  0.0387  0.0891 -0.1180
19744W        W37948  14.861  14.404  16.431 -0.0982 -0.0943 -0.2362
19745W        W37949  16.820  15.536   1.305  0.2243 -0.1775  0.1500
19746W        W37950   9.029  14.667   0.953 -0.1706  0.1087  0.0270
19747W        W37951  11.444  12.203  15.438 -0.1011  0.0948  0.0419
19748W        W37952  10.077   5.468   3.071 -0.2394  0.0747 -0.2784
19749W        W37953   0.973  16.135   5.574 -0.0712 -0.3747  0.2006
19750W        W37954   7.832  13.635  16.180  0.1123  0.2032 -0.0296
19751W        W37955  14.873   5.257  17.052 -0.1312  0.4793  0.1363
19752W        W37956  14.346   3.924  13.095  0.0826  0.0576 -0.1486
19753W        W37957   7.546   3.507   1.755  0.0865  0.1400  0.1649
19754W        W37958   9.218   3.117  16.782  0.2499  0.2190 -0.0653
19755W        W37959  13.320  12.479  16.385  0.0733 -0.0361  0.1832
19756W        W37960   5.185   4.205  16.706  0.1698 -0.1060  0.0521
19757W        W37961   9.443   7.936   4.787 -0.0409  0.0710  0.1310
19758W        W37962   3.593   5.192  12.791 -0.0546 -0.0058  0.1799
19759W        W37963   9.670   4.698   1.268 -0.0088 -0.0324 -0.1444
19760W        W37964   5.448  15.453   0.974  0.2850 -0.1870 -0.0605
19761W        W37965   7.118   0.748   2.567 -0.3571  0.1035 -0.0584
19762W        W37966   6.393   6.239  13.019 -0.1157  0.1650  0.1582
19763W        W37967  16.018   6.016   0.217  0.0067  0.0956  0.0210
19764W        W37968  16.671  14.300  11.887  0.3252  0.1301 -0.1777
19765W        W37969  16.888   5.242  13.446 -0.1201  0.0034  0.2010
19766W        W37970   5.111  13.408  14.388  0.2804  0.0214 -0.1266
19767W        W37971  13.711  13.433  16.462  0.2135 -0.0475 -0.0187
19768W        W37972   4.933   2.203  14.183 -0.0758  0.2270 -0.2801
19769W        W37973   2.123   6.879  13.633 -0.2790  0.0210  0.3302
19770W        W37974   7.435   0.425  12.593  0.1855 -0.3548 -0.1200
19771W        W37975   0.892   0.640  12.659 -0.2213  0.1078 -0.2125
19772W        W37976  16.777  12.290   2.650 -0.2764 -0.1432  0.1190
19773W        W37977  13.955  16.123  15.635 -0.0634 -0.1333  0.1294
19774W        W37978   8.684  10.700   1.904 -0.2966 -0.3159  0.0688
19775W        W37979  12.079   7.742  12.784 -0.0901  0.1448  0.1769
19776W        W37980   5.125   3.752  11.972 -0.1248  0.0841 -0.2154
19777W        W37981  15.726  11.296   1.758  0.4875 -0.2909  0.1427
19778W        W37982   5.037   1.111   1.865  0.4001  0.3418 -0.0569
19779W        W37983  11.906   8.182  15.776  0.0828  0.1070  0.3807
19780W        W37984   1.700   3.154   1.356 -0.2091  0.1711 -0.0153
19781W        W37985   8.708  10.831   0.691 -0.1583 -0.0080  0.2479
19782W        W37986   7.513   0.524  13.114  0.0235  0.2384  0.0664
19783W        W37987   7.150  11.452   3.782  0.1363 -0.0387 -0.3892
19784W        W37988   0.531   0.598   0.504  0.2985 -0.0004  0.1478
19785W        W37989   8.418   4.788  14.219  0.0267  0.2417 -0.0052
19786W        W37990  17.535  16.912  14.337 -0.0266  0.0741  0.1196
19787W        W37991  17.528   0.041   2.236  0.1534  0.2327  0.1072
19788W        W37992   8.584  12.722   1.983 -0.0991  0.2041  0.3516
19789W        W37993   4.152  14.707  14.579 -0.1898 -0.0807  0.0669
19790W        W37994   6.507   2.378   2.447  0.1453  0.0062 -0.1346
19791W        W37995  14.431   9.188  13.324 -0.0692 -0.3308 -0.1003
19792W        W37996   0.060   1.898   4.344 -0.2139  0.2115  0.1027
19793W        W37997   8.792   9.189  15.640 -0.0903  0.0437 -0.0592
19794W        W37998   2.440  13.848  15.524 -0.2057 -0.2278  0.0186
19795W        W37999  11.463   5.059  12.919  0.3163 -0.0225 -0.0715
19796W        W38000  15.048  16.054   1.050 -0.1369  0.0039  0.3838
19797W        W38001   1.386   9.138   1.266  0.0725 -0.4606 -0.2154
19798W        W38002  14.754  15.586   3.205  0.0108  0.0048  0.1438
19799W        W38003   5.338   1.822  14.179 -0.2133  0.0741  0.5637
19800W        W38004   2.388   1.818   4.211  0.0768  0.1097  0.0252
19801W        W38005   5.375   1.411   2.082 -0.3258  0.2282  0.0038
19802W        W38006  16.744  16.442   4.841 -0.2498 -0.2321 -0.2888
19803W        W38007   3.673   4.762  14.724  0.0651 -0.0670 -0.0735
19804W        W38008   8.956   9.243  12.251  0.0322  0.0050 -0.0197
19805W        W38009   4.336  12.329  12.316  0.2444  0.1956 -0.1811
19806W        W38010   1.604   0.129   2.282  0.0475 -0.1936  0.0882
19807W        W38011   9.747  15.877  16.659 -0.1082 -0.1841 -0.0060
19808W        W38012  12.983  10.548   6.070 -0.0205 -0.0820 -0.1172
19809W        W38013   5.804  13.274   4.419  0.3464 -0.3199 -0.0762
19810W        W38014   0.867   9.345  16.233  0.1766  0.0041  0.0593
19811W        W38015  16.307   3.311   0.569  0.0400 -0.0179  0.3577
19812W        W38016  10.905  14.904  16.600 -0.0820  0.0448 -0.1075
19813W        W38017   4.650  17.068   1.264 -0.1365 -0.0564  0.2845
19814W        W38018  14.372  12.008   1.469  0.3419 -0.1292  0.0570
19815W        W38019   1.346  11.743   2.701  0.3559  0.0715 -0.1164
19816W        W38020   8.777  12.549  15.711  0.1124 -0.2982  0.0025
19817W        W38021  13.891  12.913   4.459 -0.0653 -0.0719  0.1443
19818W        W38022  11.671   9.267  12.417 -0.1773  0.2494 -0.4427
19819W        W38023   1.748   1.929   0.827  0.2957 -0.3451  0.0979
19820W        W38024   4.103  15.110  13.039  0.0046 -0.0983  0.2292
19821W        W38025  10.249   6.990  15.618 -0.1569  0.4015 -0.0372
19822W        W38026  14.590   6.539  14.314 -0.4368 -0.1233 -0.0151
19823W        W38027  17.096  12.695  12.306 -0.3055 -0.1941 -0.1955
19824W        W38028   3.981   2.731   4.859  0.2235  0.0654  0.1083
19825W        W38029  14.637  12.270  11.991  0.3154 -0.2250  0.1422
19826W        W38030   9.284   3.131   4.511  0.3700 -0.2492 -0.0163
19827W        W38031   9.929   0.989  16.100 -0.1557 -0.2331 -0.0974
19828W        W38032  11.061  14.445  16.370  0.1298 -0.1903  0.0843
19829W        W38033   8.209  13.633   4.533 -0.2590 -0.2032  0.2498
19830W        W38034   0.716   1.999  15.942  0.3436 -0.2887  0.0929
19831W        W38035   7.599  12.035   1.796 -0.0375  0.0078 -0.1166
19832W        W38036  17.512  10.759   1.858  0.2022 -0.0638  0.1287
19833W        W38037   6.364  13.622  12.373  0.0322  0.1508 -0.3034
19834W        W38038   1.887   2.755   1.584  0.0649 -0.2699  0.0593
19835W        W38039  12.772   1.860   5.314  0.2553  0.3408 -0.0773
19836W        W38040  14.938  14.584  11.765  0.0282  0.2212 -0.1020
19837W        W38041   7.428   3.529   4.665 -0.0755  0.2040 -0.2344
19838W        W38042   6.734   8.041  14.921  0.1628 -0.0187 -0.0637
19839W        W38043   2.946  12.105   4.722  0.0064  0.3361  0.3833
19840W        W38044  16.268   7.798  16.792 -0.1930 -0.2993  0.0576
19841W        W38045   0.829  10.939   1.259  0.4985  0.1537 -0.0039
19842W        W38046   4.784   1.559   2.082 -0.3020  0.1974  0.0681
19843W        W38047   4.313  13.007  16.187  0.1591 -0.2840  0.2472
19844W        W38048   0.835  15.766  14.974  0.2470 -0.0959 -0.3213
19845W        W38049  10.143  15.725   1.817 -0.1310  0.1547  0.1230
19846W        W38050  11.055  11.398  16.640 -0.0164  0.2037 -0.0404
19847W        W38051  13.226   7.570  17.275 -0.1755  0.0696 -0.2402
19848W        W38052  15.830  11.512  13.956  0.2563 -0.0734  0.0271
19849W        W38053   9.795   2.415  13.919  0.2511 -0.0671 -0.0339
19850W        W38054   5.155  14.091   2.946 -0.1757  0.1557 -0.3118
19851W        W38055   6.548  11.291  15.107 -0.0679  0.0280 -0.1161
19852W        W38056  10.888  11.531   3.593  0.0232  0.3063 -0.1292
19853W        W38057   0.438   8.208   3.358 -0.0189  0.0032 -0.0239
19854W        W38058   3.447   2.948   5.486 -0.0117  0.0221 -0.0635
19855W        W38059  11.697  10.935  14.308 -0.0332 -0.2124 -0.2459
19856W        W38060   5.141   3.353   2.388  0.3085 -0.0576 -0.0495
19857W        W38061   0.695   1.769   1.157 -0.1198 -0.1606 -0.1996
19858W        W38062   2.131  14.680  15.656  0.4814 -0.2114  0.1839
19859W        W38063  13.636   9.957  17.016  0.1581 -0.0169 -0.0089
19860W        W38064  14.807   4.532  13.746 -0.0678 -0.0705  0.0363
19861W        W38065  12.424   8.669   1.694  0.0166  0.3047 -0.0571
19862W        W38066   0.270   4.518  12.217  0.1953 -0.2199 -0.2366
19863W        W38067   5.740  13.729  14.971 -0.4072  0.0086 -0.2248
19864W        W38068  14.939  11.592  15.218 -0.1863  0.1262 -0.4634
19865W        W38069   5.065   5.867  12.885  0.1847 -0.3975  0.3900
19866W        W38070   9.408  11.741   1.621 -0.0266 -0.0827  0.1092
19867W        W38071  12.357   5.349   0.371 -0.1646 -0.1091 -0.0279
19868W        W38072  15.608  10.370   4.853 -0.2336 -0.0898 -0.1714
19869W        W38073   7.734   7.085  16.577  0.2450  0.1107  0.1611
19870W        W38074   8.830  17.084   2.689 -0.1335 -0.2127  0.3573
19871W        W38075   7.782   1.028  14.575  0.1969  0.1412  0.0244
19872W        W38076  13.190   8.279  15.940 -0.1958 -0.0884  0.0333
19873W        W38077  16.305   3.748  17.003  0.1263 -0.0218  0.1100
19874W        W38078  16.089  11.067  16.759 -0.1686 -0.2862 -0.1417
19875W        W38079   5.467  10.327   0.312  0.1279 -0.0190  0.1044
19876W        W38080   9.748   7.254   2.904 -0.2368  0.1801  0.1367
19877W        W38081  15.793  12.932   3.760  0.0099  0.2427  0.2747
19878W        W38082  13.614   7.974   0.652  0.2316  0.0191 -0.0745
19879W        W38083  14.050   4.055  16.329 -0.1661 -0.1224 -0.1287
19880W        W38084   4.801   3.250  12.088 -0.1587  0.1080  0.0674
19881W        W38085   4.422   5.935  15.979 -0.0847  0.1799  0.0229
19882W        W38086   5.331   7.911  15.463 -0.1361  0.1295 -0.1509
19883W        W38087   9.230  11.085  14.083 -0.0244  0.2226  0.0510
19884W        W38088   8.583   3.325  16.317  0.0709 -0.1234  0.0778
19885W        W38089  13.457   9.416   5.015  0.2998  0.1010 -0.2875
19886W        W38090   5.994  11.696  16.989 -0.1669 -0.0359 -0.1283
19887W        W38091  12.294   2.034   1.054  0.2788 -0.1245  0.0746
19888W        W38092   5.159   8.362  15.357 -0.0874 -0.0352 -0.1783
19889W        W38093   1.147  12.464   0.595 -0.1538 -0.0489 -0.1595
19890W        W38094   1.597  14.604  14.786  0.1327  0.1720  0.1713
19891W        W38095  13.122  12.635   4.978  0.1684 -0.1981  0.0917
19892W        W38096   2.542  14.407   3.193  0.0973  0.2042  0.1297
19893W        W38097  13.162  14.011  16.798 -0.0746 -0.0232  0.0337
19894W        W38098  17.545  17.425  12.497 -0.1153 -0.0830  0.5385
19895W        W38099  12.050  14.992   3.091  0.0650  0.0628 -0.1967
19896W        W38100  17.466   1.117   1.901 -0.5968 -0.1531 -0.3457
19897W        W38101   0.802   6.877  16.118 -0.0533  0.1253  0.1944
19898W        W38102   6.516  11.510  16.542  0.0574 -0.2011 -0.2166
19899W        W38103  13.260  13.651  16.376 -0.0202 -0.0099  0.0015
19900W        W38104  10.247   7.281  15.207  0.1069 -0.0712  0.1996
19901W        W38105  10.752  17.162  12.538  0.0745  0.1470  0.1959
19902W        W38106   4.655  16.557   2.136  0.0354  0.0202  0.0927
19903W        W38107   7.198  13.056   3.303 -0.0260  0.1810  0.1136
19904W        W38108   6.896  17.340  16.555 -0.2040  0.1828  0.0385
19905W        W38109  17.204  11.001   1.553 -0.1542  0.1387 -0.0975
19906W        W38110  13.788   5.417  13.751 -0.3634  0.0655  0.0275
19907W        W38111   7.691  14.550   3.536  0.0799 -0.0534  0.2164
19908W        W38112  11.262   7.656  17.008 -0.0765 -0.0735  0.2337
19909W        W38113  12.522   5.957   3.790 -0.0075 -0.1351  0.0908
19910W        W38114  11.933  13.474  13.270  0.3447  0.1560  0.0317
19911W        W38115   7.820   1.291   1.595  0.0681  0.0024  0.0256
19912W        W38116  12.286  14.764  14.751 -0.0930 -0.1176  0.1331
19913W        W38117   9.536   5.032   1.928 -0.2611  0.0943 -0.3617
19914W        W38118   2.240   0.219  15.122  0.0266  0.2000 -0.0586
19915W        W38119  12.282  16.286  17.225  0.0934  0.2405 -0.1556
19916W        W38120  13.244  12.738   2.431  0.0937 -0.2866  0.0726
19917W        W38121   5.256   0.357  13.144 -0.0490 -0.1906  0.1273
19918W        W38122  11.968   3.714  14.707 -0.0259 -0.0768  0.0243
19919W        W38123   8.109   6.554   2.147 -0.0711 -0.0288  0.2554
19920W        W38124   2.743  16.629   5.523 -0.1630  0.3296  0.0263
19921W        W38125  10.996   4.887   4.372  0.2340 -0.0546  0.2155
19922W        W38126   9.921  12.774  11.837  0.0557  0.2663 -0.1933
19923W        W38127   9.159  12.017  12.898  0.0671 -0.0140 -0.2625
19924W        W38128   5.880  13.509  17.042 -0.0760  0.1161  0.0790
19925W        W38129   5.988  16.459   4.187  0.0858 -0.0579 -0.5431
19926W        W38130   6.428   9.205  11.989  0.2271 -0.0158  0.0599
19927W        W38131  10.671   0.026   2.541 -0.0638  0.2277 -0.0268
19928W        W38132  10.963  16.483  17.187  0.0800  0.1392 -0.0261
19929W        W38133   2.839   8.630   3.141 -0.3367 -0.1136 -0.1456
19930W        W38134  10.403  12.956  17.156  0.0386  0.1586 -0.1157
19931W        W38135   1.637  14.030  12.790  0.1803  0.5002 -0.0599
19932W        W38136  11.584   8.305  12.861  0.2057 -0.0806  0.0504
19933W        W38137  12.542   8.260   2.145 -0.1837  0.2523  0.1025
19934W        W38138  12.258  16.846   3.115  0.0619  0.3437 -0.2411
19935W        W38139   5.057   4.137  12.396 -0.5080 -0.1412  0.0192
19936W        W38140   7.751  14.957  12.267 -0.1544 -0.1268 -0.1265
19937W        W38141   7.628  16.656  13.434  0.0226  0.1145 -0.2202
19938W        W38142   9.568   8.089   2.935  0.4059  0.3151  0.0924
19939W        W38143  13.593   6.674   3.261  0.0003 -0.0268  0.2435
19940W        W38144   5.036  11.649   0.034 -0.2607 -0.0829  0.2345
19941W        W38145  11.464  15.961  17.188 -0.0533 -0.1459  0.0552
19942W        W38146   0.176   6.369   1.729  0.1485 -0.3252  0.2842
19943W        W38147   2.931  16.857   0.792 -0.3508  0.1028 -0.0541
19944W        W38148  11.231  12.326   3.582 -0.4605 -0.2547  0.0641
19945W        W38149   3.229  12.870  14.303  0.1434  0.1814 -0.0328
19946W        W38150   8.354   6.718  11.153  0.0114  0.0217  0.0959
19947W        W38151  12.472   4.241   4.268 -0.0936  0.0275 -0.1065
19948W        W38152   8.975   8.713   1.792 -0.0923  0.0969  0.1513
19949W        W38153   2.739   1.109  14.643 -0.1547  0.0193 -0.2088
19950W        W38154  11.217   7.305   0.654  0.2797  0.1348  0.0777
19951W        W38155   3.028   0.129   0.084 -0.1881  0.0287 -0.3094
19952W        W38156  12.113   9.580  17.109  0.0490  0.1050  0.0142
19953W        W38157   6.585   6.287   2.575 -0.1030  0.3285 -0.1618
19954W        W38158   2.637  15.815   2.941  0.3082  0.3185 -0.0539
19955W        W38159   9.745   2.240  15.770 -0.0454 -0.1166 -0.0389
19956W        W38160   0.915   1.672   3.366 -0.0037 -0.2300  0.0227
19957W        W38161   5.077   0.625   1.578  0.0296  0.0128 -0.1846
19958W        W38162  14.365  16.861  13.077  0.0994  0.1896 -0.0149
19959W        W38163  17.204   0.164   1.822  0.0456 -0.1389  0.1280
19960W        W38164   2.463  13.187  17.166 -0.2362  0.1287  0.2139
19961W        W38165   7.276  14.845  14.913 -0.1146  0.1829  0.1028
19962W        W38166   2.191  15.235   0.025 -0.2619 -0.2241 -0.1756
19963W        W38167   3.465   6.140  11.692  0.1326  0.0185  0.0513
19964W        W38168   7.053   0.849   0.575 -0.1741  0.2422  0.0734
19965W        W38169   4.197  13.635  12.709  0.0130 -0.0803  0.1479
19966W        W38170   4.956  12.126  14.913  0.2089  0.0891 -0.0082
19967W        W38171  16.314  14.528   5.096  0.0469 -0.2312 -0.0342
19968W        W38172  10.813   8.669  15.255 -0.0942  0.0431 -0.2806
19969W        W38173   8.789  12.164   1.199 -0.1884  0.3486 -0.0559
19970W        W38174   3.672   4.437  16.379 -0.1455 -0.3339  0.0583
19971W        W38175   9.740  15.457   2.020 -0.0664  0.0046 -0.2857
19972W        W38176   6.980   2.056   3.658 -0.1799  0.1794  0.3108
19973W        W38177  15.144   0.229  13.817  0.0829 -0.1715 -0.4957
19974W        W38178   4.388   2.053   3.143  0.1293  0.1605 -0.0871
19975W        W38179   1.515  14.217   2.355 -0.2063 -0.1061  0.0574
19976W        W38180   7.954  15.176  10.964  0.0403  0.2609 -0.2550
19977W        W38181   6.717   1.843  12.766  0.0173 -0.0192  0.2597
19978W        W38182   8.872  15.977  13.902  0.0626 -0.2975  0.0648
19979W        W38183   9.770  13.581  15.520 -0.1796 -0.0313  0.3168
19980W        W38184   0.526  14.763   0.568  0.1204  0.1463  0.0737
19981W        W38185   7.611  15.593   1.503  0.1108 -0.1665 -0.1059
19982W        W38186   7.448   9.118  12.321 -0.0766 -0.0044 -0.1829
19983W        W38187   7.011  16.550  15.600 -0.1286  0.0009  0.3520
19984W        W38188   8.697  13.336  12.338 -0.2169 -0.0684  0.1537
19985W        W38189   5.672   4.467  13.594 -0.3674  0.0360  0.1881
19986W        W38190   1.044   0.308  12.257  0.1022  0.1345 -0.3587
19987W        W38191   3.573   7.682  12.009  0.1155 -0.0513  0.0104
19988W        W38192   8.058   0.989  12.750 -0.0033 -0.1915  0.0188
19989W        W38193  15.260   4.575   4.075 -0.1771  0.1013  0.2421
19990W        W38194   0.883   6.826   1.404  0.0238  0.3645  0.1188
19991W        W38195   8.749   8.070   3.587  0.0799 -0.3265  0.2500
19992W        W38196   6.738   3.754  13.869 -0.1447  0.0567 -0.1615
19993W        W38197   2.428  11.072  12.953  0.1717  0.2882 -0.2093
19994W        W38198  12.400  13.936  15.521  0.4820  0.1175 -0.1118
19995W        W38199  12.449  10.320  17.286  0.1777 -0.3980  0.1749
19996W        W38200   7.189   1.317   0.991  0.0402  0.3850 -0.3709
19997W        W38201   8.281  16.367   2.727 -0.2549 -0.0462 -0.1604
19998W        W38202   8.390   0.559   3.128  0.1078 -0.1352  0.0980
19999W        W38203  11.366  12.367  12.543  0.1926  0.0315 -0.2384
20000W        W38204   3.903   0.520   2.022 -0.1155 -0.1954  0.0043
20001W        W38205   1.155  15.831  15.397  0.4070 -0.4335  0.1755
20002W        W38206   4.675   8.016   2.378 -0.0682  0.0051 -0.1155
20003W        W38207   6.756  10.693  15.570 -0.2842  0.0377 -0.5512
20004W        W38208   5.169  15.457   4.047 -0.1396 -0.2451 -0.2595
20005W        W38209  12.268   2.426   4.729 -0.0999 -0.0904 -0.0489
20006W        W38210  10.302  10.096   0.334 -0.0385  0.1223 -0.3494
20007W        W38211   0.720  14.501   4.394  0.2788  0.0245 -0.0729
20008W        W38212   9.179  10.909  13.484 -0.2429  0.2854 -0.0187
20009W        W38213   7.084   2.399  15.331  0.0133  0.0105 -0.0277
20010W        W38214   0.376  12.409   2.088  0.1066 -0.1143  0.0424
20011W        W38215   4.466  16.390   5.036  0.0497 -0.0112 -0.0748
20012W        W38216  14.867   0.468   5.316  0.0122  0.3858  0.4391
20013W        W38217   2.637  14.833   0.313 -0.1467 -0.2997 -0.5814
20014W        W38218   9.167   5.647  12.164 -0.0902 -0.1243  0.3899
20015W        W38219  11.087   4.791   3.312  0.0478 -0.0831  0.2342
20016W        W38220  14.546   7.259   3.931 -0.0135 -0.0517 -0.0323
20017W        W38221  16.713  17.048  13.811 -0.2044 -0.2234  0.1497
20018W        W38222   3.486   6.176   4.280 -0.1079  0.0747 -0.1002
20019W        W38223   2.588  17.178  13.590 -0.1974 -0.0060  0.0612
20020W        W38224   1.951   3.774  13.386 -0.2157  0.2341 -0.1465
20021W        W38225   7.713   8.697  16.247  0.0381  0.2003 -0.0034
20022W        W38226  14.566   5.191   0.353 -0.0833  0.0073 -0.0540
20023W        W38227   4.005   1.293   1.661 -0.0477  0.0832 -0.0283
20024W        W38228   1.953   7.456   4.262  0.0786  0.0348  0.0107
20025W        W38229   3.267  12.207  14.176  0.0327  0.0585  0.0043
20026W        W38230   4.441  16.574   2.756  0.0562 -0.4059  0.0653
20027W        W38231   8.152  12.704   3.581  0.4202 -0.0662 -0.0748
20028W        W38232  11.020  12.753   5.321  0.0313  0.0774  0.0539
20029W        W38233  10.862  16.357   5.788 -0.0226  0.4276  0.5253
20030W        W38234  13.631  15.952   5.604  0.3990  0.0688  0.3109
20031W        W38235  15.973   1.129  14.716 -0.3852  0.2802 -0.4722
20032W        W38236   0.287  14.266   2.309 -0.1579 -0.4934 -0.0582
20033W        W38237   3.193  16.109  13.314  0.2422 -0.0307  0.3465
20034W        W38238  15.374   2.857   0.716 -0.1010 -0.2306  0.2346
20035W        W38239   3.940   3.602   6.380  0.1724  0.0963  0.1418
20036W        W38240  10.758  11.435  15.362  0.1789 -0.2321  0.1590
20037W        W38241   1.122   7.976   4.235  0.1187  0.1561 -0.2608
20038W        W38242  15.855   0.664  14.054  0.0909  0.1929 -0.0990
20039W        W38243   8.452   1.869   0.947 -0.2366  0.0886  0.0321
20040W        W38244  11.301   3.779  12.725 -0.0617  0.3227  0.0947
20041W        W38245   0.453   9.080  14.967 -0.2261  0.2919 -0.2889
20042W        W38246   6.361   2.010  15.352 -0.1903  0.3347  0.1447
20043W        W38247   8.402   0.452   1.673  0.1826  0.0960 -0.2486
20044W        W38248  15.097   6.370  14.319 -0.3649  0.0076 -0.0628
20045W        W38249  16.190   5.506   3.330 -0.0600  0.0041  0.0742
20046W        W38250  14.444   8.254  16.474  0.3568 -0.1213 -0.0266
20047W        W38251   6.935  12.385   3.925 -0.2363 -0.1626 -0.1079
20048W        W38252  13.158  12.482  14.966  0.0280  0.1040  0.1248
20049W        W38253  10.323  12.099   4.327 -0.3384  0.0710  0.0793
20050W        W38254  16.558   6.803  16.471 -0.1385 -0.4549 -0.0697
20051W        W38255   5.231  16.392   4.545 -0.0391 -0.1398  0.0044
20052W        W38256   7.521  12.410  12.768 -0.3443  0.1480  0.2800
20053W        W38257   5.412  14.871   5.992  0.2456 -0.0004  0.1473
20054W        W38258   8.958  12.422   4.337 -0.1173 -0.0505  0.1473
20055W        W38259   7.337  14.624   0.304  0.1214  0.0630 -0.1678
20056W        W38260   4.178   1.079  11.173 -0.2925 -0.2594 -0.0395
20057W        W38261   6.977  14.061  14.512 -0.3109 -0.3538 -0.2414
20058W        W38262   6.643   3.376   4.205  0.1218 -0.0905 -0.3465
20059W        W38263   1.349   8.689   0.052  0.2743 -0.0189 -0.0461
20060W        W38264   7.963  17.241   2.258  0.1737  0.1847 -0.0807
20061W        W38265   9.368  16.547  15.333 -0.0863 -0.0847  0.0766
20062W        W38266  10.692   8.900   1.305 -0.0319  0.3747 -0.1088
20063W        W38267  15.639   2.206  15.867 -0.0218  0.1129  0.0064
20064W        W38268  13.757   9.996  16.501  0.0017 -0.0178 -0.1437
20065W        W38269  10.255  15.362  13.548 -0.2840 -0.2328  0.3851
20066W        W38270   1.514   2.164   0.298  0.0467 -0.3730  0.2716
20067W        W38271  15.762   4.905  12.802 -0.0798  0.0581  0.1917
20068W        W38272  11.213   7.433  16.059 -0.2999 -0.4227  0.2448
20069W        W38273  14.356   8.226   5.303  0.6131 -0.3282 -0.1863
20070W        W38274  14.418  15.054  16.114 -0.0025  0.0293 -0.1897
20071W        W38275   5.766  11.008   2.895 -0.1775 -0.0259  0.2722
20072W        W38276   9.881  10.863  14.665  0.1252 -0.2673 -0.1129
20073W        W38277   8.789   7.278   5.606  0.1666  0.3843 -0.0084
20074W        W38278  14.545  12.672  14.867 -0.4447 -0.0604  0.0143
20075W        W38279   6.578  16.234   0.453  0.0918 -0.0860  0.0191
20076W        W38280   7.431  14.704  15.394 -0.0522  0.0110 -0.0635
20077W        W38281  16.539  11.835  16.759 -0.0937 -0.2042 -0.0201
20078W        W38282  16.595   1.268   2.852 -0.0753  0.0269 -0.0539
20079W        W38283   6.857   5.425  16.661 -0.1168 -0.0758  0.0589
20080W        W38284   1.415  10.976   1.768 -0.0869 -0.1043  0.1022
20081W        W38285  17.316   9.548   1.549  0.1637 -0.0492 -0.1085
20082W        W38286  15.218  10.364  11.983 -0.3026  0.2010 -0.1547
20083W        W38287   9.388  12.834   2.211 -0.0550 -0.1081  0.0396
20084W        W38288   8.554   5.516  14.216 -0.4560  0.3242  0.1990
20085W        W38289  16.634   3.863   1.398 -0.2480 -0.1780  0.2639
20086W        W38290  13.609  10.894   5.645 -0.0465 -0.0756  0.1765
20087W        W38291   5.251  15.575  16.207  0.0069 -0.0510  0.0122
20088W        W38292  15.249   4.723  13.471 -0.1839 -0.0130 -0.0978
20089W        W38293   2.446  12.172  12.851 -0.1488 -0.1209  0.1920
20090W        W38294  13.577   5.951  13.697  0.0109  0.0700 -0.2868
20091W        W38295   9.674   2.257  15.115 -0.0870  0.2450  0.3054
20092W        W38296  14.822   3.996  12.408  0.2515  0.2839 -0.1514
20093W        W38297  12.283  16.290   3.537 -0.1087  0.2048  0.1475
20094W        W38298  10.445  12.817  11.912 -0.1092 -0.1002 -0.3701
20095W        W38299   5.601   9.116  12.901 -0.2254  0.1769  0.2690
20096W        W38300  11.447  16.928  14.436  0.1904 -0.3990 -0.1226
20097W        W38301  13.615  14.026  16.559  0.0886  0.0367 -0.0844
20098W        W38302   1.003  11.701   4.660  0.2843 -0.2670 -0.0732
20099W        W38303   2.558  13.051  13.738  0.2307 -0.0508  0.4744
20100W        W38304   4.922  10.245   0.235 -0.2425  0.4257 -0.0912
20101W        W38305  12.671   3.802   3.311 -0.2444  0.1094 -0.0709
20102W        W38306   2.415  12.862   2.695 -0.4266  0.1357 -0.0584
20103W        W38307  15.105   5.643  15.999 -0.1612 -0.1452  0.3068
20104W        W38308   6.164   9.598   1.911  0.0242  0.1664  0.1206
20105W        W38309   5.195   3.296   1.802 -0.0293 -0.1023  0.3345
20106W        W38310   2.057  16.821  15.966 -0.1701  0.2415 -0.0451
20107W        W38311   1.974  10.912  15.535 -0.1498  0.1411  0.2533
20108W        W38312  16.141  14.589   3.551  0.3181  0.0132 -0.1168
20109W        W38313   6.751  16.991  14.740 -0.0783  0.2274 -0.3054
20110W        W38314  13.541  12.137  15.113  0.0426  0.0378 -0.0782
20111W        W38315   5.680  11.571   3.361 -0.0849  0.1436  0.1684
20112W        W38316   4.432  14.665   3.320  0.3016  0.1370  0.0468
20113W        W38317   5.270  13.141  13.696  0.2099  0.2424  0.0430
20114W        W38318  10.619  11.515   5.547 -0.1938  0.0282  0.3561
20115W        W38319  11.517  15.991  13.643 -0.1265  0.0096 -0.0349
20116W        W38320  12.409  14.234   4.460  0.0208  0.1512 -0.1063
20117W        W38321  14.471  14.102   2.835 -0.3300  0.3939 -0.0098
20118W        W38322  14.586   7.195   4.821  0.2564  0.2587  0.0735
20119W        W38323  15.070  10.062   1.645 -0.2370 -0.3163  0.0487
20120W        W38324  12.056   7.749  13.681 -0.4339 -0.1218  0.1007
20121W        W38325  14.815  13.242  13.003 -0.5507  0.1662  0.1022
20122W        W38326   4.017  16.964  13.699 -0.1366 -0.1108  0.0802
20123W        W38327   3.680  11.509  12.615 -0.0892  0.1333 -0.0195
20124W        W38328  16.493   8.542   1.484 -0.2969  0.0010 -0.4204
20125W        W38329   9.469   8.619   4.194 -0.0842 -0.0488  0.0173
20126W        W38330  13.995  16.591  17.205  0.2035 -0.2279  0.1936
20127W        W38331   5.030   1.157   5.983  0.1388  0.0446  0.0006
20128W        W38332  17.391   0.896  15.243  0.0516 -0.0239  0.0754
20129W        W38333  16.317  15.956  14.119  0.0341 -0.0581 -0.2356
20130W        W38334  16.448   2.135  14.181  0.0173 -0.0202 -0.0945
20131W        W38335  16.461  13.665  13.035 -0.1322  0.0400 -0.0954
20132W        W38336  11.042   4.049  15.644 -0.0089 -0.0031 -0.2163
20133W        W38337  15.960   8.838  16.788  0.1862  0.1648 -0.0242
20134W        W38338   0.913   1.036   2.831 -0.2587  0.0053  0.1373
20135W        W38339   3.639   6.922   2.588  0.0406  0.3040 -0.0427
20136W        W38340  15.503  12.115   0.127 -0.1856 -0.0873  0.2035
20137W        W38341  11.880   1.762  16.182 -0.2212 -0.1941 -0.1704
20138W        W38342   0.172   3.932   2.129 -0.3427 -0.1755 -0.0870
20139W        W38343   3.541   8.863   1.090 -0.0251 -0.1179 -0.2208
20140W        W38344  12.657  15.410  17.131 -0.0726  0.2388 -0.1911
20141W        W38345   7.201   6.751  15.910  0.0475 -0.1732  0.0193
20142W        W38346   4.985   8.028  17.006 -0.0454 -0.0352  0.2282
20143W        W38347  17.311   8.507  14.050 -0.0403  0.1502 -0.0486
20144W        W38348  15.279   2.947  17.011  0.2538  0.3549  0.3149
20145W        W38349  14.285   6.375  16.320 -0.0861  0.0793 -0.0468
20146W        W38350   3.855  12.104   4.510  0.1657 -0.1143 -0.0982
20147W        W38351  11.209  16.318   0.959  0.3399 -0.2252 -0.1686
20148W        W38352  14.396  11.035  13.672 -0.0184  0.1110  0.0372
20149W        W38353   8.933  14.626  12.178  0.0354  0.0181 -0.0409
20150W        W38354   4.689  10.464   1.370 -0.0137 -0.0766 -0.1307
20151W        W38355  11.886  11.647  16.168  0.0222  0.0818 -0.0010
20152W        W38356  16.081  11.110   4.504  0.1527 -0.0621  0.0072
20153W        W38357   9.218  13.097  13.635 -0.0809  0.1591  0.0656
20154W        W38358   9.733  11.339  14.885 -0.0530  0.1574 -0.4776
20155W        W38359  12.878   9.380  12.432 -0.0186 -0.1092  0.5352
20156W        W38360  14.631   4.383  12.758 -0.0853 -0.0607  0.1896
20157W        W38361   3.303   0.976   1.276  0.2058 -0.0417 -0.0579
20158W        W38362   9.936  14.671  16.565 -0.1025  0.4347 -0.0670
20159W        W38363   1.470   8.635  12.639 -0.1101 -0.0524 -0.1463
20160W        W38364   8.654  12.185   1.892  0.2529 -0.1232 -0.1033
20161W        W38365  17.172  17.219  15.990  0.1821  0.0217 -0.0701
20162W        W38366   5.509  15.644  13.921 -0.0877  0.0311 -0.1017
20163W        W38367   6.802  14.554   0.039  0.0981 -0.1873 -0.2813
20164W        W38368   5.357   1.970  13.694 -0.4157 -0.1577 -0.2323
20165W        W38369  16.898  17.053  15.077 -0.3451 -0.0279  0.2365
20166W        W38370  12.976   6.457  16.180 -0.0517 -0.1733 -0.0655
20167W        W38371  13.350   4.419   3.758  0.1950 -0.1030  0.2378
20168W        W38372  11.177  13.969  10.464  0.1302 -0.0927 -0.3180
20169W        W38373   2.930   2.008  13.448 -0.1667  0.0041 -0.3818
20170W        W38374   2.768  17.063   5.248 -0.1945 -0.3675  0.0268
20171W        W38375  17.021   5.981   0.498  0.0939  0.1199  0.0502
20172W        W38376  16.051  10.163  12.247  0.0354 -0.3796 -0.0821
20173W        W38377   9.159  13.288   4.855 -0.0711  0.1731 -0.0218
20174W        W38378  14.289   5.551  16.146  0.0603  0.2744 -0.0882
20175W        W38379  16.043  10.922   2.747 -0.0560 -0.2261 -0.1014
20176W        W38380  11.318   7.837  15.697  0.0355 -0.0880  0.1141
20177W        W38381   1.863  11.309   0.587 -0.1659  0.5328  0.2608
20178W        W38382  13.800   9.315  14.320  0.0770  0.1265 -0.0017
20179W        W38383   0.949  14.833   1.880  0.2011 -0.1138  0.1438
20180W        W38384  12.351  10.000   4.074  0.2996 -0.0461  0.3375
20181W        W38385  16.145  14.933  15.284  0.0440 -0.1502  0.1345
20182W        W38386  14.112   4.187  15.242 -0.1195 -0.0079  0.3070
20183W        W38387   4.377  10.286  14.376  0.1911  0.0736 -0.0092
20184W        W38388  10.708   5.806  12.379  0.0182 -0.0355 -0.0440
20185W        W38389   6.176   9.223   3.571 -0.0531  0.5259  0.2345
20186W        W38390   1.678  14.453   1.937 -0.0059  0.1237 -0.1615
20187W        W38391  15.572  12.857  14.743  0.3825 -0.0160  0.2361
20188W        W38392  10.811   7.312   4.632  0.0935 -0.3368 -0.0231
20189W        W38393   7.062   7.408  15.475 -0.0286 -0.1193  0.0968
20190W        W38394  17.122   3.771   0.354  0.3297 -0.0656 -0.1226
20191W        W38395  12.515  17.215  15.589 -0.2122 -0.0974  0.0641
20192W        W38396   0.793   2.850  15.817 -0.0341  0.1877  0.1935
20193W        W38397  16.141  14.378   4.578  0.0408  0.0822  0.0905
20194W        W38398   4.174  15.072   3.323 -0.1387 -0.0618  0.1452
20195W        W38399  11.613  15.881  15.366  0.1184  0.0254 -0.4370
20196W        W38400   0.053   8.285  12.589  0.2908  0.1556 -0.1475
20197W        W38401   3.105  13.709   1.107 -0.1269  0.2705 -0.1596
20198W        W38402  11.824   0.955   0.217  0.0947  0.2851  0.2778
20199W        W38403   4.616   7.150   0.565 -0.2104  0.1420  0.1213
20200W        W38404  16.527  17.296  16.194  0.3545  0.1264  0.0471
20201W        W38405  17.121   4.618   0.498  0.1096  0.0216  0.1593
20202W        W38406  17.221  15.850   3.231  0.0108  0.2844  0.2026
20203W        W38407  14.273   7.769   0.254  0.3079  0.1185 -0.1992
20204W        W38408   8.166  13.328   3.397  0.3571  0.0806  0.2017
20205W        W38409   0.452   7.629  13.695 -0.0417  0.1550  0.1606
20206W        W38410  11.474   8.677  16.251  0.0374  0.1808  0.0963
20207W        W38411  15.449   4.367   3.437  0.0561 -0.0209 -0.0738
20208W        W38412  17.019   5.718  14.076  0.4205 -0.2892 -0.1915
20209W        W38413   4.582   9.450   3.299  0.1657 -0.3293 -0.1944
20210W        W38414   5.331   8.438  15.821 -0.2639 -0.0661 -0.0573
20211W        W38415   2.173  16.937  12.700 -0.3004 -0.1028 -0.1123
20212W        W38416  10.150  14.055  15.782  0.1934  0.1617  0.0707
20213W        W38417  13.108   9.801  16.752  0.1674 -0.4411 -0.0232
20214W        W38418   1.377   6.731  14.738 -0.0412  0.2278 -0.0308
20215W        W38419   5.033  15.706   4.911  0.1397  0.0384 -0.0037
20216W        W38420  13.546  16.950  15.759  0.2678  0.0658 -0.2730
20217W        W38421   3.078   7.536  12.872  0.3430  0.2652  0.2172
20218W        W38422   4.418   3.144   1.172 -0.1020  0.0448  0.0722
20219W        W38423   4.020  12.387   1.401  0.0136 -0.2436 -0.2487
20220W        W38424   1.763  11.805   3.922  0.2680  0.3769 -0.0207
20221W        W38425   6.522  15.432   2.840  0.2787 -0.0161  0.0423
20222W        W38426  11.839  10.504   2.996 -0.0786  0.3045  0.1682
20223W        W38427  13.247  10.556  13.693  0.3828 -0.0372 -0.1098
20224W        W38428   0.514   7.267   3.076  0.1484  0.0300 -0.2474
20225W        W38429  16.657   5.345   3.952 -0.2638 -0.2148  0.0337
20226W        W38430   5.121  13.904  15.967 -0.0811  0.1556  0.3661
20227W        W38431  16.993   5.271  15.550  0.0650 -0.3240 -0.0663
20228W        W38432  11.269   4.394  15.292  0.3237 -0.1483  0.1108
20229W        W38433  13.600   9.462  14.974  0.3640 -0.0075 -0.0234
20230W        W38434  15.804   4.674  16.297 -0.0648 -0.0134  0.1714
20231W        W38435  11.091   4.681  13.037  0.0145  0.2965  0.1013
20232W        W38436  12.540   2.280   5.642  0.1315 -0.0022 -0.3712
20233W        W38437   4.920   8.585  17.238 -0.1463 -0.1490 -0.0214
20234W        W38438   1.913   8.660   5.458  0.1615 -0.1206 -0.3535
20235W        W38439   5.382   9.238  15.227  0.0388 -0.0735  0.1613
20236W        W38440  12.357   4.265   3.215 -0.3909 -0.0505  0.1063
20237W        W38441   8.880   5.601   3.751 -0.1599 -0.2463 -0.0280
20238W        W38442  15.576  15.005   4.447  0.1579  0.0070 -0.1790
20239W        W38443   9.608  15.683  15.844 -0.0302 -0.0867  0.0832
20240W        W38444  14.075   7.973  16.279 -0.1575  0.4801 -0.2025
20241W        W38445  15.556   3.377   4.579 -0.2545 -0.0455  0.2142
20242W        W38446   7.597   8.979  14.400 -0.2366 -0.2399 -0.2802
20243W        W38447  12.800   2.630   1.418  0.0796 -0.0045 -0.2178
20244W        W38448   3.936   6.467   3.258 -0.2065  0.0472  0.4975
20245W        W38449   4.300  10.315   3.136  0.1753  0.3131  0.0557
20246W        W38450  13.093   5.809   3.865  0.1310  0.1306  0.0411
20247W        W38451  14.952  13.823   4.953 -0.4058 -0.2939 -0.0451
20248W        W38452  13.707  12.033   0.443 -0.2542  0.1161 -0.4055
20249W        W38453   6.975  15.658  16.129 -0.0316  0.2023 -0.0720
20250W        W38454   2.780   5.718  15.294 -0.0783 -0.0763  0.1939
20251W        W38455   9.071  11.914  13.954 -0.2602 -0.0267  0.0396
20252W        W38456   3.084   7.500  16.938  0.2055 -0.0799  0.1109
20253W        W38457  11.579  10.995  16.690 -0.0088 -0.1771  0.2611
20254W        W38458  14.295  10.370   0.515 -0.1962 -0.2263 -0.0528
20255W        W38459  15.660   0.172  14.171  0.0752  0.0456 -0.2239
20256W        W38460  12.105   6.602  16.718 -0.3509 -0.2141  0.1769
20257W        W38461   6.615  16.739   0.368  0.0769  0.3371  0.2445
20258W        W38462   6.752  12.832  16.840 -0.1102  0.0532 -0.2037
20259W        W38463   8.241   3.218   1.382  0.2860 -0.3713 -0.0656
20260W        W38464   6.668  13.896   0.726 -0.0831  0.3626  0.1990
20261W        W38465   2.675   7.085   2.480  0.1460 -0.1652  0.1462
20262W        W38466   3.019  14.578   5.107 -0.2240  0.4210 -0.0961
20263W        W38467   2.194   3.343  13.260  0.0872  0.1459 -0.3088
20264W        W38468   7.798   5.149   4.905  0.0630 -0.2233 -0.2865
20265W        W38469   1.883  16.968  14.715 -0.1395 -0.3135  0.2341
20266W        W38470  10.899  12.078   0.066  0.1241  0.2458  0.0198
20267W        W38471   9.098   0.981   4.557 -0.0898  0.2046 -0.0222
20268W        W38472   0.673  15.424  12.145  0.0265 -0.0835  0.0709
20269W        W38473   8.871   8.679   5.153  0.2831 -0.2953  0.0312
20270W        W38474  15.071   5.922  14.135 -0.1506 -0.0909 -0.1248
20271W        W38475   1.083   2.122   5.765 -0.0268 -0.0241 -0.1469
20272W        W38476  13.250   6.600   0.053 -0.3188  0.0585  0.0736
20273W        W38477   6.080   8.955  16.047  0.1364  0.0095  0.1145
20274W        W38478   8.468  11.038   0.302 -0.2081  0.0411 -0.1207
20275W        W38479  10.590   3.541   2.547  0.1589 -0.3364  0.1898
20276W        W38480  14.826   9.311  14.380  0.0558 -0.0870 -0.3461
20277W        W38481   9.666   4.564   3.822 -0.1008 -0.2067 -0.1343
20278W        W38482   5.786  13.237  15.141 -0.0887 -0.3713  0.3197
20279W        W38483   1.360   9.280  13.755  0.3366 -0.2222  0.1794
20280W        W38484  14.457  11.179  12.463 -0.3245  0.0475 -0.0501
20281W        W38485   3.803   6.126  16.942 -0.1256  0.2879  0.1669
20282W        W38486  11.243  16.556  13.899  0.1487  0.3371  0.0200
20283W        W38487   8.621   5.991  13.394  0.0018  0.1585  0.0890
20284W        W38488  13.108  13.735  13.615 -0.0227 -0.0082  0.1559
20285W        W38489   6.862   6.334   3.564 -0.0476  0.1174  0.0665
20286W        W38490  15.142   1.464  14.004 -0.2961 -0.2416 -0.2401
20287W        W38491  14.624  14.909  12.602 -0.0522 -0.1261 -0.1187
20288W        W38492  14.215  13.856   1.465 -0.0579  0.0323 -0.1033
20289W        W38493  11.919   9.188   0.944  0.0429  0.2376 -0.1695
20290W        W38494  17.003   9.126  12.450  0.0181 -0.0986 -0.0772
20291W        W38495  15.223   7.470   1.910  0.0690 -0.0058  0.1525
20292W        W38496   7.585   3.264   2.738 -0.0746 -0.2066  0.0372
20293W        W38497   3.882   5.094   5.155 -0.1040  0.3430  0.3268
20294W        W38498  14.985   7.450   4.166 -0.3289  0.4399  0.0531
20295W        W38499   4.480   8.529   1.098  0.0112 -0.0101  0.5938
20296W        W38500  15.800  12.844  15.238  0.3012 -0.0242 -0.1932
20297W        W38501   8.373  15.806   0.854  0.0418  0.2413  0.0692
20298W        W38502  11.384   3.254  12.388  0.1109 -0.3291 -0.2282
20299W        W38503  16.757  16.044   4.051  0.1077 -0.1063 -0.0235
20300W        W38504   8.997  11.565  16.773  0.0151 -0.4070 -0.2959
20301W        W38505  15.822   0.025  15.604  0.1343 -0.0125  0.0748
20302W        W38506   0.156  16.142   2.506 -0.0811  0.2823  0.1219
20303W        W38507   6.782  12.220  16.170 -0.0320 -0.3061 -0.0073
20304W        W38508   4.794  14.388   3.730 -0.2733 -0.1347 -0.1829
20305W        W38509   7.295  14.692   4.405 -0.1784 -0.0358  0.0479
20306W        W38510   2.216  15.897   4.366 -0.1370  0.1799 -0.1069
20307W        W38511   6.089  14.172  15.154 -0.0382 -0.2130 -0.3037
20308W        W38512   5.804   1.239  15.622  0.0647  0.3993  0.3535
20309W        W38513  11.318   2.640   4.452  0.1805  0.0294  0.0985
20310W        W38514   5.294   8.413   1.271  0.1068  0.2576 -0.2035
20311W        W38515  15.309  12.570  12.621  0.0499 -0.0609 -0.4753
20312W        W38516  11.189  15.965  13.220  0.2062  0.1234  0.2709
20313W        W38517  14.513   0.904  14.370  0.1089 -0.1834  0.0652
20314W        W38518   6.595   9.067   0.973 -0.0935 -0.0827  0.2395
20315W        W38519  11.702  14.853  14.779  0.3212 -0.0209 -0.0862
20316W        W38520  15.727  14.728  16.095 -0.1058 -0.2505 -0.1648
20317W        W38521  17.544  12.772  13.837  0.0915 -0.1024 -0.0330
20318W        W38522   4.457  11.916  12.155 -0.0305 -0.0735 -0.1271
20319W        W38523   6.833  11.316   3.296 -0.3163 -0.1028  0.2126
20320W        W38524   7.296  15.510   1.972  0.0141 -0.0186  0.1644
20321W        W38525   2.378   6.127   5.170  0.3093  0.0346 -0.1876
20322W        W38526   8.006  16.388  13.648  0.0670  0.1647 -0.0747
20323W        W38527   6.331   2.582  16.385 -0.2604 -0.3215  0.0849
20324W        W38528   3.842  15.910  14.168 -0.1062  0.0864  0.0650
20325W        W38529  14.416   4.933  13.052 -0.0196 -0.1172  0.1874
20326W        W38530   1.005   4.243   0.537  0.0598 -0.3463  0.0228
20327W        W38531  11.311  13.008  12.019  0.0889  0.0076 -0.3538
20328W        W38532   7.121  14.787   1.282 -0.0028  0.2166 -0.0595
20329W        W38533   7.236  11.634  12.677  0.0523  0.0664 -0.0712
20330W        W38534   7.444   7.042  12.840  0.1729  0.3444  0.4150
20331W        W38535   0.330   0.013   2.719 -0.0417 -0.0745  0.1667
20332W        W38536  10.984  13.436   5.404 -0.0155 -0.1197  0.0522
20333W        W38537  11.820  11.601  12.436  0.2705  0.0839  0.3541
20334W        W38538   1.704   4.822   2.335  0.1394 -0.3332  0.0557
20335W        W38539   7.169  13.657   4.752  0.3931  0.1252 -0.2471
20336W        W38540   0.946   2.342   2.710  0.2685 -0.4169  0.4897
20337W        W38541  12.006   0.835   1.639  0.0913 -0.2428  0.1878
20338W        W38542   6.409   8.582   1.997  0.1283 -0.0493  0.1672
20339W        W38543   9.431   1.582   2.624 -0.0801 -0.2742 -0.1303
20340W        W38544   5.119   8.559   3.094  0.0082  0.0960  0.2685
20341W        W38545   9.725   0.564  16.374  0.2979 -0.3304 -0.1949
20342W        W38546   9.209   4.476  16.566 -0.2098  0.0203  0.0432
20343W        W38547   9.397  15.931  13.139 -0.0828 -0.0412 -0.1741
20344W        W38548   0.644   3.441   4.023 -0.1582 -0.0930 -0.2241
20345W        W38549  12.886   5.991  16.247 -0.1375 -0.1026 -0.2136
20346W        W38550  14.104   2.095  12.867 -0.2730  0.2240 -0.0510
20347W        W38551   7.015  11.389  14.147 -0.1755 -0.1069  0.0988
20348W        W38552   8.101   6.239   4.033 -0.4907 -0.0262 -0.3444
20349W        W38553  13.467   7.555   4.005  0.2094 -0.1505 -0.1367
20350W        W38554   8.241   6.122  16.605 -0.1323  0.1380  0.2699
20351W        W38555  16.062  11.954  14.176 -0.0035 -0.1826 -0.0216
20352W        W38556   0.154  17.327   0.866  0.2149  0.0685 -0.1619
20353W        W38557  16.323  12.077   3.027 -0.2685 -0.1040 -0.2066
20354W        W38558   3.594   5.544   5.334  0.1654  0.1156 -0.3286
20355W        W38559  12.283   9.835   1.663 -0.2852  0.0230 -0.4928
20356W        W38560   5.918   1.592  16.027  0.3211  0.5573 -0.2343
20357W        W38561   6.770   8.086   4.714 -0.0903  0.0842  0.0887
20358W        W38562  13.296   7.205  13.726  0.1267  0.1436 -0.0121
20359W        W38563   2.226  15.198  12.468 -0.1975  0.3385  0.0001
20360W        W38564  11.991   2.234   2.372 -0.4291  0.1146  0.2096
20361W        W38565   3.025   5.517  13.512  0.1251  0.0862  0.1101
20362W        W38566   9.827  14.095  16.668  0.1892  0.1394 -0.2182
20363W        W38567  12.374   3.742  16.343  0.4342 -0.0079 -0.2854
20364W        W38568  13.473   8.233  12.707 -0.0785 -0.0549 -0.2636
20365W        W38569   9.178   3.802   2.343  0.1308  0.0592 -0.0261
20366W        W38570   1.518   4.259  13.928 -0.3600 -0.2191 -0.3777
20367W        W38571   2.917   9.423  12.772 -0.0419 -0.2103  0.0378
20368W        W38572   7.440  15.534   4.271 -0.2603  0.0786  0.1627
20369W        W38573   1.984   9.394  12.385  0.1760 -0.0768 -0.4686
20370W        W38574  11.860  10.054   3.939  0.0330 -0.3497  0.1848
20371W        W38575   0.197  10.945  12.895  0.0678 -0.0721 -0.0484
20372W        W38576   1.267  16.794   1.848  0.2536 -0.1249  0.0726
20373W        W38577   5.667   9.445  14.242 -0.1451 -0.0178 -0.2979
20374W        W38578  14.743   6.294  17.128 -0.0938  0.0482 -0.0918
20375W        W38579  11.674   4.571   4.483  0.2929  0.1758 -0.0598
20376W        W38580   5.669   8.969   2.543 -0.0276  0.0015 -0.0612
20377W        W38581   5.024   8.108   4.316 -0.1977  0.0747  0.1629
20378W        W38582   2.833   0.792  15.290  0.3146  0.0819  0.0800
20379W        W38583   9.646   0.366  14.434 -0.1031 -0.0631 -0.1544
20380W        W38584  13.664   0.477   2.590  0.2234 -0.0761  0.3924
20381W        W38585   9.041  14.734   5.066 -0.2282 -0.0476  0.0087
20382W        W38586  15.693   8.549   4.632  0.0438 -0.0528 -0.2934
20383W        W38587   8.402   8.353   1.551 -0.1716 -0.2590 -0.1161
20384W        W38588  16.217   8.008  12.649  0.0338  0.0465  0.0887
20385W        W38589   5.708   5.794  12.675  0.2017 -0.1918 -0.0201
20386W        W38590  11.290  15.225   3.844  0.0436  0.0792  0.2520
20387W        W38591   3.500  17.046   1.101 -0.3600 -0.0722 -0.0262
20388W        W38592  10.626  12.537   2.422  0.0424  0.0472  0.2346
20389W        W38593  14.522  16.358  15.541 -0.0539  0.3800  0.0032
20390W        W38594   9.036   0.562  14.340  0.3248  0.0586 -0.0726
20391W        W38595   2.593   9.133  15.240 -0.5648  0.1099 -0.2126
20392W        W38596   6.343   4.322  16.045 -0.0594  0.1421 -0.0674
20393W        W38597   8.757  10.220   0.921 -0.0659  0.1357  0.0150
20394W        W38598   1.611  16.170  15.317  0.0443 -0.2116  0.1922
20395W        W38599  16.167  10.876  15.779  0.1617 -0.0186  0.0636
20396W        W38600  12.959  17.502  16.702 -0.0877  0.0101 -0.1103
20397W        W38601  11.031  13.234  16.685  0.2069 -0.0790  0.4631
20398W        W38602   1.301  15.454   2.293 -0.0563 -0.2465  0.0164
20399W        W38603  15.363   8.420  16.008  0.1476  0.2483 -0.0546
20400W        W38604  12.234  14.089  16.813  0.3735 -0.0998 -0.2253
20401W        W38605   1.355   9.115   4.562 -0.2165  0.0232  0.2514
20402W        W38606  11.445   0.261  17.279 -0.0383  0.0307  0.2523
20403W        W38607   9.816  15.053   0.213 -0.3474  0.1147 -0.2769
20404W        W38608   4.308  17.532   1.259  0.2755 -0.1970 -0.1897
20405W        W38609  15.998   3.456  14.707  0.0200 -0.0365 -0.0247
20406W        W38610  13.741   2.141  13.866  0.2903  0.0802 -0.2182
20407W        W38611  15.552   3.959   2.687  0.1229 -0.0261 -0.1340
20408W        W38612   0.415   2.840  13.294  0.0131  0.0052  0.0593
20409W        W38613   4.219  10.395   1.603 -0.0382  0.0650  0.0533
20410W        W38614   0.756   0.950  16.962 -0.1571  0.1374  0.2605
20411W        W38615   8.052  11.880   4.535  0.2311 -0.4474  0.1641
20412W        W38616   0.805  13.938   1.148  0.2420  0.0850 -0.0049
20413W        W38617   4.517  12.667  12.694 -0.2752 -0.1125  0.2904
20414W        W38618  14.206  12.046   2.742 -0.3829  0.0634  0.0979
20415W        W38619   4.263  13.619  16.336  0.0701 -0.0527  0.2148
20416W        W38620   5.696   9.739   1.828 -0.1133  0.0327 -0.2423
20417W        W38621   3.029   7.507  14.418  0.0444  0.0610  0.2053
20418W        W38622  10.701   4.416  16.332  0.0617  0.3843 -0.1840
20419W        W38623  16.313  12.259  14.483 -0.1521 -0.1456 -0.1092
20420W        W38624   2.949  13.991  12.254  0.0762 -0.1791  0.2149
20421W        W38625   6.241   2.853   3.657  0.2650 -0.1832 -0.2944
20422W        W38626   4.085  13.852   3.191 -0.0715 -0.1828 -0.0322
20423W        W38627   0.068   6.712   0.768  0.1819 -0.0153 -0.0112
20424W        W38628   5.766  14.716   0.744 -0.0304 -0.2790 -0.4235
20425W        W38629  15.396   4.106  16.258 -0.0643 -0.1191  0.2599
20426W        W38630   0.434   1.235  16.512 -0.3044  0.2809 -0.3682
20427W        W38631   7.442  13.665   3.802  0.0133  0.0050  0.1189
20428W        W38632  10.393  12.111  17.025  0.0238  0.1950  0.3699
20429W        W38633   7.526  17.455   2.768  0.0200  0.3208 -0.0916
20430W        W38634  15.023   0.971  14.155  0.0357  0.2767  0.3334
20431W        W38635   1.866   5.249   4.883 -0.2063 -0.3279 -0.1167
20432W        W38636  15.941   0.944   1.602  0.1881  0.2757  0.0825
20433W        W38637   7.047  17.334   1.950 -0.1570  0.4563 -0.2045
20434W        W38638   8.968   7.401   1.067 -0.0140 -0.2988 -0.1838
20435W        W38639   9.658   5.569   0.315 -0.0268 -0.1346 -0.1762
20436W        W38640   9.052  10.831   1.583 -0.0190  0.0564 -0.1470
20437W        W38641   0.289   7.992   4.598  0.1712  0.4673  0.3315
20438W        W38642  12.210  11.570  11.907 -0.0472 -0.2959 -0.1456
20439W        W38643   8.751   8.448  14.999  0.2514 -0.2249 -0.1171
20440W        W38644   0.010   6.951  14.164 -0.3607  0.0771 -0.0621
20441W        W38645   9.815   1.188  16.576 -0.2657 -0.0131 -0.0851
20442W        W38646   1.715   4.827   0.858  0.2417 -0.1915  0.1356
20443W        W38647   5.747   2.176  16.853 -0.1296  0.0746  0.0727
20444W        W38648   3.072   6.497  14.876 -0.2132  0.1202 -0.3515
20445W        W38649   9.849   2.511   3.108  0.2068 -0.0309 -0.1710
20446W        W38650  10.747   7.002   6.374 -0.1623  0.0118  0.1779
20447W        W38651   2.250   4.820  13.988  0.1204 -0.2928 -0.2425
20448W        W38652  14.618   7.972  14.253  0.3237 -0.1545 -0.0846
20449W        W38653  12.875   3.352   3.196  0.2690 -0.3233  0.0290
20450W        W38654   9.694  16.768   3.408 -0.2076 -0.3256 -0.1610
20451W        W38655   4.623   4.760   1.844  0.3563 -0.1436  0.1620
20452W        W38656  15.639   9.872   4.750  0.0820  0.1161  0.0375
20453W        W38657   5.123   2.502   2.434 -0.0539  0.3560 -0.3614
20454W        W38658   7.041   7.333  12.843 -0.0648  0.2293 -0.1346
20455W        W38659  17.246   3.956  15.186  0.0920  0.2440 -0.3887
20456W        W38660  17.128   3.075  15.322 -0.0680  0.2834  0.1817
20457W        W38661   9.249  17.176   2.360  0.1767 -0.1402 -0.0289
20458W        W38662   2.950   3.165  17.052 -0.0362  0.0914  0.1056
20459W        W38663   3.640  13.271   2.824  0.0102  0.0809  0.0766
20460W        W38664  11.978   0.201  16.948 -0.0209 -0.0912  0.0610
20461W        W38665  14.216   8.204  14.913  0.1931 -0.3516  0.0136
20462W        W38666  13.035   2.083   2.251 -0.0558 -0.3632 -0.2821
20463W        W38667  16.852  10.527  13.171  0.0276 -0.2097 -0.1893
20464W        W38668  13.088  10.869  14.075  0.0567 -0.0087  0.0711
20465W        W38669   1.173  17.470   2.355 -0.0629  0.0995  0.0268
20466W        W38670   2.148   5.462   0.380  0.2889  0.1489 -0.1551
20467W        W38671  12.947   5.423   1.218 -0.0607 -0.0875  0.1203
20468W        W38672  10.783  12.532  13.939 -0.3918  0.0715 -0.1192
20469W        W38673  10.828  14.988  16.127 -0.0610  0.0575 -0.1404
20470W        W38674   8.100   2.226  15.860 -0.0282  0.2057  0.2251
20471W        W38675  13.879   6.156   4.464  0.1091 -0.2536 -0.0544
20472W        W38676   9.670  10.909  12.349 -0.1497  0.0590  0.1774
20473W        W38677  12.409   7.859  14.458  0.2333 -0.0517 -0.0993
20474W        W38678   6.286   5.437   6.219 -0.1198 -0.2160 -0.1873
20475W        W38679   2.930  13.359   0.212 -0.1232  0.1121  0.1932
20476W        W38680  14.888  11.192  13.701 -0.0091 -0.3619 -0.1387
20477W        W38681   4.930   6.674   3.211  0.1843  0.2375 -0.1371
20478W        W38682   0.877  11.666   3.705 -0.0275  0.2124  0.0040
20479W        W38683  16.926  13.686   1.311  0.2636  0.1782  0.2514
20480W        W38684  13.578   5.066   2.374 -0.0785 -0.2353  0.1578
20481W        W38685   3.138   2.267   2.934 -0.1207  0.2820 -0.0533
20482W        W38686  17.221  11.459   4.597 -0.2969  0.6307  0.0923
20483W        W38687  13.774   4.833   3.913  0.1378 -0.1384  0.0993
20484W        W38688   2.349   6.610   4.323  0.1269 -0.0805 -0.0089
20485W        W38689   1.479   7.485   1.628 -0.0518  0.3147 -0.0314
20486W        W38690  17.109  17.147   3.847  0.0476  0.0924  0.2986
20487W        W38691  11.183   9.124  13.516  0.0927 -0.4731  0.1496
20488W        W38692   6.414   4.764   1.199  0.1792  0.1543  0.0162
20489W        W38693  14.728   0.568   3.808  0.2096  0.2777  0.1375
20490W        W38694   7.220  17.364  14.566  0.0646  0.0253 -0.0940
20491W        W38695  12.872  11.585   0.223 -0.0400 -0.1545 -0.2536
20492W        W38696  16.622   2.496  17.227 -0.0151 -0.2952 -0.3280
20493W        W38697   6.130  15.675  14.723  0.0918  0.0267  0.3108
20494W        W38698   7.081   5.321   0.861  0.2875 -0.2437  0.1208
20495W        W38699   2.174   1.333   2.196 -0.2983  0.1189  0.1836
20496W        W38700   8.310  11.232   3.318  0.0247  0.2053 -0.1979
20497W        W38701   6.119  10.534   3.058  0.2835  0.1827  0.2569
20498W        W38702   9.360   7.554   3.235  0.3688 -0.1634  0.1170
20499W        W38703   2.957  13.668   5.222 -0.2658  0.3353  0.1448
20500W        W38704   9.214   9.020   2.865 -0.1374  0.0873 -0.1406
20501W        W38705   3.395   4.463   5.608  0.1830 -0.0209  0.2013
20502W        W38706   3.516  16.606   4.474  0.0359 -0.2145  0.0544
20503W        W38707  10.556  13.770   0.074  0.0686  0.3038 -0.1397
20504W        W38708   9.897   4.303  12.890 -0.0013  0.2268  0.2431
20505W        W38709   1.962  14.534  12.079 -0.0405  0.0273  0.1270
20506W        W38710  14.283  16.894  12.122  0.1661 -0.0129 -0.0662
20507W        W38711   1.299   2.922  17.079 -0.3532 -0.0526  0.0598
20508W        W38712  12.829   9.947  15.472 -0.1308  0.2916 -0.1251
20509W        W38713   1.945   2.660   6.003 -0.0039 -0.1616 -0.1082
20510W        W38714   9.403   4.953  15.113 -0.0319 -0.0105 -0.3532
20511W        W38715  17.510  11.906  14.566 -0.1784  0.0941 -0.0090
20512W        W38716  17.492   0.892   2.910  0.0774  0.0199  0.1598
20513W        W38717   7.658  10.013  16.861  0.0042 -0.0657  0.3168
20514W        W38718  15.433  16.187   5.163  0.1924  0.0963 -0.4959
20515W        W38719   6.927   4.904  13.041 -0.0707 -0.1478 -0.1124
20516W        W38720  16.503   5.433   5.920 -0.0410  0.0043 -0.0908
20517W        W38721  10.112   6.350  16.361  0.1002  0.0290  0.4022
20518W        W38722   1.814   0.221   2.850 -0.0081 -0.1816  0.3524
20519W        W38723   2.734   2.826  14.815  0.1749  0.4232  0.1087
20520W        W38724  16.384   2.178   4.396  0.3215  0.2199  0.2115
20521W        W38725  15.103  16.545  16.068  0.2848 -0.0594  0.2336
20522W        W38726  16.396   3.102   4.458 -0.0658  0.3763  0.0536
20523W        W38727   8.266   0.775   4.994  0.1025 -0.1407  0.0288
20524W        W38728   8.335  15.180  17.137 -0.0631 -0.0639  0.1231
20525W        W38729   0.672  13.580   1.718 -0.1227  0.1453  0.0529
20526W        W38730   6.767   9.913  16.120 -0.0007  0.3034 -0.0951
20527W        W38731  16.470   7.161   1.222 -0.2698 -0.2136 -0.0914
20528W        W38732   9.345  13.647  15.257 -0.1128 -0.0423  0.0514
20529W        W38733  10.389  16.772  16.520 -0.0107 -0.0992 -0.0081
20530W        W38734  13.971  14.642  16.471  0.3307 -0.1272  0.0208
20531W        W38735  13.455   6.012   4.228  0.0120  0.0909 -0.4086
20532W        W38736  15.158  15.444  14.816  0.0497 -0.2380  0.0518
20533W        W38737   9.410   4.990   3.977 -0.1631 -0.1062  0.2002
20534W        W38738   2.387  14.400   0.740 -0.1880 -0.0658 -0.2379
20535W        W38739  16.938  13.014   2.464 -0.2589  0.0809 -0.0993
20536W        W38740   7.143  15.862   3.365 -0.1009 -0.2337  0.0497
20537W        W38741   3.476   2.500   0.744  0.1555 -0.0718  0.1393
20538W        W38742  13.544   7.345  13.293 -0.2138 -0.3052  0.0142
20539W        W38743  11.679   7.920  15.382 -0.3603 -0.1380  0.0174
20540W        W38744   7.040  12.838  12.347  0.2626  0.0988 -0.0207
20541W        W38745   1.059  12.763   1.817 -0.0017 -0.3696  0.0401
20542W        W38746   8.087   6.669  16.599 -0.0622 -0.0230 -0.2183
20543W        W38747   0.241  17.205  12.872 -0.1597 -0.3671 -0.1117
20544W        W38748   2.614  16.247   1.376  0.0054  0.1082 -0.3132
20545W        W38749   5.544   5.249  12.510 -0.2416 -0.3039  0.1091
20546W        W38750   4.327   2.425  16.492 -0.0679 -0.0883  0.1344
20547W        W38751   2.356   7.707   3.276 -0.0924 -0.2349 -0.2699
20548W        W38752  12.731   0.638  12.644  0.0424 -0.1505 -0.2178
20549W        W38753  14.424   3.581   3.359  0.1749 -0.0308 -0.0212
20550W        W38754  11.657   5.590   1.001  0.0128  0.0547  0.0962
20551W        W38755   8.280   6.037   4.509 -0.3925 -0.0598  0.3891
20552W        W38756   5.128  10.483   3.973  0.1348  0.0391 -0.2823
20553W        W38757  16.828   4.446  11.510 -0.0433  0.0590 -0.1586
20554W        W38758   1.538  17.346  15.149  0.1914 -0.0969  0.0978
20555W        W38759  12.070   7.256  14.708 -0.0533 -0.1713  0.0300
20556W        W38760   4.271  16.051  15.697 -0.0941  0.0913 -0.3707
20557W        W38761   9.346  16.815  14.077  0.2996  0.1975  0.0163
20558W        W38762   1.233   6.628   2.355  0.1658  0.0002 -0.1526
20559W        W38763   7.662  16.307  12.459 -0.0678  0.3098  0.3404
20560W        W38764  13.849   3.068  15.669  0.2695  0.0292  0.0696
20561W        W38765  16.243  14.411  16.040 -0.2009 -0.1695 -0.0493
20562W        W38766  15.043  16.935   3.803 -0.0261 -0.1935 -0.0301
20563W        W38767  12.191  13.363   3.524 -0.0584 -0.0708 -0.2228
20564W        W38768   0.602   8.739   0.436 -0.1854  0.0449  0.2395
20565W        W38769   6.049   6.319  16.773 -0.0109  0.1193 -0.1533
20566W        W38770  15.661   1.026   0.618 -0.0194  0.1908  0.1794
20567W        W38771   2.181   2.226  14.441  0.0315 -0.0577  0.0856
20568W        W38772  11.934  10.074  12.567 -0.0257 -0.2157 -0.2526
20569W        W38773   4.541   6.319   2.694 -0.0137  0.2074 -0.2410
20570W        W38774  13.016   8.091  12.855 -0.0215 -0.1587  0.1878
20571W        W38775  13.648  14.949  16.752 -0.2377 -0.0042  0.0219
20572W        W38776   7.600   2.357   2.382  0.1904 -0.0036  0.1495
20573W        W38777   2.110  10.900  12.556 -0.2947  0.2791  0.0379
20574W        W38778   7.088  16.096   0.490  0.0412 -0.0162  0.0441
20575W        W38779  12.709   5.011   3.638  0.1436  0.0945 -0.0047
20576W        W38780   9.019   8.044   0.951 -0.1653  0.2458 -0.4288
20577W        W38781   1.818  16.947   1.096 -0.3604  0.3507  0.0662
20578W        W38782  10.283   7.505   1.277  0.3037 -0.1654  0.0771
20579W        W38783  15.552   3.513  12.628 -0.0400  0.1055  0.3390
20580W        W38784  15.115   4.285  16.729 -0.0745  0.3455 -0.0577
20581W        W38785   4.052  11.968  15.171  0.1673  0.3322  0.1462
20582W        W38786   3.894   8.426  15.651 -0.4049 -0.0281 -0.1663
20583W        W38787  17.536   9.830  15.337 -0.0690 -0.3742  0.0101
20584W        W38788   4.978   3.090   0.460 -0.0676  0.1304 -0.1153
20585W        W38789   4.637  11.889   4.068  0.1606  0.0096  0.1306
20586W        W38790  14.165   1.546  15.778  0.2375  0.0685  0.1038
20587W        W38791   1.241  13.116  15.496 -0.0606  0.3835 -0.0717
20588W        W38792   5.720  17.284   1.499 -0.1901  0.0269 -0.0152
20589W        W38793   8.969   1.278  16.742 -0.1904 -0.0688  0.1024
20590W        W38794   9.420   5.467   1.619  0.1957  0.1264  0.2625
20591W        W38795  14.823   3.512  12.205 -0.1272  0.1681  0.2042
20592W        W38796  12.179  11.783   2.740 -0.1237 -0.1646 -0.3948
20593W        W38797   1.193   6.068   4.432 -0.0839  0.0507 -0.0301
20594W        W38798  17.291   4.734   3.500  0.0338 -0.2073 -0.1130
20595W        W38799   1.316  16.310   1.745 -0.2800  0.0916  0.1819
20596W        W38800   9.776   5.217  14.377 -0.0876  0.0251  0.2209
20597W        W38801  16.287   8.180   3.884 -0.1150 -0.2109  0.1103
20598W        W38802   0.821   3.609   3.475  0.0424 -0.0889 -0.1108
20599W        W38803  12.036  14.481  13.120  0.1664  0.1785 -0.0149
20600W        W38804  15.816  15.380   3.930 -0.3742 -0.0842  0.0282
20601W        W38805  14.936  15.641  13.358 -0.0298 -0.2268  0.2325
20602W        W38806   0.389  16.384  13.741  0.1997 -0.1158 -0.2592
20603W        W38807   2.917   5.071  12.736 -0.2079 -0.2852  0.0144
20604W        W38808   4.009   7.722  13.921  0.0119  0.1964  0.2275
20605W        W38809  13.223   3.662   4.198  0.0783  0.2865  0.2221
20606W        W38810  15.615  13.138   2.337  0.1909  0.0265 -0.0742
20607W        W38811   5.013   5.214   5.157 -0.2306 -0.3020 -0.0858
20608W        W38812   2.777  14.816  16.534 -0.1588  0.0181 -0.2478
20609W        W38813   3.697   6.074   5.310  0.2043  0.1637 -0.1369
20610W        W38814  17.113  11.845   5.364 -0.3152  0.1381  0.0147
20611W        W38815   7.117   1.430   3.491 -0.2423  0.3041 -0.4230
20612W        W38816   3.831  13.049   4.733 -0.0982  0.1568  0.0659
20613W        W38817   5.135   2.487  15.161  0.0233 -0.1474  0.2700
20614W        W38818  11.233  12.382  14.997 -0.0551  0.1039  0.1735
20615W        W38819   8.243   2.433   4.703 -0.3143 -0.0652 -0.1485
20616W        W38820   2.287   6.269  15.982 -0.0877 -0.0207  0.1562
20617W        W38821   5.466   1.625  16.833  0.0246 -0.1607 -0.4103
20618W        W38822   3.469  15.669   0.427  0.0822 -0.0528  0.2090
20619W        W38823   8.659   8.111   5.250  0.0648 -0.1232 -0.1348
20620W        W38824  13.569   6.614  14.515  0.1405  0.2115 -0.0060
20621W        W38825   5.062   5.275   1.908  0.2058 -0.0198  0.1109
20622W        W38826  12.731  11.306  13.280  0.0157  0.2045 -0.1299
20623W        W38827  14.894  16.243  12.656  0.0806  0.1097  0.1530
20624W        W38828   4.741   6.068  14.835  0.2757 -0.0804  0.1651
20625W        W38829   9.344   4.434  15.085  0.1524  0.1923 -0.1196
20626W        W38830   2.047  12.171  13.620  0.2339 -0.2152  0.1105
20627W        W38831   0.532  16.206   0.162  0.1409 -0.0154 -0.1813
20628W        W38832   5.263   3.201   4.025  0.1585  0.1770 -0.3719
20629W        W38833   9.412   9.059  12.385  0.0763 -0.2950  0.1511
20630W        W38834  10.128   9.475  15.982  0.4135 -0.0566  0.3865
20631W        W38835  15.390   6.282  13.850 -0.1312 -0.0253  0.1045
20632W        W38836   2.273   0.570   0.145 -0.1418 -0.3030 -0.0189
20633W        W38837  15.764   6.385   1.281  0.0468 -0.0380 -0.1051
20634W        W38838   0.815  15.601   1.514  0.2189 -0.0944 -0.1527
20635W        W38839   4.002   0.082   3.771  0.0030 -0.1282  0.0500
20636W        W38840   9.719  17.253   4.108 -0.3417 -0.0286 -0.0077
20637W        W38841   1.652  14.439   3.404 -0.0119  0.2319 -0.0478
20638W        W38842   6.103   8.817  12.306  0.1052  0.0097 -0.1256
20639W        W38843  13.958  17.311   2.999 -0.1254  0.1606 -0.0884
20640W        W38844  14.295   1.938  16.118 -0.3653  0.0921 -0.0041
20641W        W38845  16.072  13.724   1.027  0.0836  0.1374  0.0348
20642W        W38846   1.105   4.529   5.907  0.0874  0.1011  0.3730
20643W        W38847   8.008   2.646   0.696 -0.0127  0.0970 -0.0170
20644W        W38848  16.658   7.238  13.714 -0.1059  0.3770  0.3674
20645W        W38849  13.546   0.989  14.185 -0.0087 -0.2232  0.2028
20646W        W38850   7.347   5.777   2.016 -0.0746  0.2133  0.0454
20647W        W38851   1.691  14.650  16.634  0.2236 -0.2970  0.1998
20648W        W38852   8.973  11.413  13.790 -0.1061 -0.4567  0.2498
20649W        W38853   0.388   3.051   4.719  0.1396  0.2449 -0.3223
20650W        W38854  10.311   8.897  11.592  0.2074 -0.0835 -0.1213
20651W        W38855   5.581   1.049   0.925  0.3730 -0.0440 -0.2779
20652W        W38856   6.441  16.709   4.289 -0.2492 -0.2008  0.0382
20653W        W38857  15.671   0.162   4.712  0.2662 -0.0467  0.0440
20654W        W38858   6.067  15.371  16.062 -0.0061  0.1235 -0.0898
20655W        W38859  16.594   8.968   4.501 -0.0173 -0.1229  0.3185
20656W        W38860  14.758   8.651   0.046 -0.1243  0.4467  0.0697
20657W        W38861  15.768   1.126   3.362  0.1481  0.3164 -0.0646
20658W        W38862   1.211   0.559   1.621  0.0444 -0.0579 -0.2093
20659W        W38863  13.518   5.534  15.005  0.2049  0.0441  0.0750
20660W        W38864   5.912  10.258   3.450  0.1277 -0.0020  0.0985
20661W        W38865   4.621   5.056   1.185 -0.1045 -0.3188 -0.0941
20662W        W38866  15.035  11.012  16.088  0.3272  0.2428 -0.0616
20663W        W38867   9.550   3.601  15.090  0.1866 -0.0333 -0.0811
20664W        W38868   3.151  13.577  12.168  0.0129  0.0790 -0.0980
20665W        W38869   5.131  15.433   0.268  0.0814  0.3488  0.1905
20666W        W38870   9.612  11.946  13.076 -0.0986  0.2174  0.0306
20667W        W38871  13.065   3.047  13.512  0.1511  0.1089 -0.0944
20668W        W38872   8.847   1.259  12.643  0.4100  0.0338 -0.2012
20669W        W38873   3.073   4.760   3.046 -0.1876  0.1838 -0.3564
20670W        W38874   3.528   3.019  14.152  0.2652 -0.0618  0.0235
20671W        W38875  12.439  11.330   2.662 -0.1911  0.1192 -0.1200
20672W        W38876  16.975  13.209   1.436  0.4069  0.2235  0.1367
20673W        W38877   6.656   3.644  17.273  0.2564 -0.1107 -0.1944
20674W        W38878   1.802   1.572   4.810  0.1340  0.1183  0.2145
20675W        W38879   9.989   6.612  15.386 -0.0940  0.2549 -0.1073
20676W        W38880   6.329   9.189   6.185  0.2294 -0.1881 -0.0625
20677W        W38881   7.216  16.173  12.194 -0.1437  0.0045  0.1158
20678W        W38882  10.605  13.032  15.865 -0.1428  0.2822 -0.1513
20679W        W38883   2.453  10.211  16.699 -0.0706  0.1124 -0.2051
20680W        W38884   4.447  11.055  16.666 -0.4892  0.0243  0.1316
20681W        W38885   4.759  12.377   1.840 -0.3569  0.1803  0.3088
20682W        W38886  11.635   7.065   3.239  0.0961 -0.0444 -0.0445
20683W        W38887  13.079   2.039  13.240 -0.3453 -0.0942 -0.0273
20684W        W38888   1.637  14.407   2.800  0.2321 -0.0571 -0.1014
20685W        W38889   8.638  16.575   1.927  0.1630 -0.1662 -0.0229
20686W        W38890  15.090  14.341  14.739  0.0302 -0.0475  0.1461
20687W        W38891   2.827   7.013  11.880 -0.2660  0.2061 -0.2081
20688W        W38892   4.562   9.644  15.517 -0.2220  0.0248 -0.0288
20689W        W38893   7.430   9.182  14.975 -0.1812  0.2867 -0.3263
20690W        W38894   7.832   0.617  15.839  0.0813 -0.3166  0.0010
20691W        W38895   8.146   7.550   1.855  0.0769  0.0105 -0.0010
20692W        W38896  13.630  13.367   2.008 -0.2681  0.1356 -0.1119
20693W        W38897  13.634   4.801   1.478 -0.1664  0.1914 -0.2699
20694W        W38898  17.382   3.087   3.953 -0.1306 -0.1621 -0.0912
20695W        W38899  17.045   8.444   2.444  0.0988  0.4107 -0.0071
20696W        W38900  12.342   9.707   0.198 -0.2271  0.0942  0.5119
20697W        W38901   6.261   3.967  15.567  0.2083 -0.3636  0.1024
20698W        W38902  16.312  14.258   0.812  0.1632 -0.1842 -0.1154
20699W        W38903   4.212   4.771  15.583  0.2293  0.0825 -0.1177
20700W        W38904  13.901   3.835  13.317 -0.2954 -0.1974  0.2137
20701W        W38905  15.915  14.609  16.958  0.0884 -0.0075 -0.2886
20702W        W38906  16.358  16.284   0.836 -0.0303 -0.1154 -0.0302
20703W        W38907   9.545   0.564  11.226  0.2529 -0.0956 -0.0775
20704W        W38908   7.601  10.251   4.349  0.1011 -0.1074 -0.0864
20705W        W38909  14.071  13.659  16.138 -0.0119  0.3469  0.2630
20706W        W38910   1.957   0.639  12.986 -0.0588  0.1464  0.1556
20707W        W38911   9.304  14.106  14.376  0.1018  0.3882  0.0446
20708W        W38912  15.751   2.507  16.763  0.1860 -0.1368  0.0126
20709W        W38913  16.920  14.536  12.997 -0.1330  0.0175  0.0722
20710W        W38914   7.765  16.614  12.883  0.2018  0.1468 -0.0436
20711W        W38915  17.220  11.324   0.118 -0.0923  0.0335 -0.1025
20712W        W38916  17.249  16.518   5.038  0.1023 -0.3568 -0.2163
20713W        W38917   7.624   0.162  14.826 -0.0417 -0.0258 -0.0954
20714W        W38918  10.941   4.542  14.048 -0.2108 -0.1028 -0.1116
20715W        W38919   0.240   5.191   1.993 -0.3836  0.1750 -0.0620
20716W        W38920  14.082   4.042   3.055  0.1688 -0.1463 -0.4085
20717W        W38921  11.618   8.757  11.150  0.0927  0.0400  0.0846
20718W        W38922   8.764   6.559   0.674  0.0586  0.0477 -0.1717
20719W        W38923   4.800  12.779   0.328  0.0418  0.0522 -0.3274
20720W        W38924   8.348   4.443   2.622 -0.2403  0.2324  0.0360
20721W        W38925   1.366  12.561  11.522 -0.1012  0.0173  0.1259
20722W        W38926   1.500  15.704   1.038 -0.0480  0.1240 -0.0967
20723W        W38927  11.626   7.347   0.058 -0.2108  0.0721 -0.4703
20724W        W38928  16.824   1.782  16.707 -0.1038  0.0278  0.2435
20725W        W38929   5.531   8.001   3.795 -0.1331 -0.0499  0.0384
20726W        W38930  10.086   2.385   1.094  0.0944 -0.1003  0.1809
20727W        W38931   8.808   5.969  12.256 -0.1677 -0.2487  0.1814
20728W        W38932  17.499  17.506   5.254  0.1087  0.0926  0.0427
20729W        W38933   2.918  13.964   3.427 -0.3292  0.1099 -0.1176
20730W        W38934  11.661   7.866   1.048  0.0689  0.2043  0.1937
20731W        W38935   5.435  16.616   4.172 -0.1297  0.0696 -0.0492
20732W        W38936   6.137  16.975   0.758 -0.0577 -0.2473 -0.1869
20733W        W38937  17.340  16.936  11.888 -0.2666 -0.0307 -0.1054
20734W        W38938   1.070  16.391   2.286  0.1572 -0.0428 -0.0810
20735W        W38939   4.566   6.700  12.742 -0.2999 -0.1256 -0.0565
20736W        W38940  10.058   6.760   5.702  0.1901 -0.0253  0.0209
20737W        W38941  10.939  12.071   2.351 -0.0818  0.1904 -0.0551
20738W        W38942   2.055   8.787  14.112 -0.1505 -0.0606  0.1005
20739W        W38943  14.150   9.920   1.943 -0.5615  0.1579 -0.0259
20740W        W38944   7.510   8.602  11.893  0.1494  0.3207  0.0049
20741W        W38945  14.862   6.804  13.532 -0.1117 -0.1359  0.3132
20742W        W38946   9.939   8.910   2.015  0.2339  0.1234 -0.2764
20743W        W38947   4.706   2.389   5.055 -0.1376  0.2891  0.1303
20744W        W38948   8.337  10.807  12.808  0.2404 -0.0264  0.1484
20745W        W38949   7.385   0.792  16.062 -0.1169 -0.1185 -0.3115
20746W        W38950   6.649   4.120   3.280 -0.1092  0.0074  0.0418
20747W        W38951  11.074  12.646   5.791  0.0972 -0.0327  0.2400
20748W        W38952   3.046  12.383  16.872 -0.0828 -0.1435 -0.2532
20749W        W38953  14.872  10.396  14.166 -0.1573  0.2651 -0.2347
20750W        W38954  16.411   6.337  12.548 -0.2762  0.2555 -0.3951
20751W        W38955  16.255   1.374   5.938  0.0615 -0.0863  0.1708
20752W        W38956   1.669   0.179   4.591  0.0504 -0.3572 -0.1860
20753W        W38957   9.851  13.792  15.060  0.2863 -0.0238 -0.0529
20754W        W38958   9.862   6.116   1.051  0.0698  0.1651  0.0685
20755W        W38959   1.870  12.159   2.188 -0.2603  0.0615 -0.0671
20756W        W38960   8.140   3.677  12.176  0.2303  0.0591 -0.1588
20757W        W38961   8.185   1.194   0.547  0.2613 -0.2116 -0.0808
20758W        W38962   9.328   3.612  13.493 -0.1599  0.0482  0.2242
20759W        W38963   7.997   5.791  15.291 -0.1160 -0.1608 -0.1811
20760W        W38964   2.882   9.466   0.317  0.1982  0.1934  0.1902
20761W        W38965  13.502   2.749  15.868  0.0158  0.0258 -0.0803
20762W        W38966   6.771   1.845  15.033 -0.1229 -0.0269  0.2691
20763W        W38967   2.929  13.114   1.260 -0.1322 -0.1291  0.3155
20764W        W38968   6.714   0.390   0.550  0.2564 -0.0543  0.2188
20765W        W38969  11.117  15.556  14.692  0.0634 -0.0769  0.0241
20766W        W38970   4.024   8.961   2.604 -0.1423  0.0214  0.1210
20767W        W38971  16.748   6.658  13.799  0.1296 -0.1412 -0.1366
20768W        W38972   8.091   8.975  14.256  0.0372 -0.1268 -0.2298
20769W        W38973  10.241   2.212   1.572 -0.2475 -0.2753  0.1155
20770W        W38974   2.300   5.279  15.065  0.0311 -0.2173  0.0158
20771W        W38975  16.812   3.035  13.962  0.1353 -0.0735  0.2086
20772W        W38976   3.266   8.629  14.122 -0.2652 -0.0415  0.1823
20773W        W38977   4.540   6.827   2.539  0.0293 -0.1574  0.1799
20774W        W38978   2.250   1.998   2.134 -0.3473 -0.0549 -0.0515
20775W        W38979   4.381  17.195  15.308 -0.0274  0.2114  0.2185
20776W        W38980  12.044   3.888   4.824  0.0184 -0.1872 -0.0050
20777W        W38981  10.853   0.961  12.950  0.1484 -0.2731  0.3268
20778W        W38982   4.380   6.813   1.072 -0.0803  0.2232  0.1856
20779W        W38983   3.043   1.033   0.083 -0.4612  0.0165  0.1155
20780W        W38984   5.590  12.212  15.643  0.1127 -0.2471 -0.0679
20781W        W38985   0.465   1.370   0.994  0.2241 -0.2450 -0.0989
20782W        W38986  17.088   0.182  14.556  0.2046  0.3003  0.1187
20783W        W38987   1.535  12.081  14.317  0.0691  0.0887 -0.3723
20784W        W38988   0.268   5.539   2.307  0.1287 -0.1275 -0.3112
20785W        W38989  15.985   6.424  12.252  0.1363 -0.3166  0.1732
20786W        W38990  12.252  17.107  13.939  0.0718  0.4118  0.1242
20787W        W38991  10.490  13.851   2.429 -0.3181 -0.1375 -0.1265
20788W        W38992   1.631  10.308   3.270  0.0637  0.2792 -0.0324
20789W        W38993   1.804  15.090   1.167  0.0567  0.1552  0.4024
20790W        W38994   0.791   7.972   3.674 -0.0504  0.1729 -0.1044
20791W        W38995  15.245   1.626   2.407 -0.2222  0.1494 -0.0176
20792W        W38996   7.627   3.506   3.193 -0.1703 -0.0308 -0.2357
20793W        W38997   0.968   9.079   0.927 -0.0700  0.0962  0.0945
20794W        W38998  15.355  11.198  12.311  0.0442  0.4699 -0.0373
20795W        W38999   9.909   2.022  17.214  0.2117  0.2463 -0.3123
20796W        W39000   1.902   7.373   0.010 -0.2164  0.2653 -0.1407
20797W        W39001  15.532   5.555  16.260 -0.4088  0.0820 -0.1604
20798W        W39002   1.305   1.493  14.081  0.2727  0.1159 -0.0644
20799W        W39003   5.785  12.141   1.501  0.0289  0.1039  0.0234
20800W        W39004  13.679  17.347   4.877  0.1608  0.0805 -0.2461
20801W        W39005   8.246   9.661   4.238 -0.1026  0.1731  0.2006
20802W        W39006   1.240   9.413   2.301 -0.3411 -0.1328  0.0675
20803W        W39007   9.035  10.118  13.836  0.0307 -0.0792 -0.3933
20804W        W39008  16.689   4.389  15.062 -0.0521 -0.0490 -0.3012
20805W        W39009   2.290  15.723   2.561  0.4128  0.0868 -0.1862
20806W        W39010   7.591   1.466  12.983 -0.3226 -0.0565  0.0317
20807W        W39011   0.673  13.957  11.549 -0.0270 -0.1287 -0.1992
20808W        W39012  16.441   9.261   4.040 -0.0484 -0.0289  0.0790
20809W        W39013   2.213  10.058   4.951 -0.1597 -0.0332  0.0121
20810W        W39014  12.909  17.114   1.351  0.0706 -0.0049  0.1419
20811W        W39015  10.992  14.334  15.420 -0.0293  0.0743  0.0981
20812W        W39016   8.239   4.877   1.143  0.2409  0.3713 -0.4510
20813W        W39017   0.288   6.974  17.273 -0.1065  0.2582  0.2110
20814W        W39018  16.922   4.048  16.319 -0.5014 -0.0559  0.0846
20815W        W39019   4.986  11.894  16.039 -0.1616  0.1557 -0.1015
20816W        W39020  15.658  12.221   0.982 -0.0563 -0.1210  0.2191
20817W        W39021   2.730  10.934  15.983  0.0998  0.0157 -0.1823
20818W        W39022   3.380  11.426   2.640  0.3141  0.2719 -0.1983
20819W        W39023  17.304  16.675  15.273 -0.1880  0.0806 -0.1353
20820W        W39024   8.070  14.628   2.691  0.2965 -0.0380 -0.2694
20821W        W39025  15.867  15.816   4.838 -0.1187  0.0402 -0.0078
20822W        W39026   8.819   5.335  13.460 -0.2367 -0.1592 -0.1620
20823W        W39027  12.229  11.450  15.211 -0.2228  0.0976 -0.1153
20824W        W39028  16.970   0.416   3.982  0.2399  0.0189  0.0121
20825W        W39029  12.267   1.333  13.001  0.2464  0.1180 -0.4245
20826W        W39030   6.251  14.393   2.156  0.1328 -0.1286 -0.2702
20827W        W39031  15.336  10.829   2.518 -0.0069  0.2189 -0.1162
20828W        W39032  10.082  11.650   5.442 -0.0550  0.0811  0.1057
20829W        W39033   0.099   3.750  13.463 -0.2077 -0.1591 -0.0422
20830W        W39034  17.381  12.645  17.246 -0.1439  0.1783  0.0637
20831W        W39035  12.925  15.933   6.301  0.0668 -0.0440 -0.1189
20832W        W39036   8.329   1.819  14.760 -0.1756 -0.0500 -0.1722
20833W        W39037   4.443  17.349  12.232  0.1155  0.3114 -0.2017
20834W        W39038   8.314   8.903  13.364  0.0004  0.0256 -0.0183
20835W        W39039   5.307  11.808  15.233 -0.0205 -0.1971  0.0197
20836W        W39040   2.792   9.626  16.058 -0.4611 -0.2390  0.0237
20837W        W39041   3.645  11.784   4.941  0.1865 -0.1590  0.3443
20838W        W39042   1.546   6.938  13.692 -0.3217  0.0564  0.2036
20839W        W39043  14.641  16.510   5.771  0.0535 -0.2517 -0.1800
20840W        W39044   4.228   5.715  15.074  0.0364 -0.2838 -0.1117
20841W        W39045  14.044  16.761  16.683  0.0156  0.1794  0.0299
20842W        W39046   7.588  16.272   0.539  0.1048 -0.0220 -0.1352
20843W        W39047   8.874   1.932  14.579  0.1335 -0.1172 -0.1280
20844W        W39048  12.482  17.226   0.486  0.0838 -0.1476  0.1116
20845W        W39049   2.939   1.500  14.096  0.0687 -0.0116 -0.1322
20846W        W39050   8.328  16.494  17.214 -0.0891 -0.2458 -0.0373
20847W        W39051   3.360  11.586   0.629  0.1431 -0.1439  0.0330
20848W        W39052   1.253  12.359   1.549 -0.0224 -0.1694 -0.3569
20849W        W39053  10.905  15.346   0.652 -0.1433  0.1968  0.1994
20850W        W39054   8.391  14.011   2.094 -0.0887 -0.3615  0.0312
20851W        W39055   6.082   6.001   5.168  0.0761 -0.1297  0.0206
20852W        W39056  17.476   3.787   0.938 -0.0288  0.1309  0.0615
20853W        W39057  10.868   2.446   4.596 -0.1205 -0.3136 -0.0027
20854W        W39058   8.764   3.584  13.430 -0.1958 -0.1215 -0.2300
20855W        W39059  15.388   8.952   4.519  0.0313 -0.0126  0.0582
20856W        W39060  17.204   4.515  15.189 -0.1711  0.1885 -0.0321
20857W        W39061   7.362   4.877  14.860 -0.0970  0.6183 -0.4263
20858W        W39062   2.881   8.856  16.705  0.2621  0.0871 -0.2316
20859W        W39063  16.026  15.469   5.235 -0.2746 -0.2778  0.0186
20860W        W39064   3.369   6.879  15.635 -0.1283 -0.0783 -0.0916
20861W        W39065   2.026   4.249   0.656  0.1664  0.3261 -0.0460
20862W        W39066  11.920   5.069   4.432 -0.2373 -0.4638  0.1307
20863W        W39067  16.644   4.344  14.561  0.2680 -0.1875 -0.0654
20864W        W39068   5.464  15.027  15.499  0.2011  0.1160  0.0469
20865W        W39069  11.134   0.133   1.946  0.4465  0.2208 -0.3137
20866W        W39070  10.465  11.075   1.178 -0.0646  0.2059 -0.0190
20867W        W39071   8.173  15.077  16.080  0.0337 -0.0857 -0.0635
20868W        W39072   1.532   7.264   4.022  0.0893 -0.0107  0.1914
20869W        W39073  11.675  15.660  13.310 -0.1765 -0.0024 -0.1188
20870W        W39074   4.539  15.453   0.351  0.3450 -0.2009  0.1335
20871W        W39075  17.418   3.323  14.998  0.0404  0.5192  0.1038
20872W        W39076  10.933   9.988  13.980  0.2490  0.0522 -0.0262
20873W        W39077   4.381  10.015   4.316  0.5219 -0.2412 -0.1000
20874W        W39078   6.094  16.844  16.230 -0.0806  0.3177 -0.0193
20875W        W39079   2.207   3.465   2.856  0.1691 -0.0685 -0.0161
20876W        W39080  13.651   9.557   0.096 -0.3221  0.1862  0.3319
20877W        W39081  10.451   7.137   2.447 -0.3311  0.0997  0.2004
20878W        W39082   6.897   5.522  12.023 -0.0430  0.1385 -0.2543
20879W        W39083   7.593   5.502  16.329  0.3107  0.0085 -0.0775
20880W        W39084   5.523   3.248  13.532  0.2993 -0.0723 -0.1318
20881W        W39085   4.100  13.780   4.095 -0.3943 -0.1041  0.1222
20882W        W39086   1.307   2.893  14.299 -0.3539 -0.0708 -0.1682
20883W        W39087   5.459   4.518  14.627 -0.1156  0.2589  0.2540
20884W        W39088   7.784   0.886  16.911 -0.1830  0.1477  0.1870
20885W        W39089   6.624  10.025   0.292  0.3056 -0.1043  0.2386
20886W        W39090  11.051   1.638   1.474  0.2262  0.2108  0.2265
20887W        W39091  15.433  16.166   2.400  0.0935  0.1024  0.0979
20888W        W39092  13.506   5.694   5.198  0.1639  0.4003  0.1567
20889W        W39093   6.115  10.106   2.705 -0.0541 -0.2092 -0.0966
20890W        W39094   5.318   8.601   4.779 -0.0405 -0.0366  0.0825
20891W        W39095   8.018   8.023  16.276  0.1080  0.0253  0.2057
20892W        W39096   5.423  15.496  15.339 -0.0109 -0.2649  0.1877
20893W        W39097   9.598   9.977   4.091 -0.1379  0.0038  0.1031
20894W        W39098  10.818   5.998   2.322  0.2274 -0.2022  0.1968
20895W        W39099  13.631   9.544  13.812  0.1284 -0.0282  0.0633
20896W        W39100  14.098  14.253  11.155  0.0067  0.1883  0.2668
20897W        W39101   1.668  17.372   2.686  0.0458 -0.1194  0.0430
20898W        W39102  14.628  13.447   5.094  0.1205 -0.0705  0.0431
20899W        W39103  15.875  13.425   4.073  0.2415  0.3712 -0.1713
20900W        W39104   9.672  15.187   5.541  0.1730 -0.1058 -0.0224
20901W        W39105   6.805   9.570  13.929  0.0339 -0.0852  0.2129
20902W        W39106   3.198  14.278   2.080 -0.2207 -0.5482  0.0663
20903W        W39107  14.195  15.840  14.732  0.0734  0.2632  0.3615
20904W        W39108   3.977   8.995   3.669 -0.3492 -0.1252 -0.0095
20905W        W39109   2.007  14.593   4.646  0.1126  0.1552 -0.1716
20906W        W39110   3.877  16.364  14.406 -0.0674 -0.0204 -0.2029
20907W        W39111   5.991   3.383   0.619 -0.1113  0.1242  0.1660
20908W        W39112  10.866   1.100   1.811 -0.0497 -0.3954  0.1058
20909W        W39113  15.444  10.179   0.429 -0.0871 -0.1930  0.0228
20910W        W39114  14.107  13.277   2.767  0.0819 -0.2205 -0.3457
20911W        W39115   8.208  14.143   2.558 -0.0352  0.0009  0.3250
20912W        W39116   5.109   6.784   0.961 -0.1597 -0.1848 -0.2746
20913W        W39117   8.136   9.327  16.872  0.1328 -0.0848  0.1144
20914W        W39118  11.360   3.028   1.747  0.3911  0.1745  0.0746
20915W        W39119  13.568   2.445   2.460 -0.1914  0.0158  0.1546
20916W        W39120   3.012   0.602   3.275 -0.1093  0.0919 -0.2213
20917W        W39121   3.499   1.990   3.153 -0.2311  0.0323 -0.2876
20918W        W39122   6.376  11.392  12.931  0.3746  0.2203 -0.0414
20919W        W39123   2.895   6.947   3.618  0.0088 -0.0584 -0.1274
20920W        W39124   2.228   8.162   2.590  0.1628 -0.1235  0.2835
20921W        W39125   1.797  10.337   1.428 -0.3920  0.1443 -0.2058
20922W        W39126  13.234  14.037   1.832  0.3794 -0.0914 -0.1909
20923W        W39127   5.505  14.000   4.173 -0.1386 -0.1509 -0.0888
20924W        W39128  16.205  13.215  11.363 -0.1282  0.0352 -0.1980
20925W        W39129   9.789   1.675  13.561 -0.1436  0.1009 -0.2762
20926W        W39130  17.119  10.816  17.179 -0.2019  0.1118 -0.1402
20927W        W39131  11.184  10.626  12.709 -0.0055  0.0439 -0.0814
20928W        W39132  15.470   6.694   2.982  0.1609 -0.5625  0.1377
20929W        W39133   0.232  14.107  16.641  0.3269 -0.1116  0.2352
20930W        W39134  16.498   6.972  15.658  0.1472 -0.0051  0.0817
20931W        W39135   2.118   9.753   5.318 -0.2723  0.0357  0.0232
20932W        W39136   2.445   0.663  14.868  0.1419 -0.2560 -0.0349
20933W        W39137   7.575   9.307   3.061  0.1618  0.1692 -0.0064
20934W        W39138   3.862   4.411   1.410  0.0766 -0.0370 -0.1788
20935W        W39139   9.065  14.054   4.284 -0.1450 -0.0441  0.0842
20936W        W39140   8.195  13.281   4.981 -0.0935 -0.1514  0.0888
20937W        W39141   4.133   6.626  13.381  0.1747 -0.1045  0.0885
20938W        W39142   1.361   2.878   2.251 -0.5142 -0.1973  0.0192
20939W        W39143   6.857   5.124  14.026 -0.2208 -0.1558 -0.0855
20940W        W39144   6.351  13.231  16.890  0.1434  0.1462  0.0385
20941W        W39145   6.806   4.043   4.757  0.0520  0.1820  0.1142
20942W        W39146   1.224  16.344  15.083  0.1457  0.0837  0.0529
20943W        W39147  15.790   5.888  15.912 -0.3059  0.1358 -0.1039
20944W        W39148  13.889  12.164   5.722  0.1767 -0.1509 -0.0600
20945W        W39149  11.394  11.050  13.394 -0.1073  0.0067 -0.0299
20946W        W39150   7.267  10.500  11.965  0.1112  0.1771 -0.1113
20947W        W39151  15.947   8.055   4.491 -0.0910 -0.2221 -0.1939
20948W        W39152   0.557   6.490   4.137 -0.0350 -0.3090 -0.2926
20949W        W39153  12.704  14.487   5.388 -0.1467 -0.3125 -0.3522
20950W        W39154   0.105  13.986  14.991  0.3327 -0.0482 -0.1682
20951W        W39155   4.912   3.675  16.944  0.5448 -0.1771 -0.1132
20952W        W39156   5.257  10.005   3.722 -0.2683  0.1490 -0.0805
20953W        W39157   4.426  13.756   2.859 -0.1608  0.0390  0.0170
20954W        W39158  14.706   0.568   3.272 -0.0886 -0.1131 -0.0715
20955W        W39159  10.905   1.147   4.514  0.1931  0.0279 -0.1810
20956W        W39160   7.330   6.220  14.989  0.0231  0.0395 -0.2472
20957W        W39161   2.939   3.801  14.276  0.3662 -0.1341 -0.3037
20958W        W39162   7.482  15.573  16.048  0.0287  0.4221 -0.2379
20959W        W39163   5.319  12.168  12.529  0.2290  0.0249  0.1453
20960W        W39164   3.814   0.350  11.900  0.0450 -0.0287  0.2317
20961W        W39165   0.486  13.935   3.159 -0.5058  0.1645 -0.0628
20962W        W39166   7.363   6.945   4.285 -0.1388  0.0123 -0.0500
20963W        W39167   0.694   6.607  15.361  0.0932 -0.0690  0.1175
20964W        W39168  17.326   7.738  16.831 -0.2295  0.0829 -0.0084
20965W        W39169   4.265  15.791  16.518 -0.2195  0.0739  0.0110
20966W        W39170   5.253   2.482  13.333 -0.1528  0.2348  0.1220
20967W        W39171   9.025  10.028  13.195 -0.2948  0.0367 -0.0368
20968W        W39172  14.063   8.102   3.567 -0.0043 -0.0210  0.1270
20969W        W39173   3.272  15.739  14.414  0.2343 -0.2110  0.0409
20970W        W39174  17.030  14.620   0.293 -0.0930  0.0378  0.0130
20971W        W39175   4.177  14.494   3.836 -0.1145 -0.2196 -0.0591
20972W        W39176   8.640  12.186   4.974  0.1075  0.0470  0.1065
20973W        W39177   0.749  12.489  14.791 -0.0824  0.1960  0.3106
20974W        W39178  14.625  16.858  12.487  0.1090  0.4583 -0.0852
20975W        W39179  10.615   3.010   2.451  0.1152  0.3133 -0.0867
20976W        W39180   6.184  15.872   1.000  0.2937  0.0822 -0.1233
20977W        W39181  15.354   2.770   2.532  0.2477  0.3290 -0.0160
20978W        W39182   1.438   3.103  16.458  0.0933 -0.0782  0.5768
20979W        W39183  15.015   3.633   0.386 -0.0463  0.1693 -0.0613
20980W        W39184   5.094   0.819   2.848 -0.0908  0.0529  0.2460
20981W        W39185   1.396   4.448  16.088  0.2948 -0.0579 -0.0747
20982W        W39186  14.294  10.799   1.562  0.0897 -0.2980  0.0344
20983W        W39187   6.677  16.475  15.082 -0.0988  0.1502  0.2377
20984W        W39188  13.495  12.567   3.912 -0.0863  0.1173  0.0171
20985W        W39189  13.130   1.478  12.574 -0.2370 -0.0899  0.0424
20986W        W39190   2.375   3.939  12.564  0.0865 -0.1660  0.0507
20987W        W39191  10.526  10.095   3.198 -0.1804 -0.0966  0.0940
20988W        W39192   9.836  14.522  13.757  0.2550  0.0581 -0.1659
20989W        W39193   1.938   3.331  13.738 -0.0920  0.1454  0.0154
20990W        W39194   0.234  12.320  17.012 -0.0630 -0.0798  0.1373
20991W        W39195   0.628  12.402  12.115 -0.0844 -0.3252  0.0803
20992W        W39196   1.236   4.344   4.678 -0.1004 -0.0706 -0.1436
20993W        W39197   8.596  14.753   1.258  0.0812  0.1680  0.0586
20994W        W39198  12.894   6.329   4.061  0.2774  0.1592  0.2197
20995W        W39199   7.032  14.185   1.557  0.0452 -0.0060  0.1210
20996W        W39200   2.909   5.316  14.410  0.0796  0.3440  0.3281
20997W        W39201   4.158   6.224   3.567 -0.3212  0.0191 -0.0941
20998W        W39202   8.480   2.067  14.193 -0.0998 -0.2189 -0.0665
20999W        W39203  15.152  13.079  16.065  0.3476 -0.1921 -0.0489
21000W        W39204  10.395  15.439  15.362 -0.0308  0.2940 -0.3877
21001W        W39205  15.509   0.925  14.983  0.1119 -0.0385  0.4750
21002W        W39206  14.898  14.113   5.803 -0.0468 -0.0759 -0.1563
21003W        W39207   7.272  14.313  15.715  0.1868 -0.2254  0.0738
21004W        W39208   5.751  14.293   4.882 -0.1387 -0.0385  0.0230
21005W        W39209   6.531   6.162   1.146  0.1050 -0.1108  0.2503
21006W        W39210  15.405  10.040  16.799  0.0706  0.1700  0.0090
21007W        W39211   9.687   8.566   4.638 -0.1126  0.3382 -0.1823
21008W        W39212  11.066   5.260  13.835  0.0451 -0.1823 -0.0614
21009W        W39213  10.935   5.070  11.788 -0.1893  0.0220  0.2009
21010W        W39214  11.597   4.775  15.536  0.0373 -0.3378  0.1626
21011W        W39215   8.953   3.403  12.500  0.0362  0.4229 -0.0791
21012W        W39216  11.769  11.389   2.520  0.2344 -0.0563  0.0289
21013W        W39217   9.318   1.842   5.097  0.0613  0.1092 -0.4106
21014W        W39218   0.213   4.868  16.749  0.0235 -0.1656 -0.3069
21015W        W39219  17.022  11.058   4.080 -0.3035 -0.1117  0.1196
21016W        W39220   8.126   0.126   1.377 -0.3283  0.1533  0.1686
21017W        W39221   2.428   2.785   3.320 -0.0545  0.2403  0.2102
21018W        W39222   1.918   7.971  12.468  0.2211  0.2937  0.0625
21019W        W39223  15.447   3.873  16.705 -0.1743  0.0849 -0.2836
21020W        W39224  12.791   3.836  14.443  0.1297 -0.0211 -0.0271
21021W        W39225  12.214   8.391  16.127 -0.1164  0.1699 -0.0222
21022W        W39226   8.378  16.885   2.896 -0.1029 -0.3953  0.0926
21023W        W39227  14.588   1.087  12.431  0.0593  0.0939 -0.1691
21024W        W39228  16.274  15.149   6.196  0.0443 -0.1847 -0.0522
21025W        W39229   2.725   4.944  13.906  0.3538 -0.1197 -0.1702
21026W        W39230   7.398   4.293   1.072 -0.0213 -0.0253 -0.0337
21027W        W39231   0.963   1.836   2.774  0.2118  0.1461 -0.2565
21028W        W39232  14.504  15.348  15.711  0.3465 -0.1975  0.2051
21029W        W39233  11.129   3.323  15.857 -0.2026 -0.0463 -0.1975
21030W        W39234  11.853  16.092   5.358 -0.0849 -0.2078  0.1270
21031W        W39235  11.584   1.310   3.168  0.0319 -0.0351  0.3626
21032W        W39236   4.915   8.128  14.307 -0.2939 -0.1294 -0.0011
21033W        W39237  13.512  16.784   5.949 -0.0654 -0.0111  0.0010
21034W        W39238   0.060  12.574  13.367  0.1852  0.2239 -0.0274
21035W        W39239  12.448  14.039   5.631 -0.3945 -0.1498  0.3286
21036W        W39240   1.018   3.582   2.646 -0.2887  0.1149 -0.1566
21037W        W39241  13.822   5.584   0.332 -0.1749 -0.0505 -0.0714
21038W        W39242   9.689   9.525  13.967  0.0144  0.0610  0.0041
21039W        W39243   4.731   3.656   2.775 -0.0247  0.1133  0.1522
21040W        W39244  12.922   4.142   3.997  0.1750 -0.0053  0.0508
21041W        W39245  16.429   9.356  12.723 -0.1013 -0.0901  0.0716
21042W        W39246   4.135   0.241  13.651 -0.0169 -0.0280 -0.4181
21043W        W39247   8.111  14.864   1.828  0.2966  0.1552 -0.1083
21044W        W39248   1.472  10.418  14.297  0.4148 -0.2520  0.0157
21045W        W39249   1.164  15.917  13.640  0.0175  0.0535 -0.0356
21046W        W39250   0.896   7.610  17.015 -0.2638 -0.0417 -0.1009
21047W        W39251  12.236  15.401   6.183 -0.1788 -0.0369 -0.1001
21048W        W39252  11.447   5.671   4.941 -0.1939  0.2580 -0.4916
21049W        W39253   3.865   2.562  13.003 -0.2031  0.0574 -0.0025
21050W        W39254  12.866   7.222   0.926 -0.3116  0.0184  0.2021
21051W        W39255  15.379   6.239   2.856 -0.3850 -0.0008  0.3342
21052W        W39256  16.218   3.106  13.909 -0.0027  0.1054  0.1281
21053W        W39257   8.640  11.004   2.334 -0.0472 -0.1309  0.1850
21054W        W39258  14.731   8.761  13.710 -0.4669  0.0656 -0.0093
21055W        W39259   5.552   6.134  16.545  0.2159 -0.0807  0.3759
21056W        W39260   7.530   4.237  16.357 -0.1690 -0.1656  0.2511
21057W        W39261  14.086  12.196  14.963 -0.0095  0.0778 -0.4062
21058W        W39262  16.053  15.097  16.956 -0.2283  0.0704  0.1029
21059W        W39263   5.501  14.550   4.455 -0.1604 -0.2588 -0.0976
21060W        W39264   7.897   4.180   2.410  0.1129 -0.0601  0.0410
21061W        W39265   8.910   1.503   0.955 -0.0754  0.0113 -0.1840
21062W        W39266  12.779   9.934   0.370  0.3992  0.0869 -0.0573
21063W        W39267   6.765  16.482  13.310  0.1334  0.1617 -0.1007
21064W        W39268  10.349   9.605   0.101 -0.0687 -0.0757 -0.0096
21065W        W39269   4.324   0.347   4.028 -0.1474 -0.2214 -0.0652
21066W        W39270  13.123   8.680   2.506 -0.0641 -0.0862 -0.1051
21067W        W39271   5.247  11.426   3.671  0.1271 -0.0105 -0.1910
21068W        W39272   0.314   8.895   1.331  0.0106 -0.0721  0.2264
21069W        W39273   8.658   2.561  14.314 -0.2849  0.1466  0.0438
21070W        W39274  17.125   3.341   3.148  0.0248 -0.0802 -0.1757
21071W        W39275  15.913   9.924   3.083  0.0538 -0.3009  0.4983
21072W        W39276   1.954   2.136  16.304 -0.0838  0.2903  0.0836
21073W        W39277   2.629  16.212  12.268  0.2182 -0.0810  0.1639
21074W        W39278  14.389  16.307  12.968 -0.0839  0.1797 -0.0385
21075W        W39279   3.425   0.675   0.822  0.1821  0.0646 -0.1211
21076W        W39280   2.823   4.903   0.803 -0.0640 -0.2626 -0.0781
21077W        W39281   1.891   8.332   0.518 -0.2832 -0.0813  0.2486
21078W        W39282  15.169  16.633   5.322  0.0417  0.1300 -0.2735
21079W        W39283   6.517   8.444  14.722 -0.0989 -0.2204  0.2786
21080W        W39284  17.084  15.180   1.124 -0.1216  0.2257 -0.2956
21081W        W39285   9.670  12.644  16.793  0.0034 -0.0023 -0.2104
21082W        W39286   9.705   9.085   4.090 -0.0513 -0.0140  0.0891
21083W        W39287  11.729  14.377  12.285 -0.1316  0.1508  0.0394
21084W        W39288   0.146   6.296   0.398  0.0390  0.2334  0.1471
21085W        W39289   0.022  16.827  14.874  0.2275  0.1294  0.1084
21086W        W39290   0.485   0.869   1.059  0.0705 -0.0310 -0.0471
21087W        W39291  12.416   5.516  14.003  0.4458  0.1130  0.1302
21088W        W39292  16.193  13.002   2.725  0.1918  0.1045  0.0297
21089W        W39293  10.119   9.785   1.307  0.0744  0.1107  0.1850
21090W        W39294  10.146   3.936   2.583  0.2519 -0.0668  0.2650
21091W        W39295  14.710  15.087  13.043 -0.1071 -0.0719 -0.0127
21092W        W39296   2.763  17.224   0.125 -0.1327 -0.0638  0.0096
21093W        W39297  14.321  12.500  13.982  0.0951  0.0247 -0.0905
21094W        W39298  16.424  14.879  13.105  0.3328 -0.0094  0.1573
21095W        W39299  12.311   4.563   3.718  0.0322  0.0013 -0.1149
21096W        W39300   7.273  10.635  15.724 -0.1636 -0.0197 -0.1653
21097W        W39301  15.030  13.399   0.057  0.0472  0.0139 -0.1985
21098W        W39302   9.070   3.985   0.511  0.1015 -0.0251 -0.1557
21099W        W39303   9.202   2.118  16.052 -0.0131 -0.3706  0.3637
21100W        W39304   6.066   5.374   0.938  0.3486 -0.0720  0.0071
21101W        W39305  13.121   6.547   3.149 -0.0366  0.2720  0.2016
21102W        W39306   2.014  11.196  13.179 -0.1083  0.1460 -0.0991
21103W        W39307   3.196   1.080  15.559 -0.1647 -0.0880 -0.0296
21104W        W39308   0.791  14.748   3.971 -0.2446  0.1189 -0.0879
21105W        W39309  15.599   0.482   4.234 -0.1079 -0.0205  0.1278
21106W        W39310  11.272   2.724   5.131  0.0414  0.1666 -0.2475
21107W        W39311   9.920  10.222   4.867  0.0151 -0.0150  0.1553
21108W        W39312  16.523   3.799   0.495  0.0912 -0.2505 -0.0145
21109W        W39313  12.704   4.321   5.232 -0.2654 -0.0637  0.1633
21110W        W39314   7.416  16.631   2.931 -0.1234 -0.0007 -0.0665
21111W        W39315  14.087  14.422  15.104  0.3300 -0.0301 -0.0638
21112W        W39316   7.328   8.617  15.848  0.0117 -0.1510  0.0044
21113W        W39317   8.001  13.021  15.495  0.1475 -0.3003 -0.0461
21114W        W39318  14.478   0.753   0.816  0.0165 -0.0444  0.1361
21115W        W39319   4.883  13.390   1.316 -0.0541 -0.1895  0.1201
21116W        W39320   3.678   7.956  13.543 -0.1477  0.1341  0.1946
21117W        W39321  16.723  14.448  13.497  0.1714 -0.0138  0.1596
21118W        W39322   3.861  15.269   1.007  0.1073  0.0349  0.1365
21119W        W39323  14.746   9.075   0.326  0.0358  0.0528 -0.2447
21120W        W39324   0.155   1.446   2.976  0.0814 -0.2497  0.0188
21121W        W39325   1.328  16.474  13.518  0.3280  0.1010  0.2037
21122W        W39326  17.261   9.504  14.389 -0.0927  0.1993  0.1535
21123W        W39327   9.100   1.003   1.268  0.1540  0.4581  0.0765
21124W        W39328  13.514   9.019   3.396 -0.1063  0.3440 -0.1870
21125W        W39329   3.729  10.043   2.980  0.0244  0.0816  0.1649
21126W        W39330   8.053  16.565  14.602  0.3126  0.0604  0.0614
21127W        W39331  12.039  10.924   0.183  0.0396  0.3826 -0.0758
21128W        W39332   8.136   8.144   5.289  0.0965  0.2994 -0.0132
21129W        W39333   4.833  14.245  12.926  0.0340  0.0476  0.2412
21130W        W39334   6.533   2.206   4.478 -0.2636  0.2684  0.0001
21131W        W39335   0.725   1.612   2.061 -0.2964 -0.0420  0.0558
21132W        W39336   6.292   7.108   0.513  0.1271 -0.4883  0.0389
21133W        W39337   5.642  16.273  13.161  0.0954 -0.0589 -0.2249
21134W        W39338  12.475   9.640  12.551 -0.2958 -0.0439 -0.1043
21135W        W39339  14.689   6.274  12.723  0.1951 -0.1192 -0.1691
21136W        W39340  11.161  14.020   4.481 -0.0424  0.1970 -0.1248
21137W        W39341   2.037   1.259  15.816 -0.0873 -0.4375 -0.1703
21138W        W39342   5.981  16.103  14.535 -0.0592  0.1271  0.2824
21139W        W39343   1.889   3.758  15.706  0.1248 -0.2152 -0.2271
21140W        W39344  11.090   0.064  14.101  0.0320  0.1303 -0.0225
21141W        W39345   8.777   6.682  12.477 -0.2885  0.2043 -0.0728
21142W        W39346  17.219  16.461   1.850  0.3075 -0.1967 -0.0310
21143W        W39347   4.527   1.318   4.910 -0.2853 -0.3315  0.2199
21144W        W39348   7.305  17.477   5.036 -0.0306 -0.1475  0.2218
21145W        W39349   4.227  15.866   1.971 -0.3095  0.0496 -0.4080
21146W        W39350  13.012   4.720   2.841  0.0643 -0.1127 -0.2241
21147W        W39351  16.596  14.204   5.857  0.1951 -0.0709  0.1412
21148W        W39352   7.369   4.468   4.146  0.1225 -0.0761 -0.0693
21149W        W39353   6.938  11.767   2.976  0.0115  0.0681  0.1736
21150W        W39354  16.953   6.368  12.657 -0.1284  0.1145  0.0193
21151W        W39355   2.608   8.679   1.657  0.2448  0.5405  0.3735
21152W        W39356  13.737   8.157  14.694  0.0870 -0.0288 -0.0557
21153W        W39357  16.510  15.394   5.397  0.0243  0.0993  0.2615
21154W        W39358   6.607   1.819   3.444  0.0108  0.0259  0.1051
21155W        W39359  13.579   7.649   2.973 -0.1301  0.0168 -0.1525
21156W        W39360   9.583   8.278  13.159 -0.2362 -0.1391  0.0009
21157W        W39361   7.102   5.095  12.165  0.0278  0.0277  0.0430
21158W        W39362  14.360   0.330   0.006  0.4696 -0.3470 -0.1671
21159W        W39363  13.710  16.978   3.422  0.0683 -0.2208  0.0160
21160W        W39364   5.713  12.980   3.101 -0.1447  0.2149  0.3179
21161W        W39365  11.437  17.304   3.233 -0.2209  0.2026  0.1347
21162W        W39366  15.841   6.675   1.723  0.2903 -0.1309  0.0824
21163W        W39367  11.410   1.082   4.576  0.1003  0.0272  0.0805
21164W        W39368  14.993  16.111  16.977  0.0925  0.0116  0.0265
21165W        W39369   9.606   4.836  13.433  0.0810 -0.0746 -0.1134
21166W        W39370   4.093   1.322   5.748 -0.0575 -0.0891 -0.0456
21167W        W39371   4.748  13.339   4.577 -0.4880  0.0266 -0.0487
21168W        W39372   7.061  17.388   5.866  0.2185  0.1037 -0.2354
21169W        W39373   6.045  12.282  16.778 -0.2086  0.2320 -0.0146
21170W        W39374   1.118  10.582  13.930 -0.3221  0.0951  0.0554
21171W        W39375   5.766   7.559  17.236  0.0883  0.1344  0.1540
21172W        W39376  15.745  11.322  17.251 -0.1970 -0.2282 -0.0237
21173W        W39377   1.475  10.454   1.080 -0.0430 -0.1656  0.1481
21174W        W39378  11.060   2.986   3.346  0.2028  0.0617  0.0661
21175W        W39379   6.074  11.620  11.687  0.0965  0.1279  0.1003
21176W        W39380  16.953  13.218  14.950 -0.0315  0.0711  0.0133
21177W        W39381   3.648  15.157  16.955 -0.2791  0.2180  0.0286
21178W        W39382   0.030  11.690   4.275 -0.2100 -0.1194 -0.0406
21179W        W39383   2.676  14.125   5.176 -0.0642  0.0111  0.1949
21180W        W39384  13.038  12.824  15.453 -0.0385 -0.1798  0.0127
21181W        W39385  14.477   1.728  12.982 -0.0185 -0.1730 -0.2448
21182W        W39386  16.234   7.135  13.374  0.2392 -0.3394  0.0986
21183W        W39387  16.972  10.362  11.940  0.3339 -0.0568  0.0923
21184W        W39388  12.902  15.147   0.249  0.1995 -0.0650 -0.3508
21185W        W39389  13.253   7.598  14.620  0.1381  0.0038  0.3398
21186W        W39390   8.786  16.348   2.939  0.1185 -0.1630  0.0295
21187W        W39391   9.443  12.838  12.110  0.0463  0.1805  0.0777
21188W        W39392  16.429   9.628   2.032  0.1700  0.0121  0.1834
21189W        W39393   8.168  12.092   5.131  0.0338 -0.0438 -0.0036
21190W        W39394  10.746   8.193   2.421  0.1914 -0.1585  0.2827
21191W        W39395   0.697  12.014  12.875  0.0705  0.1250  0.1854
21192W        W39396   0.443   9.116   5.027 -0.0138  0.2952 -0.0562
21193W        W39397  17.114  11.205   3.576 -0.3095 -0.1449 -0.0085
21194W        W39398   6.269   6.720  13.871 -0.5030 -0.1265 -0.3003
21195W        W39399  15.424  15.211   0.218  0.1997  0.0827  0.2803
21196W        W39400   8.786  14.020  17.163  0.1666  0.0750 -0.1078
21197W        W39401   6.610   3.583  16.165  0.0228  0.2453 -0.2260
21198W        W39402   2.239   4.397   0.134  0.1112 -0.1296  0.0425
21199W        W39403  12.969   8.953  15.053 -0.1108 -0.2724  0.0108
21200W        W39404   6.606   0.395  15.612 -0.1788  0.2972 -0.1057
21201W        W39405  12.316   8.152  14.052  0.1957 -0.1160  0.2323
21202W        W39406   7.442   2.205   5.045  0.2279 -0.1032 -0.0570
21203W        W39407  15.156   8.420   4.246  0.0233  0.2880  0.2038
21204W        W39408  13.382   3.606   0.435 -0.0762 -0.1206  0.1643
21205W        W39409  13.576   4.310  16.553 -0.1303  0.0441  0.3351
21206W        W39410   5.463  16.679  12.679 -0.0393  0.3005  0.2016
21207W        W39411  10.254   7.031   1.151  0.1317  0.0574  0.3607
21208W        W39412   4.659  16.481  13.087 -0.2408 -0.1721 -0.3753
21209W        W39413  10.410   6.990   4.754 -0.0861  0.3220  0.0967
21210W        W39414   4.086   1.164  13.176 -0.1716  0.0243 -0.1520
21211W        W39415   4.882  16.458  16.316 -0.3292 -0.0393  0.0330
21212W        W39416  13.967   4.733   2.114  0.1907  0.0145 -0.0881
21213W        W39417  15.298   3.303   3.208 -0.0429 -0.0925 -0.0852
21214W        W39418  15.084  15.039  16.876 -0.2612 -0.1509  0.0435
21215W        W39419  12.471  15.503   5.785  0.1596  0.0854  0.1108
21216W        W39420   4.757  16.089  12.668  0.0216  0.2124 -0.2473
21217W        W39421   9.759   3.247   4.606 -0.1190  0.0944  0.2032
21218W        W39422   3.135   8.822   4.882  0.2674 -0.0324  0.1035
21219W        W39423   3.925   3.660   1.948 -0.0256 -0.0211 -0.4270
21220W        W39424   9.218  11.602  11.924  0.0534  0.0145 -0.2242
21221W        W39425  12.646   8.922  13.087  0.0811  0.0009 -0.1279
21222W        W39426   0.104  12.111   4.638 -0.1286  0.2961 -0.2396
21223W        W39427  13.901  16.171  16.920  0.2867 -0.3487 -0.1725
21224W        W39428   1.598  11.984   1.756 -0.2273  0.1308 -0.2906
21225W        W39429  14.944   3.700   2.351 -0.1376 -0.2487  0.0259
21226W        W39430   1.972   8.751   4.979 -0.0891 -0.0926 -0.2984
21227W        W39431   8.164   8.814  12.478 -0.0368  0.0930  0.2782
21228W        W39432  16.016   0.370  13.654  0.1745 -0.0759  0.1678
21229W        W39433  10.794  15.017   0.996  0.0078 -0.1980 -0.3014
21230W        W39434  16.906   5.496  12.469 -0.1879 -0.0039 -0.0859
21231W        W39435   9.262   6.119  13.520  0.3499 -0.1055 -0.3384
21232W        W39436  16.111   0.494   4.771 -0.2504  0.1184  0.0489
21233W        W39437   7.016   5.557   2.335 -0.2894  0.0189 -0.0146
21234W        W39438   2.124   1.513  17.066  0.1072  0.0613 -0.1802
21235W        W39439   6.269   7.601  14.890 -0.0425 -0.0928  0.2019
21236W        W39440   7.871   0.121  15.859 -0.0450  0.1962  0.1641
21237W        W39441   5.927   2.761   4.824  0.1483  0.1550 -0.1110
21238W        W39442  16.493   0.298   3.265 -0.3057  0.2248  0.0347
21239W        W39443  13.664   1.970   3.722  0.1388 -0.2123  0.1923
21240W        W39444   0.211  17.452   0.365  0.0074 -0.2629 -0.0378
21241W        W39445   4.717  12.232   4.652 -0.3019 -0.0029  0.1511
21242W        W39446  12.049  17.232   4.710 -0.1342 -0.3308 -0.2207
21243W        W39447   5.285   7.197   0.766  0.0424  0.1977 -0.0426
21244W        W39448   5.237  12.640  14.099 -0.1451 -0.0404  0.0931
21245W        W39449   9.134   3.061   3.498  0.0823 -0.0580 -0.0257
21246W        W39450   6.641   5.107   2.136  0.1779  0.3949 -0.2855
21247W        W39451   3.740  15.334  14.052  0.0524  0.3268  0.0056
21248W        W39452  13.863  15.446  13.091 -0.3542  0.0309 -0.0095
21249W        W39453  11.320  15.621  14.254 -0.3581  0.1268 -0.4675
21250W        W39454   2.243   4.490   2.035 -0.1792  0.2296 -0.4889
21251W        W39455   2.855   8.379  14.410  0.2787 -0.2678 -0.0826
21252W        W39456  15.710  14.286   2.117 -0.1095 -0.0088 -0.1565
21253W        W39457   9.316  12.616  10.580  0.4130  0.0789 -0.0910
21254W        W39458   5.294   2.005   3.086 -0.3792 -0.2154  0.0009
21255W        W39459  10.537  10.870   2.420 -0.0086 -0.1279  0.1338
21256W        W39460   9.318   9.577  12.669 -0.0406 -0.0810  0.3132
21257W        W39461   3.074   2.744   3.227  0.0729  0.1677  0.0702
21258W        W39462   8.504  11.755   4.778 -0.1899 -0.1560 -0.2569
21259W        W39463  12.042  15.259   5.625 -0.1977  0.2112 -0.2492
21260W        W39464   4.624   8.093   5.090 -0.3537 -0.1595  0.2246
21261W        W39465  10.863   7.606  11.421  0.3922 -0.2320 -0.0130
21262W        W39466  16.809  12.797   1.971 -0.0087  0.3771  0.0684
21263W        W39467  11.766   4.215  16.240  0.0456  0.0390 -0.0744
21264W        W39468  15.345  13.093  14.295  0.2571  0.0322  0.1578
21265W        W39469   6.895   4.735  11.920 -0.1759  0.0297 -0.0698
21266W        W39470  13.372   0.925  14.706 -0.3603 -0.1142 -0.1016
21267W        W39471  10.070  12.404  14.665  0.0837  0.1015 -0.1891
21268W        W39472   3.683   6.268  11.263  0.1912 -0.0093  0.0068
21269W        W39473  10.395   7.559  14.606  0.0985 -0.0728 -0.0007
21270W        W39474  12.273   8.458  17.196 -0.1737  0.2541  0.1432
21271W        W39475   5.570   4.846   4.632 -0.0190  0.1878  0.1511
21272W        W39476  13.984  14.491   5.303 -0.0723 -0.3192 -0.0047
21273W        W39477   4.968   7.299  13.462  0.2053 -0.0661 -0.1837
21274W        W39478   7.516   7.457   0.463  0.1546 -0.0344 -0.2022
21275W        W39479   7.124   1.712   2.168  0.1181  0.2392 -0.3247
21276W        W39480  12.957  17.182   4.380 -0.1003 -0.2181 -0.0142
21277W        W39481  11.667   2.667   5.601 -0.0198 -0.0829  0.1443
21278W        W39482   3.954   4.292   4.294 -0.0649 -0.1976  0.2235
21279W        W39483   5.743   2.822   1.933 -0.0759  0.3703 -0.2452
21280W        W39484   5.877   6.263  13.212  0.1585  0.0036 -0.1295
21281W        W39485  12.102   2.597   5.859  0.1150 -0.1008 -0.2848
21282W        W39486   0.361   1.113  15.065 -0.3674 -0.0937  0.0447
21283W        W39487  16.228  14.106   3.561 -0.1779 -0.1022 -0.0433
21284W        W39488   7.521  16.450   1.017 -0.0815 -0.1935  0.0969
21285W        W39489   7.214   3.310  15.044  0.1049 -0.3841 -0.1800
21286W        W39490   4.771   8.437  13.939 -0.1468  0.1366  0.1194
21287W        W39491  13.986   0.717   5.086 -0.2283 -0.2379 -0.2789
21288W        W39492   0.960  13.965  12.034  0.1467 -0.2293  0.0674
21289W        W39493   5.800   0.540  16.198  0.2154 -0.1049  0.2099
21290W        W39494   0.835  11.096   0.760 -0.1127  0.0499 -0.0449
21291W        W39495  11.028  12.562   2.091 -0.2774 -0.1010  0.0409
21292W        W39496  12.215  13.299  15.449  0.0782  0.2360 -0.0445
21293W        W39497  16.427   0.803  12.921  0.1026  0.0936 -0.1732
21294W        W39498  12.789   9.672  16.366  0.0039 -0.2738  0.1412
21295W        W39499   3.126   4.203   3.866 -0.1117 -0.2278  0.0458
21296W        W39500   3.125   6.745  13.655  0.0884  0.2234 -0.1409
21297W        W39501   6.295   1.773  14.844  0.1239 -0.2439 -0.2549
21298W        W39502   3.933   9.524  14.645  0.2221 -0.0574 -0.0051
21299W        W39503  15.515  11.186   4.584 -0.1477  0.1778 -0.0374
21300W        W39504  10.932   8.740   2.825 -0.0375  0.1005  0.0650
21301W        W39505  10.483  14.533   4.875  0.1558 -0.0320 -0.1334
21302W        W39506   8.737  10.723  11.976 -0.0146  0.0308 -0.1975
21303W        W39507  11.934   9.587   3.894 -0.0224  0.2815 -0.0625
21304W        W39508   2.882  13.192  15.137  0.1866  0.2455  0.1465
21305W        W39509  10.578  12.868  14.661 -0.1473  0.0468 -0.1333
21306W        W39510   5.104  14.419  13.319 -0.0918  0.0958 -0.0382
21307W        W39511   9.075   6.192   4.880  0.0387  0.0327  0.0068
21308W        W39512   2.899  15.509   3.829 -0.0749  0.0768  0.0636
21309W        W39513   6.841   4.818  15.274  0.0842 -0.1866  0.1864
21310W        W39514   7.369   7.232  13.394 -0.0847  0.4159 -0.2303
21311W        W39515  11.578   0.137  14.102  0.2858  0.1172 -0.0349
21312W        W39516  10.236   9.668  15.093 -0.0463  0.1138 -0.5658
21313W        W39517   8.499  12.370   0.816  0.0352  0.0537  0.3422
21314W        W39518  13.943   9.903   4.145 -0.0455 -0.0615  0.0788
21315W        W39519  14.818  11.881  17.029  0.0238  0.1575 -0.1260
21316W        W39520   9.013   7.034   0.708  0.0376  0.2211  0.0387
21317W        W39521  16.653   0.420  17.026  0.0326  0.2322  0.0065
21318W        W39522   5.724  17.299  16.775 -0.1259  0.0381  0.2496
21319W        W39523  12.309   2.293  16.710  0.0076 -0.1692 -0.0373
21320W        W39524   6.577  17.380  15.590  0.0624 -0.0338 -0.0306
21321W        W39525   6.069   8.363  14.941 -0.1743  0.0000 -0.3729
21322W        W39526   4.981  15.652   3.249  0.0134 -0.1964 -0.1139
21323W        W39527  13.966   9.685   5.130  0.0802  0.3071 -0.0693
21324W        W39528  11.493  16.598   0.586 -0.0959  0.0639  0.1914
21325W        W39529   3.559  12.398   2.325 -0.1764 -0.0003  0.2735
21326W        W39530   0.696   9.727  15.947 -0.1152 -0.2882 -0.2085
21327W        W39531  14.646   1.319   0.045  0.1649  0.0391  0.0230
21328W        W39532   1.509  14.898   4.070  0.0562  0.2366  0.3711
21329W        W39533   8.247  15.584  16.741  0.2265  0.0025  0.0818
21330W        W39534   8.183   6.069   1.256  0.0487 -0.0577  0.2229
21331W        W39535  10.904   1.178  15.843 -0.3604 -0.0328  0.3689
21332W        W39536   0.585   1.940   3.592  0.1119  0.1376  0.0310
21333W        W39537   5.398  17.187  12.583  0.0393 -0.1509 -0.0382
21334W        W39538   7.279  14.756   0.819 -0.1862 -0.2128  0.0478
21335W        W39539  11.933   2.876   0.834  0.0548  0.0853  0.3008
21336W        W39540  14.350   4.130   5.083 -0.0050 -0.1021  0.0012
21337W        W39541  12.962   5.903   1.502 -0.3161 -0.3067  0.0117
21338W        W39542  17.116   1.995   4.593 -0.5014  0.0896  0.0818
21339W        W39543  12.138   6.565   1.980  0.1912 -0.2650 -0.0166
21340W        W39544  17.297   4.179  13.233  0.4702  0.0990  0.0828
21341W        W39545   3.351   4.859  17.239 -0.5315 -0.1787 -0.2006
21342W        W39546  10.620   2.961  16.494 -0.3101 -0.0182  0.0433
21343W        W39547  11.272   1.562  16.116  0.1707 -0.0950 -0.2868
21344W        W39548  12.244  13.976   1.526  0.1375 -0.1660 -0.0225
21345W        W39549   6.817  13.763  12.257 -0.0781  0.0396  0.2769
21346W        W39550  15.499   4.407   2.951 -0.2614 -0.2084  0.2726
21347W        W39551   8.431   0.079   2.901 -0.2738  0.1016 -0.0723
21348W        W39552  13.712   3.691  16.163 -0.2270 -0.2414  0.0968
21349W        W39553   1.602  14.241  13.826 -0.1754 -0.4691  0.0199
21350W        W39554  14.086   5.535  15.686  0.0142  0.0858 -0.2400
21351W        W39555   1.031   9.263   3.166 -0.4147  0.0440  0.0605
21352W        W39556   8.211   8.688   0.042 -0.0880 -0.0896 -0.0084
21353W        W39557   7.553  14.404   3.043 -0.1392 -0.1436 -0.3100
21354W        W39558   9.656  13.518   0.568 -0.2394 -0.0428  0.1480
21355W        W39559   0.074  15.014   2.476  0.0841  0.0807  0.0851
21356W        W39560   6.610   9.969   2.859  0.4597 -0.3015  0.2185
21357W        W39561  11.856  17.156   3.459 -0.0107  0.2372  0.1244
21358W        W39562  16.557   4.520   1.849 -0.0182  0.1199 -0.1352
21359W        W39563   3.578  10.114   1.420 -0.0646  0.2066  0.0098
21360W        W39564  16.826   1.972  15.820 -0.1334  0.0318 -0.1312
21361W        W39565  15.450   8.275   1.244 -0.4087 -0.1475  0.3394
21362W        W39566  15.814  12.052  13.302 -0.0234  0.0899 -0.2545
21363W        W39567  17.142   0.617  11.181  0.3215 -0.1297 -0.0333
21364W        W39568  15.389   3.522  16.207  0.3273 -0.2683 -0.2750
21365W        W39569   4.439  17.362   4.945  0.0873 -0.2819  0.0866
21366W        W39570  17.458  13.927  15.482  0.1947  0.0736  0.2945
21367W        W39571  10.216   8.538  14.140  0.1880  0.1110  0.0512
21368W        W39572   7.224  17.385   0.930  0.3306  0.1051  0.1643
21369W        W39573   6.175  10.951   3.858  0.3167  0.0575 -0.2563
21370W        W39574   8.936   4.601   4.611  0.2026  0.3210  0.5984
21371W        W39575   7.981   1.525  14.491 -0.3151  0.1332 -0.2884
21372W        W39576  12.775   8.897  12.589 -0.1681 -0.1239  0.2108
21373W        W39577   6.324  15.398  15.642  0.0744 -0.0046 -0.1687
21374W        W39578  10.015   6.248  12.460  0.1093  0.0923  0.1020
21375W        W39579  16.408   2.782  15.772 -0.0573 -0.3362  0.1149
21376W        W39580  13.579  16.073  14.265  0.0752 -0.3087 -0.1565
21377W        W39581   7.994   0.344   4.970  0.0062  0.2903  0.2354
21378W        W39582   8.488   7.351   2.651  0.3144 -0.0947 -0.1367
21379W        W39583  13.140   2.482   0.798 -0.0258 -0.1587 -0.1926
21380W        W39584  16.188   1.540  14.396  0.0381  0.0940  0.0671
21381W        W39585  15.149  12.778  15.719  0.3750  0.0264 -0.1226
21382W        W39586   7.027   1.959  13.744 -0.2356 -0.0787 -0.0816
21383W        W39587  12.768  13.422  14.341 -0.1161  0.2719  0.1260
21384W        W39588  13.982   9.191  14.744 -0.3976  0.3175  0.0063
21385W        W39589   1.907  14.080   4.508 -0.0521 -0.1651 -0.0203
21386W        W39590  11.605   0.510   3.834  0.1635  0.2292  0.0498
21387W        W39591   5.927   1.890  16.475 -0.1503 -0.2847  0.1225
21388W        W39592  10.918   2.306  16.698 -0.0217 -0.3326 -0.0481
21389W        W39593   9.425  13.690  13.665 -0.1599 -0.2857 -0.1277
21390W        W39594  10.600   2.598   2.145 -0.0348  0.0552 -0.0894
21391W        W39595   5.630   7.993   2.355 -0.0542 -0.0699  0.0424
21392W        W39596   9.800   9.354   0.051 -0.3304 -0.1636 -0.1715
21393W        W39597  12.496  17.421   1.472  0.4067 -0.3342  0.3025
21394W        W39598   0.314  10.117  13.906 -0.1403  0.1138 -0.2209
21395W        W39599  13.229   1.311  13.892  0.0345  0.1026  0.3747
21396W        W39600   5.052   6.321  12.549  0.2100  0.3255  0.1210
21397W        W39601   8.828   9.068   3.447  0.0710  0.3495 -0.0584
21398W        W39602   2.568   0.696   2.925 -0.2758 -0.0903  0.0689
21399W        W39603  11.486  10.787  12.033  0.0981  0.3823 -0.0047
21400W        W39604   1.366  11.241  14.942  0.0741 -0.0496 -0.1552
21401W        W39605   9.891   4.413  11.925  0.1991 -0.1667  0.0699
21402W        W39606  14.217   1.020   1.182 -0.2157 -0.0514 -0.0402
21403W        W39607  13.665   5.855  12.043  0.2360  0.0658 -0.0542
21404W        W39608  12.439   3.718  15.779  0.1212 -0.0634  0.2193
21405W        W39609   7.503   5.318   3.857 -0.1136 -0.2276 -0.2306
21406W        W39610  15.668  15.488   1.200  0.1681 -0.0626  0.1019
21407W        W39611   6.173  10.958   0.171  0.0651 -0.0997 -0.2442
21408W        W39612   8.719  10.693   4.952 -0.5141  0.2016  0.1559
21409W        W39613  17.535  12.869   3.692 -0.0513 -0.4523 -0.1371
21410W        W39614   0.193   9.722   0.337 -0.1438 -0.3304 -0.0584
21411W        W39615  16.064   5.828  14.409 -0.0245 -0.1908 -0.3124
21412W        W39616   8.453  16.508   3.245 -0.0681 -0.1039  0.1201
21413W        W39617  12.162  10.606   2.260 -0.2576 -0.1843 -0.1654
21414W        W39618   2.252   1.178   3.166 -0.0946  0.1845  0.2642
21415W        W39619   9.734  14.422   0.402  0.1925 -0.1941  0.0944
21416W        W39620   4.560  12.091  15.866 -0.2248  0.2394  0.1105
21417W        W39621   8.224   8.440   2.538  0.0737 -0.0020  0.1933
21418W        W39622   8.890   9.709  10.981  0.3531  0.0612  0.0277
21419W        W39623  12.213   8.882   2.186  0.2243 -0.0396 -0.1401
21420W        W39624  15.772   7.198  13.585  0.2990 -0.3287 -0.0568
21421W        W39625   8.942  12.317  12.536  0.0471  0.0466 -0.2577
21422W        W39626   8.347   7.025   3.545  0.2126 -0.0047 -0.1742
21423W        W39627  11.660   6.079   3.205 -0.1512  0.2742 -0.0025
21424W        W39628   4.815  10.523  12.658 -0.0409  0.0349 -0.3600
21425W        W39629   3.497  14.680  16.422  0.1030  0.0137 -0.0382
21426W        W39630  11.068   7.639   1.803 -0.0036  0.0008  0.0560
21427W        W39631  10.373   8.192  12.595 -0.0486  0.2297 -0.2149
21428W        W39632   9.263  16.648   1.671  0.1618  0.0068  0.2289
21429W        W39633   2.173   6.853  14.906 -0.2431 -0.1472 -0.0565
21430W        W39634   4.277   7.430   2.839 -0.0329 -0.0534 -0.3098
21431W        W39635   5.038   4.716  16.105  0.1057 -0.2151  0.2226
21432W        W39636  15.313  10.719   4.543 -0.0999 -0.0416 -0.0289
21433W        W39637   8.546  13.047   3.570  0.2744 -0.2506 -0.1252
21434W        W39638   0.863   2.342  12.662 -0.0281  0.1055 -0.1130
21435W        W39639   1.806   6.462  15.974 -0.0250 -0.1285 -0.0338
21436W        W39640   3.512  14.088   1.190  0.1424 -0.3329  0.2056
21437W        W39641   1.227  14.048   5.155  0.0570  0.2692  0.0493
21438W        W39642  12.629   2.854   4.054 -0.0789  0.1534 -0.2057
21439W        W39643   7.516  14.144  11.699  0.1512  0.3122  0.1755
21440W        W39644   4.817   2.211  12.819  0.3870  0.1489  0.0490
21441W        W39645  13.567   9.838   0.907 -0.2419  0.2189 -0.2261
21442W        W39646   9.144   0.489  16.421  0.1339  0.2394  0.1442
21443W        W39647   3.975  11.545   2.437 -0.1242 -0.1022 -0.0446
21444W        W39648  13.911  10.414   1.311  0.0435 -0.1762  0.1282
21445W        W39649  15.711  15.827  12.143  0.0224  0.0485 -0.0090
21446W        W39650   2.663  12.275  13.578  0.0711 -0.2173  0.3008
21447W        W39651  15.855   7.534  16.603  0.0858 -0.3020  0.0067
21448W        W39652   4.271   6.373  16.202  0.0993  0.1966 -0.2014
21449W        W39653   1.355   5.993  14.177 -0.2449 -0.0875 -0.1969
21450W        W39654  12.795  15.005  13.077 -0.0599 -0.0806 -0.3376
21451W        W39655   6.304   0.705  15.930 -0.1179  0.1595  0.0270
21452W        W39656  11.871  14.951   6.030 -0.2528  0.0172 -0.2910
21453W        W39657   9.616  12.352   3.134 -0.0769 -0.2481 -0.1802
21454W        W39658  17.115  13.040  15.760 -0.5311  0.1405 -0.1801
21455W        W39659  16.411  13.738  15.432  0.1268 -0.1069  0.0389
21456W        W39660  15.928  12.152   4.283  0.1960  0.1809  0.0288
21457W        W39661  14.429   7.087   5.319  0.0518 -0.2163  0.0756
21458W        W39662  12.888  13.500  16.682 -0.3004  0.2077 -0.2284
21459W        W39663  11.006   5.959   0.939 -0.0323 -0.2454 -0.0923
21460W        W39664   0.382  12.715  15.604 -0.0538  0.1136  0.2861
21461W        W39665  12.954  15.000  15.660 -0.0765  0.1096 -0.2692
21462W        W39666   3.583  10.512   3.793 -0.1200 -0.0871 -0.1736
21463W        W39667  17.127  12.866   5.046 -0.0066  0.2483 -0.0886
21464W        W39668   1.417   8.227  13.975 -0.2506  0.0105  0.1374
21465W        W39669   7.077  16.159  16.434  0.0087  0.4802  0.0543
21466W        W39670   3.239  15.237   1.702  0.1671 -0.1023 -0.1758
21467W        W39671   9.362  13.965   2.975  0.2186 -0.3227 -0.3225
21468W        W39672   3.442  11.071  12.512  0.2294  0.1755  0.1828
21469W        W39673   9.386  15.283  14.956 -0.3040  0.1058 -0.0296
21470W        W39674  14.950   4.467  14.884 -0.0604  0.0186  0.2185
21471W        W39675  10.353   9.583   3.138  0.0058 -0.2066 -0.0638
21472W        W39676   7.341   6.334   3.243  0.1052  0.2565 -0.2027
21473W        W39677  15.857   6.829  11.894 -0.0026  0.3129 -0.0289
21474W        W39678   9.271   5.936  16.968 -0.0887 -0.1626 -0.1906
21475W        W39679   2.241  13.033   0.896 -0.0652 -0.1912 -0.0098
21476W        W39680  16.881   3.714   1.897 -0.2140  0.1832 -0.3669
21477W        W39681   5.836   2.472  16.454  0.0534 -0.2552  0.0040
21478W        W39682   5.868   6.195   4.161 -0.2220  0.0000 -0.0548
21479W        W39683  10.446   0.032  16.032  0.0926 -0.2014 -0.0768
21480W        W39684  13.608  15.058   1.790  0.1334  0.3390 -0.2674
21481W        W39685   1.939  10.321  17.175 -0.0081  0.1346 -0.1376
21482W        W39686  11.343   5.958   4.521 -0.1666 -0.1867  0.0350
21483W        W39687  10.495   9.814  13.664  0.0498  0.0282 -0.2797
21484W        W39688   3.472  11.329   4.721 -0.2939  0.0885  0.2332
21485W        W39689   9.290   7.805  16.655  0.1241 -0.1204 -0.0588
21486W        W39690   0.384   0.351   2.319  0.0524  0.0569  0.0767
21487W        W39691  15.168   3.062  12.751  0.0318  0.0901  0.0601
21488W        W39692  12.595   5.248  15.264  0.1713  0.1857 -0.0717
21489W        W39693   1.966   0.361   2.051  0.2019 -0.0839  0.0007
21490W        W39694   1.481  10.859  14.553 -0.1118  0.3021  0.0843
21491W        W39695  15.750  11.247  14.449  0.1817  0.0621 -0.5131
21492W        W39696  17.428   6.710   3.376 -0.2244 -0.1332 -0.1003
21493W        W39697  10.228  16.390   1.299  0.0217  0.0352 -0.5547
21494W        W39698   1.333   0.373  12.688  0.0987  0.1060 -0.0538
21495W        W39699   0.859  15.271  15.818 -0.0203 -0.3545 -0.0062
21496W        W39700   0.764  14.496  16.990  0.3244 -0.1622  0.0714
21497W        W39701   6.072   3.378  16.077  0.3666  0.2284 -0.0003
21498W        W39702  12.539  12.528   5.388  0.1475  0.1057 -0.1351
21499W        W39703  10.251   9.118   5.051 -0.1131  0.2685  0.1581
21500W        W39704   3.078   2.607   1.665 -0.0573  0.0635 -0.1074
21501W        W39705  14.725  14.470   0.148  0.0794  0.0625 -0.2560
21502W        W39706  12.977   5.912  14.153  0.0468  0.3569 -0.3246
21503W        W39707   5.798   7.576  11.591  0.0885 -0.0671 -0.1391
21504W        W39708  12.757  13.932   1.784  0.1212  0.0610  0.3736
21505W        W39709   5.856   7.025   0.221 -0.0527  0.1199  0.2953
21506W        W39710   7.328   7.232   4.714 -0.3434  0.0076  0.3479
21507W        W39711   2.501   6.522  13.623  0.5151  0.1142 -0.0620
21508W        W39712   8.739   6.046  16.866  0.2328  0.0713  0.0302
21509W        W39713   0.233   4.156   2.626  0.0350 -0.0539  0.2148
21510W        W39714   5.634   9.765  15.065  0.2443 -0.3415  0.0804
21511W        W39715  17.156  15.143  14.008  0.0150  0.0753 -0.1346
21512W        W39716   5.877  13.006  17.145  0.1953 -0.1956  0.0071
21513W        W39717   2.694   1.697   1.452  0.1866 -0.1229  0.2895
21514W        W39718  11.796  10.467  14.089 -0.3047 -0.2452  0.1042
21515W        W39719   0.294  13.818   1.291  0.1898 -0.1039 -0.0783
21516W        W39720  13.620  10.809  13.954 -0.0558  0.1502  0.0329
21517W        W39721   1.833  10.977   1.457 -0.2642  0.0111  0.0745
21518W        W39722   8.435   4.352  15.019 -0.0317  0.3082  0.1988
21519W        W39723  11.414   9.593   1.530  0.1038  0.2417 -0.2003
21520W        W39724   3.443  12.253   4.957 -0.0907 -0.2658  0.2453
21521W        W39725   8.930   4.038  16.691  0.0912  0.2430  0.1053
21522W        W39726   9.617  12.264   0.942  0.0720 -0.0537 -0.1217
21523W        W39727  10.237  13.824   5.385  0.2697 -0.0413 -0.2279
21524W        W39728  14.664  12.420   1.161 -0.0631  0.2627  0.1129
21525W        W39729   6.979   3.210  16.181  0.2091  0.0444 -0.0416
21526W        W39730  13.330   8.742   4.994 -0.1562 -0.3254 -0.0694
21527W        W39731   2.875   6.602  13.178  0.1760  0.1133 -0.4250
21528W        W39732   4.370   6.699   1.582  0.1209  0.1965  0.1023
21529W        W39733  12.974  11.911   0.856  0.0477 -0.2992  0.0583
21530W        W39734   2.568   6.623   3.397  0.1904  0.1217 -0.2746
21531W        W39735   0.287   6.159   2.431 -0.1315 -0.0611 -0.0431
21532W        W39736   6.027   5.280  13.960 -0.2610 -0.1307 -0.0851
21533W        W39737   2.019  15.645  15.585  0.1658  0.0483  0.1062
21534W        W39738   3.184   7.171  16.226  0.0467 -0.1526  0.1932
21535W        W39739   0.297   0.240   4.226  0.0784 -0.1195  0.1616
21536W        W39740  12.829  10.828  13.465  0.2053 -0.1213  0.0780
21537W        W39741   7.303   4.010  14.432  0.2038  0.0093 -0.0942
21538W        W39742   7.005   0.429  14.734  0.1497  0.3526 -0.3407
21539W        W39743   6.170  13.913   5.078  0.3277 -0.1118 -0.0068
21540W        W39744   6.482  17.206  13.871  0.2251  0.4549 -0.4950
21541W        W39745  13.216  17.153   5.146 -0.0299  0.1970 -0.1249
21542W        W39746   1.787   1.610  16.520 -0.2040  0.2400  0.3074
21543W        W39747   4.422   7.194  15.494  0.0467  0.2558 -0.0177
21544W        W39748   3.991  14.041  14.392  0.0925  0.1099  0.1389
21545W        W39749   5.756  15.012  16.328 -0.0647 -0.0769  0.1415
21546W        W39750   0.716  14.884  13.300 -0.0311  0.3060 -0.0636
21547W        W39751   2.872  17.300   2.263 -0.0415  0.0935  0.0152
21548W        W39752  14.889   8.423   2.758 -0.0654 -0.0371  0.0819
21549W        W39753  16.617  14.237   4.587  0.1959 -0.1180  0.3814
21550W        W39754   2.747  16.122  17.261 -0.1653  0.0422 -0.1509
21551W        W39755   3.286  10.268  13.517  0.1179  0.0744 -0.1633
21552W        W39756   6.020   3.592   4.544  0.2109  0.0431  0.0906
21553W        W39757  11.964   6.683  13.653 -0.2029  0.0074 -0.1018
21554W        W39758  10.676   5.359   4.437  0.0564  0.1063 -0.1303
21555W        W39759   3.116  13.637   3.751  0.0584 -0.3586  0.2325
21556W        W39760   0.946   8.377   0.317  0.2240 -0.1599 -0.0047
21557W        W39761  10.474  11.971   2.437  0.1172 -0.0392 -0.0402
21558W        W39762  13.964  10.396  16.883  0.0218  0.3531  0.4082
21559W        W39763   2.313   6.821  15.949  0.2941 -0.2862 -0.0522
21560W        W39764  14.396  10.348   2.016 -0.1072  0.4133 -0.0276
21561W        W39765  16.375   3.880   2.304 -0.1946  0.0091 -0.0919
21562W        W39766  15.793  15.000   2.628 -0.0552  0.2336 -0.0646
21563W        W39767  16.972  16.885   0.080 -0.1947 -0.1030  0.0361
21564W        W39768   1.725  10.615  16.296  0.0853  0.1047  0.0199
21565W        W39769  10.908   2.134   2.233  0.0014  0.1606  0.1068
21566W        W39770   2.959   3.236  15.066 -0.1419  0.4309  0.1266
21567W        W39771   3.018   3.798   4.726  0.1640  0.0027 -0.0119
21568W        W39772   4.674   8.714  13.022  0.2545 -0.1709 -0.2675
21569W        W39773  11.296   3.612  11.556 -0.1946  0.0378  0.3013
21570W        W39774  16.976   3.528  15.321 -0.0806 -0.0810  0.3334
21571W        W39775  14.599   0.739   6.619 -0.2407 -0.0624  0.2953
21572W        W39776   5.446  13.886   3.666 -0.4557 -0.0212 -0.3917
21573W        W39777  16.576  12.631  14.360 -0.0212 -0.1054  0.3761
21574W        W39778  11.276  15.547  12.935 -0.1982  0.0844 -0.2648
21575W        W39779  12.366   9.288  11.648  0.4431  0.0582  0.0975
21576W        W39780   8.134  13.329  16.691  0.0425 -0.1754 -0.1682
21577W        W39781   2.037   7.747   2.870  0.0614  0.2371  0.0033
21578W        W39782  15.006   9.864   0.523 -0.1234 -0.2044 -0.0718
21579W        W39783   6.479   2.457   1.358  0.0667 -0.1515 -0.2691
21580W        W39784   3.379  17.396   2.159 -0.0710 -0.1068  0.1945
21581W        W39785   1.832   7.858   3.331  0.2273 -0.0371 -0.2416
21582W        W39786  12.609   9.393  13.002  0.2452  0.1138 -0.0030
21583W        W39787  14.798  12.069   2.798 -0.0065  0.0882  0.3135
21584W        W39788  15.967   7.441   2.565  0.4076  0.2393 -0.1089
21585W        W39789  12.956   0.170  14.449  0.2560 -0.0839 -0.1891
21586W        W39790  10.100   7.107   3.785 -0.2998 -0.1303 -0.0553
21587W        W39791   1.246   7.066  16.190  0.0078 -0.1041 -0.0133
21588W        W39792   1.822   5.129  14.024 -0.1446  0.2507  0.0602
21589W        W39793  15.096   3.185   4.326 -0.1767  0.2062  0.0082
21590W        W39794  12.816   1.831   4.465 -0.2797 -0.0500  0.3517
21591W        W39795   0.805   3.532  14.725 -0.0285 -0.1890  0.1360
21592W        W39796   2.119   5.477  13.209  0.2475  0.1123 -0.0001
21593W        W39797  13.150   8.327   3.122  0.0232  0.1468 -0.0888
21594W        W39798  13.104   5.710  16.868  0.1041 -0.3532 -0.2635
21595W        W39799   5.188  16.419   1.288  0.1299  0.0624  0.0710
21596W        W39800  10.651  12.008   3.944  0.0985 -0.1327  0.0726
21597W        W39801   7.627   0.226   0.834  0.2199  0.1660 -0.2564
21598W        W39802  10.798  15.326  14.367 -0.2168  0.0068  0.1537
21599W        W39803   6.450  10.175   3.278 -0.3294  0.2025 -0.1635
21600W        W39804  10.662   5.188   2.600 -0.2339  0.1853  0.0261
21601W        W39805   4.864   0.473  15.123 -0.0450  0.0155  0.0404
21602W        W39806  14.619  17.173   3.626  0.0045  0.0438 -0.1408
21603W        W39807   7.123   5.863   5.017  0.0792  0.0202 -0.2146
21604W        W39808  17.422  17.021   2.097 -0.1563  0.3386  0.3788
21605W        W39809   1.311   1.101   1.479 -0.1816  0.1076  0.2240
21606W        W39810  16.156   5.332  14.911  0.1706  0.0535 -0.3078
21607W        W39811  17.408   5.150  14.605  0.1359 -0.0741  0.1795
21608W        W39812  16.512  12.173  14.055  0.0292 -0.0274 -0.1777
21609W        W39813   1.231   4.215   2.871 -0.2640 -0.0176 -0.2553
21610W        W39814  14.556   8.755   5.174  0.3088  0.1827  0.1539
21611W        W39815  17.161  15.549   5.286  0.1073 -0.1169  0.4322
21612W        W39816  11.764  13.518   0.469  0.0195  0.0521 -0.1479
21613W        W39817  17.027  12.259  12.618  0.1782 -0.3185 -0.1834
21614W        W39818  12.784   5.498   4.608 -0.0320 -0.2698  0.1402
21615W        W39819  11.985   9.570  13.413 -0.0832 -0.2066  0.0362
21616W        W39820  12.257   0.214   1.004 -0.1343  0.3135 -0.3800
21617W        W39821   5.323  10.285   3.321  0.2404  0.0017 -0.1777
21618W        W39822  10.152  17.001   2.033  0.0336 -0.2455  0.1274
21619W        W39823   5.433  13.894  14.670 -0.2124  0.0709 -0.0319
21620W        W39824  14.282  14.186   1.846 -0.0667  0.0232  0.1596
21621W        W39825  11.090   3.881   3.298 -0.0082  0.1332  0.1763
21622W        W39826   7.364   2.007   3.263  0.1845  0.2289  0.1562
21623W        W39827   8.621  12.606  11.356  0.0172  0.0891 -0.5192
21624W        W39828  13.977  12.879  15.643 -0.0507  0.1385  0.0936
21625W        W39829  10.060   4.764   5.140  0.2596 -0.1298 -0.1775
21626W        W39830   9.850  15.660   2.853 -0.1795  0.0330  0.0000
21627W        W39831   4.389  15.683  12.373 -0.3628 -0.3917  0.0902
21628W        W39832  16.560  14.376   0.309 -0.1644 -0.1607 -0.0697
21629W        W39833   4.857  15.562  14.690 -0.2887 -0.1102  0.1701
21630W        W39834  15.280   5.519  13.860  0.2128 -0.3938 -0.0174
21631W        W39835   3.646  13.592  12.150 -0.2480 -0.0526  0.1278
21632W        W39836  15.508  11.676  13.111  0.1987 -0.2399  0.1217
21633W        W39837   1.353   8.982   2.801  0.2593  0.1672  0.0849
21634W        W39838  16.455   9.291   4.912 -0.0880 -0.0663  0.0978
21635W        W39839  13.810   4.235   4.516  0.1199  0.3250  0.0870
21636W        W39840   3.536   0.488   1.323 -0.3460 -0.0191  0.0652
21637W        W39841   4.515  10.125  16.529  0.0113 -0.0281  0.0634
21638W        W39842   0.566  16.409  16.833 -0.0880  0.0483 -0.1220
21639W        W39843  14.482   5.059  13.880 -0.1556  0.1641 -0.1153
21640W        W39844  11.013   4.551  15.932  0.0500 -0.1296 -0.0094
21641W        W39845   8.119  10.244  14.453  0.0174 -0.0408 -0.0248
21642W        W39846   9.815   8.145  14.099 -0.0133  0.2850 -0.0641
21643W        W39847   5.312   1.928   4.003  0.0933  0.1079 -0.0377
21644W        W39848  10.233   8.842  16.641  0.1859  0.4308 -0.0932
21645W        W39849   4.912   4.585  12.829  0.3821  0.1365  0.1513
21646W        W39850   0.174  10.843  14.171 -0.2387 -0.2692  0.0508
21647W        W39851   3.904  16.618   3.515  0.1469  0.1180 -0.4185
21648W        W39852   0.200  11.622   2.890 -0.0407 -0.3118 -0.0283
21649W        W39853   3.345   0.201   2.576 -0.0245 -0.2052  0.1213
21650W        W39854  15.332   0.396  15.233 -0.0211 -0.1027  0.0835
21651W        W39855   5.992   4.536   1.001  0.0876 -0.0737  0.1146
21652W        W39856   7.345  13.518   3.272 -0.1780  0.0697  0.2131
21653W        W39857   4.468  10.015   3.530 -0.0460  0.4851 -0.0297
21654W        W39858   2.023  14.194  12.456  0.1681  0.2915 -0.2043
21655W        W39859   9.226   8.757  15.596  0.0429  0.3618 -0.0217
21656W        W39860   6.309   0.202   0.822  0.1143  0.1789 -0.3080
21657W        W39861  14.024  17.354   1.723  0.1915 -0.2868  0.0174
21658W        W39862   7.469   9.426  14.283  0.0605 -0.2167 -0.2699
21659W        W39863   6.856   8.327  16.607 -0.1163 -0.0286 -0.2812
21660W        W39864  17.346   8.589  13.192  0.2150 -0.0006  0.2020
21661W        W39865   5.231   5.208   0.139  0.2397 -0.3409 -0.0800
21662W        W39866   8.013  12.741   4.604 -0.3595  0.2092  0.2497
21663W        W39867  12.595   0.130  12.656  0.1300  0.3085  0.0060
21664W        W39868   7.015   0.441   4.684 -0.0803 -0.2493  0.0085
21665W        W39869  10.181   7.480  13.365  0.2509 -0.2276 -0.1043
21666W        W39870   4.012   1.149  14.814  0.2285  0.2070 -0.0250
21667W        W39871   4.612  17.496   4.033  0.0764 -0.0375 -0.1150
21668W        W39872   3.991   7.353   4.442  0.1184 -0.0469  0.1113
21669W        W39873  15.428  10.255  15.311 -0.0509  0.0911  0.3893
21670W        W39874  14.857  14.742   1.738  0.0909 -0.3539 -0.3109
21671W        W39875  12.719  15.900  13.056  0.0362 -0.1120 -0.2400
21672W        W39876  16.873  13.063  13.731  0.1182 -0.2859 -0.2860
21673W        W39877  10.784   6.909   5.169  0.3823  0.3841  0.0573
21674W        W39878  10.519  16.585   2.078  0.1015  0.2451 -0.1196
21675W        W39879   6.137   3.889   3.832  0.1714  0.0068  0.0279
21676W        W39880   3.080   7.852  11.896  0.0439  0.2009 -0.0700
21677W        W39881   5.762  10.744   0.965 -0.1059 -0.3584  0.2249
21678W        W39882   8.297   9.421  16.378 -0.0303  0.1686  0.0770
21679W        W39883  11.256   2.055  16.028  0.2061 -0.1772  0.2155
21680W        W39884  16.151   2.587   4.269  0.2554  0.0675  0.1070
21681W        W39885   1.564   6.741   3.842  0.0157  0.0881  0.0446
21682W        W39886  13.242  13.064  16.315 -0.1146  0.0705 -0.2377
21683W        W39887  11.442   7.968   4.887 -0.1005  0.0793  0.1028
21684W        W39888   3.079   2.238   4.329 -0.1827 -0.0987 -0.0209
21685W        W39889   2.872   0.834   1.916 -0.3605  0.2462 -0.0908
21686W        W39890  16.099   7.284  13.944 -0.1686 -0.1681 -0.0070
21687W        W39891   8.502  16.748   0.488  0.2035 -0.1963 -0.0029
21688W        W39892  15.074  14.615  14.303 -0.0999  0.0325 -0.0554
21689W        W39893  12.909   5.208  12.913  0.2878 -0.0596 -0.1568
21690W        W39894  13.254   8.165   0.204 -0.0655 -0.0990 -0.1175
21691W        W39895  13.021  14.176   3.717 -0.3425 -0.4260 -0.2081
21692W        W39896  13.162   7.071   1.363  0.0390  0.0338 -0.0727
21693W        W39897  16.319   8.338   5.782  0.2412  0.5698  0.4338
21694W        W39898   6.938   0.027  17.070 -0.1141 -0.1721 -0.2475
21695W        W39899  12.439   1.573   2.896  0.3833  0.2656 -0.5715
21696W        W39900   3.382   5.246   0.907 -0.0778 -0.0758 -0.2300
21697W        W39901  15.152   5.108  12.154  0.0503  0.0471  0.0653
21698W        W39902  15.501  10.552   3.776  0.2035  0.1218  0.3877
21699W        W39903   2.976  14.994  14.720  0.2015 -0.2440 -0.0891
21700W        W39904   0.693  13.217  17.102  0.1406 -0.1924 -0.1697
21701W        W39905   1.232  10.786  13.121  0.0514  0.0752  0.0025
21702W        W39906   3.949  12.684  16.336  0.1608 -0.0694 -0.0497
21703W        W39907   8.228  16.336  12.634 -0.0579  0.0109  0.0302
21704W        W39908  16.471  17.410   5.198  0.1850 -0.1188  0.0551
21705W        W39909   9.736   6.495   0.595 -0.0659 -0.0777 -0.0645
21706W        W39910  10.463   3.096   5.146 -0.1659 -0.0026  0.0321
21707W        W39911  12.911   8.440   4.933 -0.1969  0.0679  0.2061
21708W        W39912  13.696  16.352   1.415  0.1802  0.1544 -0.0944
21709W        W39913   2.789  15.493   2.593  0.0280  0.0656  0.0920
21710W        W39914   7.120  11.196  16.551 -0.1094  0.1909  0.2126
21711W        W39915  16.494   0.355   4.207 -0.0064  0.0102  0.2134
21712W        W39916   9.415   2.897   5.367 -0.0270 -0.1665  0.2671
21713W        W39917   5.703  10.737  13.163  0.1104  0.0670 -0.1422
21714W        W39918   0.672   5.130  13.166  0.1299 -0.0146  0.2479
21715W        W39919   0.556   5.530   0.722 -0.2841 -0.0853  0.2617
21716W        W39920   7.780   3.311  13.357 -0.3451 -0.3047  0.0884
21717W        W39921  13.177   7.145   4.954 -0.1003 -0.1329  0.1273
21718W        W39922   6.432   5.267   3.726 -0.0600  0.0400  0.2268
21719W        W39923  15.216   4.635   0.904  0.2066  0.1742  0.1214
21720W        W39924   3.526   8.811  15.303  0.2008  0.1859 -0.1451
21721W        W39925   1.113   7.998  13.022 -0.0369  0.0525  0.3006
21722W        W39926   4.926   7.217  17.140 -0.1527 -0.0527 -0.1400
21723W        W39927  15.005  16.669  14.979 -0.0347 -0.1692  0.1956
21724W        W39928   3.608   3.906   0.354  0.1149  0.0176  0.1522
21725W        W39929   4.106  11.994   4.090  0.0858  0.1507 -0.1760
21726W        W39930  11.204  16.314   2.435 -0.0579 -0.2124 -0.2060
21727W        W39931  14.783   0.003   2.970  0.3217  0.2436 -0.2052
21728W        W39932   6.581   4.787   3.446 -0.1144  0.1851 -0.2271
21729W        W39933  13.191   6.812   3.678 -0.2098  0.2927 -0.0273
21730W        W39934   0.565  12.364  15.339 -0.3689  0.2443 -0.0838
21731W        W39935   1.882   7.382   1.937  0.0354 -0.2685 -0.0927
21732W        W39936   4.707   8.325  13.365 -0.1711 -0.1710 -0.2437
21733W        W39937  15.734  10.855  16.986 -0.1175  0.1515 -0.2223
21734W        W39938   0.087  16.087  12.178 -0.1486 -0.2523 -0.2294
21735W        W39939   6.628  14.763   2.153 -0.1155 -0.1071  0.0119
21736W        W39940   7.052   8.224  17.055  0.0698 -0.1229  0.1756
21737W        W39941  11.777   5.046  15.920 -0.1924  0.0250 -0.1749
21738W        W39942  12.526  10.615   1.409 -0.1233 -0.1655 -0.0132
21739W        W39943   5.819   7.717  13.645  0.0508  0.0311 -0.0614
21740W        W39944   4.400  14.857  15.141 -0.0588  0.0495  0.2487
21741W        W39945   8.597  17.234  15.851  0.0861  0.2011  0.0653
21742W        W39946  14.093  13.014   5.556 -0.0664  0.4487  0.0203
21743W        W39947   9.876  11.402  16.438 -0.1212  0.1719  0.0770
21744W        W39948   1.996  13.788  15.632  0.0933  0.2616  0.2346
21745W        W39949   4.480   5.009  16.744  0.0192  0.2398  0.4112
21746W        W39950   3.247   8.701   0.321  0.0186  0.2562  0.1204
21747W        W39951   3.814   1.611  14.566  0.0661  0.0773  0.1867
21748W        W39952   3.821   4.430   3.377  0.1084  0.2342 -0.0364
21749W        W39953  15.548  12.633   0.234  0.0481 -0.3594  0.0838
21750W        W39954   6.886   9.542   1.830  0.1308 -0.3518 -0.1041
21751W        W39955  10.579   4.019   3.224 -0.5253 -0.1136  0.1345
21752W        W39956  17.490  17.277   2.605  0.0393 -0.0148 -0.0412
21753W        W39957   5.947   9.968  14.263 -0.1733 -0.0207 -0.1627
21754W        W39958  10.488  11.611  16.973 -0.0545  0.1882 -0.2021
21755W        W39959   1.929   9.004   5.836 -0.0611  0.1989  0.1723
21756W        W39960   9.332   2.430  15.388 -0.1093 -0.0621 -0.0833
21757W        W39961   4.734   7.687   4.131  0.0294 -0.1797 -0.0690
21758W        W39962   1.421  10.885  13.596  0.1868 -0.0647 -0.1110
21759W        W39963  15.482  13.161  15.625  0.1173  0.0041 -0.2914
21760W        W39964   3.055   1.083   0.679 -0.1393 -0.0357  0.0026
21761W        W39965  16.190   5.966   0.675  0.0667 -0.2817 -0.1824
21762W        W39966   4.169  14.535  13.612  0.3206 -0.2232  0.1179
21763W        W39967   1.665  12.580  15.091  0.3180 -0.2844  0.0795
21764W        W39968   3.746  17.427  13.812  0.0733  0.1416  0.1385
21765W        W39969   8.563   4.528  15.671  0.1746 -0.2943 -0.1156
21766W        W39970   0.206   8.456  15.844  0.4962 -0.2995 -0.0358
21767W        W39971   9.909   9.278  14.428 -0.0832 -0.1339 -0.0256
21768W        W39972  13.906  12.750  12.561 -0.0741  0.0484 -0.0460
21769W        W39973  14.039  10.718   3.464  0.3771 -0.4154 -0.0048
21770W        W39974  15.174   1.285   4.469  0.1481  0.1286  0.2310
21771W        W39975   2.229   5.691  15.943  0.2420 -0.0446 -0.0899
21772W        W39976   5.386   2.756  13.765  0.1393  0.6128  0.0117
21773W        W39977   7.691   7.991  12.603 -0.2357  0.2061 -0.1740
21774W        W39978  11.270   8.733  12.535  0.0113  0.0164 -0.1933
21775W        W39979  11.483   4.302  15.785 -0.0687  0.0405  0.0261
21776W        W39980   3.035  13.191  13.396  0.0196  0.0686 -0.0294
21777W        W39981   6.556  13.214   1.775  0.0318 -0.1869  0.1378
21778W        W39982   0.291  14.139  15.719  0.2155 -0.1467  0.1804
21779W        W39983  13.888   6.329   4.000 -0.1809  0.1316 -0.1428
21780W        W39984  11.009  12.948  17.093 -0.2490 -0.1872 -0.0714
21781W        W39985   5.517   3.836  12.363  0.0587  0.0346 -0.0847
21782W        W39986   1.293   0.863  13.562 -0.1055 -0.1626 -0.0959
21783W        W39987  12.091  10.381  12.072 -0.1501 -0.1340  0.1140
21784W        W39988  13.981  10.328   4.442  0.4076 -0.1880  0.0582
21785W        W39989  16.752   4.178  12.977 -0.0728  0.1543  0.1093
21786W        W39990  13.398   5.719   1.231 -0.0989 -0.2862  0.0937
21787W        W39991   0.223  15.175   1.623  0.0613 -0.1058  0.0671
21788W        W39992   1.238   0.510   5.549  0.3554  0.2422  0.0577
21789W        W39993  12.744  11.822   4.392  0.0695  0.2087 -0.2628
21790W        W39994  10.177   0.572   2.162 -0.0231  0.3503  0.0902
21791W        W39995  16.268   1.248   4.192  0.0380  0.0103  0.2511
21792W        W39996  10.063  10.090   2.098 -0.2616  0.2519  0.1119
21793W        W39997  11.988   9.948  14.230 -0.0920 -0.1976 -0.1657
21794W        W39998  14.197   5.480   3.978 -0.2497  0.0342 -0.1087
21795W        W39999  12.889  16.749   5.259  0.0774  0.2299  0.3446
21796W        W40000   2.614  15.437   3.407  0.2178 -0.2083 -0.0787
21797W        W40001   2.751   5.701   2.058 -0.2484  0.0016  0.1936
21798W        W40002   9.718  11.432   2.278 -0.1360 -0.0438  0.3292
21799W        W40003   0.683  16.261  16.028  0.3607 -0.0473  0.4680
21800W        W40004  14.629   4.463   5.442 -0.0223 -0.2240 -0.2397
21801W        W40005   6.173   7.518  12.221 -0.0361 -0.2721  0.0690
21802W        W40006  12.194   4.940  16.158 -0.1325  0.1587  0.2935
21803W        W40007  11.109   0.813   2.585 -0.2501  0.1995  0.1155
21804W        W40008   3.494   8.294   0.743  0.0862 -0.0790  0.2763
21805W        W40009   5.188   7.819  12.179 -0.1707 -0.1821  0.3426
21806W        W40010   7.740   2.569   5.221 -0.0416  0.0311 -0.2917
21807W        W40011   2.068  15.978  13.106  0.3549  0.2337 -0.0701
21808W        W40012  11.560  11.301   4.694 -0.2315 -0.1365  0.3653
21809W        W40013   1.659   2.875  13.692  0.0127  0.1510 -0.2624
21810W        W40014  15.909   3.081   0.751  0.0748 -0.0071 -0.0431
21811W        W40015  13.600  13.305   4.610 -0.2828  0.1905  0.1440
21812W        W40016   5.659  14.439  15.515 -0.1386  0.0814  0.2304
21813W        W40017  16.737  12.179  15.890 -0.2597  0.1756 -0.2563
21814W        W40018   8.487  10.394  14.769  0.2398 -0.1876 -0.2512
21815W        W40019   7.262  12.814  14.266 -0.3133  0.0969 -0.0801
21816W        W40020  14.293  15.763   0.724 -0.1502  0.2163 -0.1624
21817W        W40021  14.980  14.673  13.792  0.0248  0.0710 -0.2244
21818W        W40022   3.900  11.379   4.909 -0.0489 -0.0360  0.2884
21819W        W40023   6.830   1.588  12.326 -0.2085  0.0248 -0.3210
21820W        W40024  11.433  15.920   1.150 -0.0312 -0.0981  0.1219
21821W        W40025   7.846   6.207  12.692 -0.0205  0.1080 -0.0984
21822W        W40026   4.899   7.277   5.021  0.2283  0.0469  0.2253
21823W        W40027   4.686   7.760   4.660  0.3474  0.3914 -0.0787
21824W        W40028  16.516  10.331   4.811 -0.0758 -0.0465 -0.1558
21825W        W40029   7.653   5.960   1.513 -0.1824 -0.4684  0.0036
21826W        W40030   0.042   1.443  12.997 -0.0486 -0.0996  0.2002
21827W        W40031  11.170   8.829  13.954 -0.2100  0.1361  0.0513
21828W        W40032  15.520   0.046  14.777  0.1331 -0.1640  0.0833
21829W        W40033   7.316  15.908   2.306 -0.4664  0.1337 -0.0798
21830W        W40034   4.822  14.830   1.012 -0.2279 -0.0114  0.5108
21831W        W40035   0.746   9.146   1.358 -0.1362 -0.0766  0.1263
21832W        W40036   6.284   3.861  17.078  0.0412 -0.1919  0.0540
21833W        W40037   1.854  13.923   2.063 -0.1487 -0.1739  0.1597
21834W        W40038  15.357   6.427  13.324  0.1331 -0.0340  0.0161
21835W        W40039   3.348  10.753   3.296 -0.0331 -0.0490  0.1359
21836W        W40040  17.079   0.419   2.988  0.1875  0.3485 -0.1114
21837W        W40041   7.097  16.243   0.926 -0.1312 -0.0170  0.1065
21838W        W40042  13.096  11.252  12.818  0.1290  0.0089  0.1054
21839W        W40043  16.014   8.516  14.661 -0.0358  0.0750 -0.1615
21840W        W40044   4.192   4.889   4.824  0.1219  0.2821 -0.0499
21841W        W40045  16.703   3.130  15.023  0.2409  0.0598 -0.2477
21842W        W40046   5.631  11.316  15.379 -0.1891  0.0730 -0.0736
21843W        W40047  14.846  11.330  14.294 -0.4834  0.1758  0.1574
21844W        W40048  15.130   5.435  12.540  0.0640 -0.0312 -0.1738
21845W        W40049   6.542  14.156  14.251 -0.4804 -0.0740  0.1155
21846W        W40050   1.765  16.170  12.704 -0.0456  0.1210 -0.0581
21847W        W40051   6.113  13.131  15.543  0.0995 -0.0423  0.2244
21848W        W40052   2.002   8.662  11.780 -0.1910  0.1249 -0.0704
21849W        W40053  10.525  12.323   0.413 -0.1018 -0.0419  0.0263
21850W        W40054   0.709   5.526  12.858  0.0539  0.1406  0.4037
21851W        W40055   4.106   5.877   0.841 -0.2993  0.1413  0.0901
21852W        W40056   3.368  16.092   0.082  0.1479 -0.1256  0.1089
21853W        W40057  15.818   9.560   1.139  0.1708 -0.0243 -0.0527
21854W        W40058   8.030  12.805  12.076  0.0110  0.0371 -0.0591
21855W        W40059   1.815   3.664   1.554  0.3673 -0.2559 -0.2702
21856W        W40060  17.155  12.568  13.630 -0.1465 -0.3348 -0.1719
21857W        W40061   1.819   3.671   4.494 -0.2506 -0.3527  0.1299
21858W        W40062  10.095   7.158   3.265 -0.0071  0.0036  0.2633
21859W        W40063  10.728   7.821   0.933  0.0100  0.2545  0.1833
21860W        W40064   7.174   9.936  13.063  0.0616 -0.2307 -0.1063
21861W        W40065  14.434  10.026  12.913  0.2303  0.1527 -0.1499
21862W        W40066  12.974   8.113  13.402  0.1359 -0.1714  0.1126
21863W        W40067   1.318  11.877   3.713 -0.1199 -0.1067  0.2128
21864W        W40068   1.949   9.168  16.322 -0.1225 -0.1180 -0.2678
21865W        W40069   1.063   3.309  15.626 -0.1018  0.0065 -0.0469
21866W        W40070  13.072  16.537   0.955  0.0324 -0.0736 -0.0893
21867W        W40071   2.666  16.750   4.524 -0.0332  0.0232  0.0886
21868W        W40072  10.373  13.935  12.026  0.0755 -0.1406 -0.3039
21869W        W40073  14.907   1.416   3.550 -0.0356 -0.1960 -0.0454
21870W        W40074   2.542   6.814   2.049 -0.0212  0.2675  0.1720
21871W        W40075   4.708   2.657  14.895 -0.2257 -0.0747  0.0653
21872W        W40076   3.151   3.701   2.306 -0.0545 -0.2159  0.0820
21873W        W40077   6.189  13.280   3.329  0.0153  0.2217  0.1632
21874W        W40078  11.991   7.981  14.947  0.0634 -0.2758 -0.0458
21875W        W40079  11.034   6.663  15.394  0.2461 -0.1102  0.1747
21876W        W40080   1.927  17.536  15.506 -0.2309 -0.0344  0.0430
21877W        W40081   7.749   6.337   1.180 -0.0879 -0.0703  0.1749
21878W        W40082   3.843   2.111   4.975  0.1490  0.3371  0.0214
21879W        W40083  17.302   2.780  16.752  0.1683  0.1833 -0.0791
21880W        W40084   1.131  14.942  14.989  0.2420 -0.1353 -0.0335
21881W        W40085   4.500   4.691  16.008 -0.0523 -0.2826 -0.4547
21882W        W40086  12.037   7.313   2.999 -0.0317 -0.0681  0.3381
21883W        W40087  16.820  15.807  15.989  0.0978  0.0687 -0.0819
21884W        W40088  13.074   2.795  14.774 -0.1664  0.2468  0.2140
21885W        W40089   1.459  14.946   1.897 -0.2022 -0.0491  0.1492
21886W        W40090   0.437  17.180  14.750  0.3844 -0.1553  0.1068
21887W        W40091   0.512  10.641   1.545  0.1183 -0.0114  0.1119
21888W        W40092  13.506  12.048   3.972  0.0544 -0.4561  0.0059
21889W        W40093   0.639   5.757  13.775  0.0981 -0.1073  0.1646
21890W        W40094   4.418   6.253  12.561  0.1230  0.1653 -0.2723
21891W        W40095   1.577  14.323  16.028 -0.1113  0.0333 -0.0165
21892W        W40096  10.556   6.560  15.611 -0.0133 -0.1794  0.1301
21893W        W40097  13.006   7.023  11.729  0.1480  0.1331  0.0722
21894W        W40098   1.380   0.065  13.615  0.0190  0.1372 -0.0255
21895W        W40099   8.722  14.421  14.790  0.1356 -0.1313  0.0529
21896W        W40100   8.929   7.271   3.366  0.1478  0.0686 -0.2500
21897W        W40101   5.899  16.876  12.609 -0.3617 -0.0334  0.1549
21898W        W40102   1.869  10.858   4.722 -0.1058 -0.0865 -0.1431
21899W        W40103   0.916   9.447  13.558 -0.0323  0.1123  0.2482
21900W        W40104   9.227  13.731   0.077  0.2992  0.0388 -0.3650
21901W        W40105  14.768  11.077   1.413  0.1015 -0.0351 -0.2506
21902W        W40106   9.642  15.264   1.111  0.2766  0.0177  0.0176
21903W        W40107  13.092   1.261   0.480  0.1178 -0.0885 -0.0509
21904W        W40108  12.093  15.495   4.470 -0.0336 -0.0560  0.2108
21905W        W40109   5.937  15.979  13.534  0.0247 -0.1052  0.0548
21906W        W40110  11.070  10.242   0.036  0.1596  0.1803  0.0602
21907W        W40111  15.647  11.827   4.048  0.1484 -0.0653 -0.0463
21908W        W40112  12.560   4.135   3.639  0.0755  0.0485  0.0468
21909W        W40113   0.234   6.051  12.208 -0.0117  0.2265  0.0609
21910W        W40114   6.279  12.503  12.287  0.0615  0.3805  0.2893
21911W        W40115   1.529   5.622   0.987  0.0328 -0.1197  0.0996
21912W        W40116   8.601   2.379  14.794 -0.3480 -0.0668  0.0049
21913W        W40117  16.906   8.618   0.231  0.4945  0.0918  0.0842
21914W        W40118   1.013   3.729   2.125  0.0637 -0.1336 -0.1411
21915W        W40119   4.237   1.297  16.235 -0.1360  0.5124 -0.3251
21916W        W40120   6.749  16.558   0.804 -0.0660  0.1522 -0.0966
21917W        W40121  15.002   5.998  15.618 -0.2621 -0.0238 -0.0438
21918W        W40122  16.960   4.737   2.032  0.1625  0.3829 -0.3789
21919W        W40123   7.328  12.106   3.302 -0.1240  0.1373 -0.4240
21920W        W40124   2.456   1.363  14.270  0.0466  0.0643 -0.1846
21921W        W40125  15.101   2.480  16.855 -0.0716 -0.1184  0.1922
21922W        W40126  10.880  16.371   3.091  0.2638  0.0036 -0.2646
21923W        W40127  13.780  10.408   0.597 -0.0734 -0.1152 -0.3721
21924W        W40128  13.296   7.093   2.362 -0.0232  0.0002  0.1280
21925W        W40129   9.669   4.735  16.465  0.1810  0.0186  0.0779
21926W        W40130   9.188   8.972   3.920 -0.4797  0.2289  0.1446
21927W        W40131  12.582  12.170  11.464 -0.1436  0.0401  0.3449
21928W        W40132   8.906   0.364   1.777  0.1037 -0.0718 -0.1757
21929W        W40133  16.397   1.757  15.950 -0.0044  0.1195  0.2580
21930W        W40134   9.551  16.358   2.446  0.2458 -0.4324 -0.0921
21931W        W40135   5.977  15.956  13.017  0.4473  0.2638  0.0365
21932W        W40136   1.880   9.347  13.903  0.0726  0.0748 -0.0345
21933W        W40137   4.798  16.817  15.728  0.0412  0.0623  0.1888
21934W        W40138  12.671   1.042   0.076  0.0845  0.2939 -0.0824
21935W        W40139  13.677   4.144   3.434 -0.3190 -0.3849  0.2924
21936W        W40140   9.423  12.040   3.625 -0.0176 -0.1255  0.0359
21937W        W40141   3.760  12.336  15.953  0.1920 -0.1937  0.2072
21938W        W40142   5.465  13.209  16.951  0.0887 -0.2559 -0.1595
21939W        W40143  16.665  17.480   0.771 -0.2002 -0.1589  0.0459
21940W        W40144   0.379  14.321  14.804 -0.0238  0.0309  0.3141
21941W        W40145   5.213   2.445   1.205 -0.0008 -0.0722 -0.0480
21942W        W40146   8.938  16.508   1.238 -0.1027 -0.0485 -0.2276
21943W        W40147  11.754  16.555  14.731 -0.1708 -0.1545 -0.1777
21944W        W40148   4.026  17.037   1.315 -0.1325 -0.0410  0.0249
21945W        W40149   8.432   8.756   4.118  0.2740  0.0473 -0.0793
21946W        W40150   9.061   6.713   2.800 -0.0929 -0.1912 -0.0952
21947W        W40151   3.557  13.796  14.111 -0.1651 -0.0335 -0.1100
21948W        W40152  13.903   0.060  16.366 -0.0489  0.0174  0.1250
21949W        W40153  15.145   0.387   3.286 -0.1496  0.1220  0.0474
21950W        W40154   3.006  13.575  14.854 -0.1449 -0.0037  0.0128
21951W        W40155   2.107   7.897   1.134  0.0374  0.1789  0.0296
21952W        W40156  13.565   4.590   6.004  0.0161  0.4817  0.1728
21953W        W40157   5.189  13.761   5.294  0.4014  0.0232 -0.0162
21954W        W40158  13.865   0.878   0.306 -0.0572 -0.0541  0.2250
21955W        W40159   2.610  13.049  16.177  0.0372 -0.0649 -0.1780
21956W        W40160  11.381   2.927   0.994  0.0017  0.1500 -0.3318
21957W        W40161  11.120  11.043   2.971 -0.0170  0.2811  0.3540
21958W        W40162  10.574  10.090  15.373  0.0661 -0.1599  0.0883
21959W        W40163  17.171   9.158  14.839 -0.0696 -0.1734 -0.0893
21960W        W40164  13.808  16.794   4.920 -0.3314 -0.3167  0.3589
21961W        W40165   7.141  16.707   5.215  0.1896 -0.1274  0.0027
21962W        W40166  13.506   6.428  15.011  0.0062  0.0604 -0.2822
21963W        W40167   4.444   1.468  13.937 -0.1218 -0.0366  0.1548
21964W        W40168   0.314  12.179  14.907  0.0895  0.1494  0.5262
21965W        W40169   1.978   4.922   5.987  0.0571 -0.3250 -0.0266
21966W        W40170  10.748  13.222   5.016 -0.0988 -0.0075 -0.1930
21967W        W40171   9.053  13.274  14.076 -0.2010  0.1867  0.0540
21968W        W40172  12.788   7.996  13.878 -0.0787  0.0966 -0.1718
21969W        W40173   7.867   8.690   0.367  0.0776  0.2103  0.0104
21970W        W40174  14.719  12.920   1.328 -0.1005  0.2209  0.1174
21971W        W40175   2.888   6.089   5.005 -0.1584 -0.1890 -0.0107
21972W        W40176  16.038  17.197   4.091  0.1836 -0.0202  0.0830
21973W        W40177   3.590   8.983   2.832  0.0702 -0.0287 -0.0649
21974W        W40178   3.633   3.335   5.215 -0.0296 -0.0881  0.1055
21975W        W40179   1.876  11.742   0.795 -0.0930 -0.0848  0.0999
21976W        W40180   3.453   7.228  14.408 -0.1596  0.1898  0.0858
21977W        W40181  12.270  12.071   1.460  0.1678 -0.2413  0.2438
21978W        W40182   2.925   5.419   4.720  0.0615 -0.0134 -0.2369
21979W        W40183  14.117  16.536  15.263  0.1731  0.1511 -0.1208
21980W        W40184  12.327   9.308  16.263  0.3003 -0.3287 -0.3207
21981W        W40185   8.209  17.267   0.970 -0.0352 -0.0229  0.1781
21982W        W40186  11.132   1.779   3.882  0.0683 -0.1285 -0.1707
21983W        W40187   4.093   4.066  14.583 -0.1419 -0.2018 -0.1590
21984W        W40188   7.391   2.473  16.792 -0.1475 -0.2575 -0.1509
21985W        W40189  14.815   9.582   3.788  0.1294  0.0766  0.0385
21986W        W40190   2.371   3.186   2.427  0.3451 -0.0049  0.0648
21987W        W40191  10.039   9.478   0.500  0.1402 -0.1649 -0.1200
21988W        W40192   0.513  10.513   4.168  0.1391  0.2033  0.0747
21989W        W40193   8.078   2.892  13.253 -0.0821 -0.4287  0.2353
21990W        W40194  17.161   7.850   2.833 -0.2738  0.1071  0.2669
21991W        W40195   0.837  10.803   3.791  0.1623  0.0027  0.3393
21992W        W40196  16.650  13.371   3.214  0.0659  0.2373  0.0398
21993W        W40197  10.686  12.406  11.805 -0.0253 -0.1243  0.1934
21994W        W40198  15.295  15.931  14.743  0.0131  0.0872  0.1309
21995W        W40199   8.305  15.087  13.888 -0.2303 -0.1311  0.0442
21996W        W40200   9.381  10.242   3.417 -0.0453  0.0501  0.1411
21997W        W40201   5.420  11.664   1.562 -0.0390 -0.3456 -0.4973
21998W        W40202  10.431  16.731  14.962 -0.1258  0.0861 -0.1322
21999W        W40203  16.293  15.493  16.771 -0.2033  0.1809  0.2600
22000W        W40204   9.992   3.830  14.710  0.0140  0.2275  0.1182
22001W        W40205   4.277   2.743  15.745 -0.0728 -0.2660  0.3386
22002W        W40206  17.383  10.684  13.250 -0.0733  0.0022  0.1848
22003W        W40207  16.672   7.237   4.503  0.0945  0.1939  0.0469
22004W        W40208   5.114   6.695  13.018  0.0182 -0.2724  0.1521
22005W        W40209  13.134  16.322  13.108  0.1165  0.0546 -0.1488
22006W        W40210  16.359  14.937  14.340 -0.2438 -0.0264 -0.1327
22007W        W40211   2.779   8.531  15.358 -0.1423  0.0580  0.0469
22008W        W40212  11.690   1.427  15.264  0.0140 -0.1879  0.1514
22009W        W40213  15.970  13.523   1.456 -0.0533 -0.0166 -0.0439
22010W        W40214   2.898   7.572   3.176 -0.0897 -0.2588  0.3711
22011W        W40215   8.086  12.829   1.990 -0.1064  0.3280  0.1829
22012W        W40216  13.080   6.980  15.991 -0.0978  0.2944  0.0215
22013W        W40217   9.987  11.754   2.570  0.0852 -0.0423 -0.1731
22014W        W40218   2.369  15.596  13.042  0.1839  0.0835  0.1350
22015W        W40219   6.620  17.444  13.405  0.2436 -0.0051  0.0495
22016W        W40220   8.042  14.790  11.944 -0.1090 -0.0623 -0.0150
22017W        W40221   3.341   0.420  14.906 -0.1745  0.0474  0.1972
22018W        W40222  10.267  13.705   2.005  0.1935 -0.0863  0.0107
22019W        W40223  16.428   9.078  14.133  0.1282  0.2448  0.0130
22020W        W40224   0.556   7.008   0.860  0.0334  0.1666 -0.1748
22021W        W40225   4.276  10.185   2.640 -0.1976  0.4407  0.0739
22022W        W40226   7.020  12.329  17.037 -0.1374 -0.0774  0.0160
22023W        W40227   8.962   2.015   0.102 -0.3431  0.1474  0.3301
22024W        W40228  14.915   1.778  13.770  0.3676 -0.2559 -0.0670
22025W        W40229   1.302   7.981   3.710  0.4022  0.2633  0.0816
22026W        W40230  10.028  14.955  13.938  0.3554  0.0614  0.0374
22027W        W40231   0.407   7.721  13.154 -0.1762 -0.0933 -0.3002
22028W        W40232   9.305   4.372   0.246  0.0303 -0.1822 -0.0423
22029W        W40233  16.671   3.336   1.044 -0.0691 -0.1503  0.2940
22030W        W40234   7.823   0.975   3.531  0.2258  0.1148 -0.3002
22031W        W40235   9.315   2.652  13.919  0.0143 -0.1745 -0.0426
22032W        W40236  15.353  11.963  15.209  0.2347  0.0540  0.1495
22033W        W40237   3.683   9.478  16.736  0.1473 -0.1374 -0.0049
22034W        W40238  13.672  11.662  12.157 -0.0225 -0.2173 -0.2550
22035W        W40239  10.591   8.806  16.172  0.3320  0.1808  0.0547
22036W        W40240   0.652  14.246   0.820  0.1158  0.2974 -0.3806
22037W        W40241   6.226  10.750   4.386 -0.0988 -0.2241 -0.1534
22038W        W40242   3.995  11.140   1.672  0.0274  0.2775  0.2140
22039W        W40243   9.159   5.418  15.086  0.1943  0.0753  0.0672
22040W        W40244   4.005  16.517   2.527  0.2872  0.2091 -0.0582
22041W        W40245  11.632  11.331  14.791 -0.0541  0.0394 -0.1608
22042W        W40246  15.641   6.005   4.701  0.1032  0.1208 -0.1571
22043W        W40247   1.080  16.978  13.008  0.0544  0.0227  0.1363
22044W        W40248  13.721   0.926  15.346 -0.0898 -0.4185  0.2992
22045W        W40249  13.039  12.743   3.508  0.1025  0.1466  0.1203
22046W        W40250  16.537  10.071  13.724  0.1430  0.0953 -0.5051
22047W        W40251  13.447   1.597  16.461  0.0463 -0.0118  0.0520
22048W        W40252  12.796   7.885   1.962  0.0445 -0.0759 -0.1336
22049W        W40253  10.014  17.502   1.803  0.0613  0.2688  0.0984
22050W        W40254   0.647  14.751  15.920 -0.0503 -0.3137 -0.0530
22051W        W40255   9.424  13.617   1.497 -0.0606  0.1163  0.0111
22052W        W40256   7.153   1.335  16.075  0.0477  0.1579 -0.2067
22053W        W40257   1.403  14.987  17.060 -0.2242  0.1775  0.3823
22054W        W40258  17.085   2.994   5.268 -0.2241 -0.1555  0.4559
22055W        W40259   9.321   7.241   1.559 -0.0952  0.5844 -0.1697
22056W        W40260  14.837   5.261  13.050  0.1157 -0.1457 -0.0200
22057W        W40261   0.868  16.256  13.303 -0.1638  0.5057 -0.4810
22058W        W40262  14.888   5.758   1.070  0.1088 -0.1186 -0.2469
22059W        W40263   9.213   2.052  15.064 -0.1167 -0.1540 -0.1080
22060W        W40264   3.135  12.794  12.306  0.3284  0.1664 -0.1736
22061W        W40265  15.035   9.207  11.967  0.3518 -0.4848 -0.3370
22062W        W40266   2.714  14.171  13.360 -0.1811 -0.1314 -0.1166
22063W        W40267   8.139   5.270   2.785  0.0006  0.3507  0.2106
22064W        W40268   3.587   9.563   2.967  0.0792 -0.0165  0.3534
22065W        W40269   9.462  15.716  15.386 -0.3030 -0.1045  0.0094
22066W        W40270   8.256  17.181  12.996  0.3192  0.0023  0.1890
22067W        W40271   2.185   5.383  16.559  0.1921 -0.1794 -0.3330
22068W        W40272  12.674   7.146   2.282 -0.0262 -0.1159  0.0786
22069W        W40273   8.846   6.083  15.590  0.2263  0.1892 -0.1183
22070W        W40274   6.218  16.030  12.536  0.1868  0.3442  0.1634
22071W        W40275   6.763  12.363  15.280  0.0242 -0.1347 -0.3345
22072W        W40276  16.229  14.944  15.913 -0.1459 -0.3330  0.1835
22073W        W40277   9.603   6.346   2.067  0.1558 -0.3128  0.0418
22074W        W40278   2.906   5.037  13.439  0.0946 -0.0031 -0.0183
22075W        W40279  10.117   6.106   1.543 -0.1850  0.2110 -0.3158
22076W        W40280   3.130   9.854  12.675  0.1412  0.1396  0.2314
22077W        W40281  10.143  14.678  14.375 -0.2698  0.1174 -0.0691
22078W        W40282  14.482  17.511  13.494 -0.0443 -0.3320 -0.0562
22079W        W40283  10.237  12.931  11.444 -0.0204 -0.1086 -0.0454
22080W        W40284  14.338  15.387   3.058  0.0462 -0.1335 -0.0091
22081W        W40285   7.552  15.996  14.257 -0.0149 -0.1572 -0.0658
22082W        W40286  10.343  13.974  16.627 -0.0229  0.0893  0.0291
22083W        W40287  14.388   9.149   4.796 -0.0406  0.1029 -0.2469
22084W        W40288   4.336  13.749   1.549  0.1846 -0.1892  0.1756
22085W        W40289  16.768  15.626   4.517  0.0653  0.1050  0.0415
22086W        W40290   7.863  17.380  15.198 -0.1703  0.2037  0.0316
22087W        W40291   1.028   1.684   3.863 -0.1097 -0.1683 -0.1986
22088W        W40292   0.654   6.373   3.309  0.0048  0.0425  0.0614
22089W        W40293   3.295  10.606  14.260  0.1390 -0.0258  0.0789
22090W        W40294  16.645  11.444   2.245 -0.0003  0.4075  0.2924
22091W        W40295  13.094   0.053   1.648 -0.2106 -0.2944 -0.2326
22092W        W40296  14.219   0.698  13.454  0.2024  0.2797  0.1461
22093W        W40297   6.608  15.636  12.147 -0.1507  0.1067 -0.0933
22094W        W40298   3.094  10.504  14.788  0.1509 -0.1235 -0.1291
22095W        W40299   9.744  14.236  17.172 -0.1466  0.0695  0.1646
22096W        W40300   8.440   9.840  13.158 -0.1328  0.2136 -0.2217
22097W        W40301  15.784  14.377   3.858  0.0968  0.0156 -0.2039
22098W        W40302  15.761  10.226   0.797  0.3131  0.0197 -0.1654
22099W        W40303   0.382   6.680   1.291  0.0917  0.3510  0.1994
22100W        W40304  10.813   9.241   0.102 -0.1047 -0.1537  0.2085
22101W        W40305  13.469   5.028  15.375 -0.1768  0.1576  0.1163
22102W        W40306  14.414   9.638  14.743  0.0427  0.1905 -0.0705
22103W        W40307  12.801  15.007   5.229 -0.1438 -0.1148  0.2419
22104W        W40308  12.487   7.506  14.847 -0.0043 -0.0797 -0.1471
22105W        W40309   8.792   6.493   5.278  0.0617  0.0091 -0.1531
22106W        W40310  12.039   8.275  14.486 -0.1528 -0.1534  0.0389
22107W        W40311  14.564   8.663  15.056  0.4167 -0.0464 -0.0598
22108W        W40312  12.501   7.945  12.828  0.0270 -0.0531  0.2379
22109W        W40313   8.023  14.431  16.796 -0.0051 -0.0156 -0.2852
22110W        W40314   7.537   5.296   4.460  0.0947  0.0148 -0.0238
22111W        W40315   5.750   8.016   1.386  0.3518 -0.0575  0.0932
22112W        W40316   4.885   2.962   2.679 -0.0764  0.0664  0.0729
22113W        W40317  13.630   4.239   1.315  0.1895 -0.0121  0.0568
22114W        W40318   6.977   3.753  12.243  0.2212 -0.0078 -0.0448
22115W        W40319   1.770  16.253   3.412 -0.0924  0.0238 -0.4339
22116W        W40320   7.449  10.822   3.101  0.0274 -0.0974  0.1609
22117W        W40321   8.609   1.807   1.961  0.0457  0.1432 -0.0756
22118W        W40322   5.080  11.150   0.755  0.0453  0.0121  0.3829
22119W        W40323   9.188   1.404   2.207 -0.1441 -0.2067 -0.0290
22120W        W40324  12.651   8.775   0.776  0.2918  0.4057 -0.0664
22121W        W40325   6.295   2.122  17.196 -0.3078 -0.1268  0.2179
22122W        W40326   6.285   0.403   1.978 -0.2206  0.0456  0.1808
22123W        W40327  12.284  10.154  13.464 -0.2090  0.3007 -0.0085
22124W        W40328   0.663   0.770   2.437 -0.0453 -0.2173 -0.0256
22125W        W40329  15.444   5.435   4.688 -0.0948 -0.0168 -0.1454
22126W        W40330   9.908   3.767   4.653 -0.0838 -0.2537 -0.1066
22127W        W40331   8.905   1.259   2.598 -0.1177  0.0496  0.1403
22128W        W40332   7.687  16.909   2.590  0.0734 -0.4292  0.0225
22129W        W40333   7.162   6.029  13.619 -0.3386 -0.0046 -0.2472
22130W        W40334  15.164  12.104   1.655  0.0723 -0.1081 -0.0189
22131W        W40335   5.272  14.378   3.935 -0.0287 -0.1371 -0.1785
22132W        W40336   7.788   4.010  14.417  0.3256 -0.2375  0.0287
22133W        W40337   7.819   3.417  17.004 -0.0229 -0.1362 -0.0650
22134W        W40338  12.841   6.238   3.489  0.0914 -0.0076  0.1054
22135W        W40339  17.127   2.012   5.101  0.0472  0.1473 -0.1374
22136W        W40340  17.530  10.278   2.182  0.0806 -0.0295  0.1570
22137W        W40341  14.936   1.908   2.655  0.1993  0.1728  0.1386
22138W        W40342   6.956  15.379  11.961 -0.3118  0.1349  0.0884
22139W        W40343   1.902  14.484  17.103  0.0912  0.2202  0.1097
22140W        W40344  16.109   2.256   0.523 -0.0782  0.2122 -0.0869
22141W        W40345  10.049   9.685   1.818  0.1105 -0.0672  0.3293
22142W        W40346  16.809  13.435  15.740  0.0296 -0.2083  0.2352
22143W        W40347  16.419  13.490   0.774 -0.0370  0.0983 -0.2408
22144W        W40348   1.162   3.584   4.046  0.0032 -0.3826  0.4281
22145W        W40349  11.542  10.910   0.341 -0.0643 -0.0809 -0.1672
22146W        W40350  11.872  15.954   4.246  0.0003  0.2579 -0.2270
22147W        W40351  15.789  12.778  12.760 -0.0524  0.0038 -0.1291
22148W        W40352   0.491  16.134   0.728  0.1694 -0.2413  0.2656
22149W        W40353  11.811   2.609  13.396  0.0994 -0.2667  0.1065
22150W        W40354   0.057   0.979   0.009  0.3505  0.0045  0.1695
22151W        W40355   8.631   5.345   2.763  0.0544 -0.1257 -0.0347
22152W        W40356  12.645  15.187  15.063  0.2734 -0.0061  0.0786
22153W        W40357  15.045   9.385  15.208  0.2900 -0.3602  0.2991
22154W        W40358   4.179  12.432  13.667 -0.2773 -0.0561 -0.0086
22155W        W40359   4.083   5.362  17.152  0.1608  0.0589  0.1284
22156W        W40360  12.193  12.574   4.529 -0.0870  0.0534  0.0759
22157W        W40361   0.718   7.412  12.354 -0.2335  0.0901  0.2419
22158W        W40362   2.992   5.969  14.801 -0.2121  0.3208 -0.1577
22159W        W40363   1.027  11.550   0.507  0.0204 -0.2073  0.1299
22160W        W40364   0.772  11.828   0.865 -0.0887 -0.1148  0.2071
22161W        W40365   2.850   5.981   2.468 -0.2927  0.0863  0.0374
22162W        W40366   1.386   9.584   1.095  0.0371  0.2769 -0.0359
22163W        W40367   7.163  16.523  14.274  0.0523 -0.2766 -0.2650
22164W        W40368   9.412  15.583  16.392 -0.0053 -0.1014  0.2402
22165W        W40369   0.136   5.739   3.550 -0.0359 -0.1018  0.1410
22166W        W40370  16.689   1.041   1.356  0.0219  0.3257 -0.2091
22167W        W40371   4.284  11.625  11.802 -0.0924  0.0493 -0.1424
22168W        W40372   1.797  11.393   2.637 -0.0846  0.0701  0.0052
22169W        W40373  10.311   0.544   3.542  0.0695 -0.2973 -0.2340
22170W        W40374   5.113  15.763   5.513  0.1916 -0.2600  0.3791
22171W        W40375  12.396  16.368   2.135 -0.1648  0.2246 -0.0932
22172W        W40376  15.857   8.370   4.114  0.1380  0.0073 -0.1939
22173W        W40377  16.124   1.547  17.040 -0.0676  0.0759 -0.0567
22174W        W40378  17.540   5.787   5.116 -0.2124 -0.3822 -0.0206
22175W        W40379   5.398  14.372   0.926 -0.2548 -0.2074 -0.1537
22176W        W40380   2.727  11.927   2.638 -0.1933 -0.2045  0.2452
22177W        W40381   1.323  10.069   3.654  0.0541  0.1081  0.2354
22178W        W40382  16.028   3.896   2.916  0.2481  0.0216 -0.0506
22179W        W40383   3.684   0.351  13.696 -0.3281 -0.0449 -0.2063
22180W        W40384   5.359  17.516   4.509  0.4492 -0.0879  0.1642
22181W        W40385  16.441  13.942   4.914  0.2309  0.0661 -0.2620
22182W        W40386   5.919   9.685   2.354  0.2527  0.0565  0.0368
22183W        W40387   9.943   4.809   4.258  0.1590 -0.1816 -0.0880
22184W        W40388   2.147  11.803   1.958 -0.3371  0.1006 -0.1540
22185W        W40389   6.444   2.965  14.528  0.1295  0.2358  0.0513
22186W        W40390   7.018   1.562  16.569  0.0913  0.0521  0.0293
22187W        W40391   0.688  10.135  13.168 -0.2221 -0.0458  0.0288
22188W        W40392  12.620  14.441   0.867 -0.1144 -0.1754  0.0314
22189W        W40393  13.290  15.100   0.897  0.1047  0.0922  0.1685
22190W        W40394  10.008  13.248   3.355 -0.2943  0.0410  0.0054
22191W        W40395  15.581   7.422   1.451  0.0002  0.0814  0.0523
22192W        W40396   9.000  14.238   3.294 -0.0179 -0.0585 -0.0040
22193W        W40397  10.987  16.030  14.673 -0.1924  0.1659  0.0064
22194W        W40398   6.924   2.400  14.086  0.0330  0.2921  0.2114
22195W        W40399  10.968  12.191   0.561 -0.1423 -0.3695  0.1571
22196W        W40400  12.918  14.449   1.696 -0.1932 -0.1349  0.0581
22197W        W40401  10.816  11.589  12.226 -0.2486  0.1982  0.0122
22198W        W40402   6.601  13.628  14.481 -0.0467  0.1280 -0.0691
22199W        W40403   9.671  15.611   5.081  0.3780 -0.0461 -0.1578
22200W        W40404   8.036   2.541  16.984 -0.1199  0.0356  0.1648
22201W        W40405  12.756   3.092   1.675  0.0239  0.0026  0.2509
22202W        W40406   8.964  10.088   2.746  0.1508 -0.2298  0.0133
22203W        W40407  11.986  11.780   0.855 -0.1334  0.0154  0.1560
22204W        W40408   4.010  15.476   6.363  0.0692 -0.2979 -0.0196
22205W        W40409  11.965   7.740  14.173  0.1967 -0.0068  0.0693
22206W        W40410   3.102   8.790   2.638  0.0558 -0.2189  0.2921
22207W        W40411  10.520   8.942  15.480  0.0068 -0.2285  0.1145
22208W        W40412   3.608   8.079   2.309  0.1200 -0.0152  0.0186
22209W        W40413  11.978   6.554   2.527 -0.1146  0.1621  0.0371
22210W        W40414   5.101  11.489  15.529 -0.0161  0.0653 -0.2424
22211W        W40415   4.816  10.391   3.102 -0.3072 -0.1017  0.2475
22212W        W40416  10.330  17.178  12.293  0.1015  0.1495  0.0788
22213W        W40417   2.602   3.980   4.476 -0.0413  0.1952 -0.2641
22214W        W40418  16.488  13.704   2.302 -0.0404 -0.0128 -0.2467
22215W        W40419   5.115   8.419   3.864  0.0603 -0.0119  0.0296
22216W        W40420   0.590   1.280   3.646  0.3729 -0.2345  0.1349
22217W        W40421  12.979   3.867   2.921 -0.2345 -0.1292  0.4249
22218W        W40422  15.620  14.506   5.997  0.0144 -0.0096 -0.4122
22219W        W40423   2.820   2.280   0.077  0.2104 -0.1263  0.1488
22220W        W40424  15.038  12.959  12.544  0.0556 -0.1800  0.3405
22221W        W40425  15.138   6.143  12.944 -0.0866 -0.2015 -0.3082
22222W        W40426  14.143   0.871   1.818  0.0399  0.1146  0.1030
22223W        W40427   1.790   2.541  16.954 -0.0536 -0.1909  0.3180
22224W        W40428   5.389   7.426  14.697  0.1008 -0.0385  0.0925
22225W        W40429   7.799  13.521   3.025  0.3119 -0.1018 -0.2215
22226W        W40430   1.289  13.717   2.428 -0.0182  0.2543 -0.0151
22227W        W40431   5.377   2.367  12.796  0.2223 -0.2916  0.1647
22228W        W40432   1.990   8.551  16.475  0.1295  0.0168  0.0198
22229W        W40433   7.531   0.037  13.330  0.0938 -0.2621  0.1446
22230W        W40434  10.136  11.248  16.872 -0.0490 -0.0747  0.0818
22231W        W40435   6.347  10.954   2.740 -0.1112 -0.5113 -0.1348
22232W        W40436  16.153  16.079  15.111  0.3023 -0.1842  0.3906
22233W        W40437   3.597   6.934  12.540  0.2596  0.1455  0.0421
22234W        W40438  14.765  17.009  13.399  0.0921  0.0137  0.0886
22235W        W40439  10.656   4.919  13.783  0.1523  0.2968 -0.0370
22236W        W40440   4.385   3.443   3.564  0.1447  0.1355 -0.0642
22237W        W40441  16.497   9.039   1.538 -0.0714 -0.0246  0.0001
22238W        W40442  10.420   2.198  16.616  0.2898 -0.1282  0.1712
22239W        W40443   5.831   1.480   4.361  0.1308 -0.0652 -0.1934
22240W        W40444   6.523   7.229  13.847 -0.0502 -0.4099  0.0314
22241W        W40445   0.935  15.617  14.442 -0.3065 -0.2488 -0.2894
22242W        W40446  11.721  10.830   1.392 -0.3652  0.3515  0.0229
22243W        W40447  12.447   8.741   4.240  0.1578 -0.4914 -0.3433
22244W        W40448  12.375   9.287   3.835  0.0758  0.1568 -0.1036
22245W        W40449   1.785   2.685  14.131 -0.1438  0.0632  0.0758
22246W        W40450   8.097   1.394  15.627  0.2717  0.0982 -0.0441
22247W        W40451   1.291  10.748  15.417 -0.1224  0.1050  0.0347
22248W        W40452  17.441   9.867  14.041 -0.0297  0.2761  0.0231
22249W        W40453  15.583  10.084   5.291  0.0134 -0.1639 -0.2770
22250W        W40454  17.353  14.975  14.422  0.1445 -0.1091  0.0291
22251W        W40455   6.971   0.857   0.020 -0.1334 -0.2346  0.2283
22252W        W40456   0.180  11.431   1.274 -0.0501 -0.0062 -0.0795
22253W        W40457   2.901  10.461   3.025 -0.0673 -0.4216  0.1629
22254W        W40458   6.438  12.896   0.014 -0.0097 -0.2235 -0.1138
22255W        W40459   1.609  17.171  13.923  0.0149 -0.3665  0.3219
22256W        W40460  17.017  11.178  15.901  0.0502  0.2081  0.3406
22257W        W40461   7.473   9.876  13.988 -0.1870 -0.0330  0.4936
22258W        W40462   5.589   9.365   2.227 -0.1286  0.0104  0.0084
22259W        W40463   0.520  16.620   2.322  0.0898  0.0404  0.4523
22260W        W40464   2.086   4.685  13.482 -0.0715  0.2880 -0.0255
22261W        W40465   3.743   3.013   4.183  0.1247  0.0466  0.0687
22262W        W40466  12.618   4.173  13.772 -0.0139  0.1745  0.0076
22263W        W40467  10.912  10.405  14.305  0.1067  0.1213  0.2550
22264W        W40468   2.391   3.555   4.512  0.3695  0.5667 -0.0700
22265W        W40469   8.525  15.757   1.364  0.2327  0.0634  0.3157
22266W        W40470   4.030  10.959   1.018  0.2152 -0.2202 -0.2345
22267W        W40471   3.229  16.155   4.268  0.1076  0.0118  0.0876
22268W        W40472  17.467   2.687  13.660  0.0249 -0.1548 -0.0005
22269W        W40473  15.621  10.422  17.230  0.6573 -0.2516 -0.0286
22270W        W40474   1.419  12.248  11.083  0.1466 -0.1182  0.2591
22271W        W40475  11.888   0.421  13.758  0.0800 -0.2427  0.1337
22272W        W40476  11.450   6.286   4.972  0.0804  0.0386  0.2000
22273W        W40477   0.679  10.355   3.630  0.0934  0.0870  0.0208
22274W        W40478  11.135   8.088   1.526  0.0779  0.0077  0.0070
22275W        W40479   1.187   6.419   5.838  0.1362 -0.0806  0.0440
22276W        W40480  17.141  10.063   0.109 -0.0806  0.0480  0.0424
22277W        W40481  15.798  17.229   4.702  0.1067  0.0323  0.0554
22278W        W40482  12.181   7.722  11.082  0.0042 -0.1206 -0.0315
22279W        W40483   7.594   8.896   3.942  0.0364  0.4438  0.0126
22280W        W40484  12.393  15.993   0.361  0.0231  0.1819  0.0589
22281W        W40485  14.653  15.017  11.737 -0.1081  0.2075 -0.0213
22282W        W40486  15.397  10.546  16.741 -0.1814  0.1221  0.2743
22283W        W40487   8.817  13.767   2.213  0.1396  0.1011 -0.2185
22284W        W40488   4.597  11.000   4.683 -0.1390 -0.1484 -0.1949
22285W        W40489   9.643  15.374  14.192  0.1467 -0.1160 -0.2310
22286W        W40490   8.217  14.143  15.640 -0.1442 -0.0313  0.1026
22287W        W40491   0.084   5.158   1.478 -0.0026 -0.0495  0.0364
22288W        W40492  15.390   3.236  13.547 -0.0182 -0.2557 -0.0178
22289W        W40493  16.709  10.293  11.449 -0.2187  0.0534 -0.4683
22290W        W40494   7.165  10.989   3.581  0.4294 -0.2464  0.3032
22291W        W40495   3.544  15.083   1.279 -0.0255  0.2816  0.2869
22292W        W40496  13.806  12.685   5.310 -0.0541  0.0896 -0.0005
22293W        W40497   4.454  14.280   5.292 -0.0210  0.0907 -0.2523
22294W        W40498   9.761   7.577  15.345 -0.2746  0.4091  0.1255
22295W        W40499  16.641  14.781  14.702 -0.2496 -0.0844 -0.0934
22296W        W40500   3.868  17.534   4.246  0.1024 -0.1677  0.3996
22297W        W40501   3.270   9.473  11.924 -0.0054 -0.1270 -0.0168
22298W        W40502   9.476   8.234  17.004  0.1398 -0.0773 -0.0863
22299W        W40503  14.062   9.552  16.431 -0.0525 -0.0360 -0.2841
22300W        W40504  16.766   1.174  12.550 -0.1746 -0.2430 -0.1071
22301W        W40505  14.703   1.276   4.886  0.0714 -0.0026  0.3992
22302W        W40506  12.476   6.677   2.351 -0.0739 -0.0363  0.1122
22303W        W40507   9.327  13.775   2.172  0.0772 -0.1491  0.4786
22304W        W40508   0.488  17.094   2.569  0.0831 -0.1005 -0.1539
22305W        W40509   5.510  10.198   4.190 -0.1642  0.0753 -0.0938
22306W        W40510  10.606   2.129  13.372  0.0325  0.0541  0.0493
22307W        W40511   3.847  15.893   3.983  0.1495 -0.1351 -0.0195
22308W        W40512  12.592   2.671   5.140  0.0378 -0.2438 -0.0588
22309W        W40513  12.808   7.505  13.677 -0.4484  0.2514  0.2352
22310W        W40514   9.176   5.781   0.192  0.0152 -0.5631  0.0066
22311W        W40515   6.742  14.743  12.678 -0.1703  0.1275  0.1612
22312W        W40516  12.782  15.244  16.636  0.0867  0.0932  0.2484
22313W        W40517   6.317  10.151   3.810  0.0734  0.1438 -0.3671
22314W        W40518  10.654   3.948   0.338 -0.2335 -0.1020 -0.0628
22315W        W40519   3.821  11.937  12.057  0.0616 -0.1494  0.0519
22316W        W40520  17.222   2.594  12.324  0.1545  0.0685  0.1691
22317W        W40521  12.718   2.083  13.600 -0.2805 -0.1560  0.3255
22318W        W40522   7.537   2.043   2.004 -0.1551  0.1242 -0.1101
22319W        W40523  12.173  15.242   0.156  0.1583 -0.1512  0.1541
22320W        W40524   0.539  11.635  12.161  0.0652  0.0833 -0.2254
22321W        W40525  13.504   6.926  16.937 -0.1814 -0.0399  0.0571
22322W        W40526  12.136   5.421  16.789 -0.3446  0.0370  0.1361
22323W        W40527  16.827  17.339   1.984  0.0962  0.4451 -0.0511
22324W        W40528   7.907   9.669   3.245  0.2120 -0.1470 -0.1289
22325W        W40529  16.973   5.216  17.141 -0.0712 -0.2898  0.0956
22326W        W40530  14.126   2.343   2.531  0.2795  0.1372 -0.0932
22327W        W40531   1.817  15.217   2.413 -0.0769 -0.0623 -0.1431
22328W        W40532   9.163  12.490  15.130 -0.1581 -0.0660  0.0994
22329W        W40533  12.292  14.968   5.201 -0.2129  0.1437 -0.2028
22330W        W40534   9.630  15.606   3.355  0.2538  0.0193  0.0273
22331W        W40535   5.075  13.334   1.765 -0.0940  0.1084 -0.3430
22332W        W40536   8.201   2.147   3.129 -0.0199  0.3365  0.0281
22333W        W40537  17.003   5.529   2.921 -0.2768  0.1028 -0.2357
22334W        W40538   9.028   1.237  12.173  0.1491 -0.2470  0.2199
22335W        W40539   7.295   6.212  15.898  0.1142  0.0566 -0.1697
22336W        W40540   1.450   8.144  15.650 -0.1147  0.2544 -0.0410
22337W        W40541   6.520   6.788   3.977  0.3162  0.1183  0.1188
22338W        W40542   5.264   7.549  17.034 -0.0786  0.2474 -0.0237
22339W        W40543  16.892  12.300   2.120  0.1622 -0.2257 -0.0390
22340W        W40544  12.374   5.757  14.457 -0.0968 -0.1523  0.3528
22341W        W40545  16.133  15.231  16.383  0.0917  0.2173 -0.0467
22342W        W40546  13.355   4.604  15.018  0.0288  0.2461 -0.4213
22343W        W40547  14.171  16.832  15.698 -0.0874  0.2725 -0.1606
22344W        W40548   6.520  13.025   3.059 -0.3199 -0.2165 -0.0439
22345W        W40549  10.504  10.062  14.238  0.0202  0.0476 -0.0153
22346W        W40550  17.345   0.827  14.004  0.0495  0.3862 -0.1802
22347W        W40551   8.026   5.232   1.647 -0.1652  0.1469  0.0509
22348W        W40552   0.607   9.856  13.571 -0.1182  0.0664 -0.1274
22349W        W40553  11.033   1.228  14.386 -0.3382 -0.1443 -0.0583
22350W        W40554  13.398   8.226   1.772 -0.2694 -0.4510  0.0384
22351W        W40555  12.829   7.072  12.649 -0.1305 -0.3580 -0.2012
22352W        W40556   6.049   1.615  16.910  0.2268  0.1560  0.2017
22353W        W40557   7.942   5.768  16.514 -0.2042 -0.0846  0.3761
22354W        W40558   0.201  12.310  12.970  0.0075  0.0079  0.0418
22355W        W40559  11.178  11.401  15.044 -0.3504 -0.2838 -0.1483
22356W        W40560  17.030  14.443  14.483  0.2123  0.2220 -0.2319
22357W        W40561   8.775   4.260   0.196 -0.1009 -0.3777 -0.1471
22358W        W40562  10.500   8.515  12.221 -0.1042 -0.2579 -0.0722
22359W        W40563  15.955   3.152   0.258 -0.2267 -0.0383  0.3186
22360W        W40564   2.429   6.749  14.454  0.0906 -0.0674 -0.0219
22361W        W40565   6.760   7.624   1.892 -0.0036  0.1198  0.0614
22362W        W40566  11.122   3.009  16.274 -0.1464  0.1277  0.0855
22363W        W40567   3.315   9.362  15.511 -0.5099  0.0648 -0.2341
22364W        W40568   6.638   2.362  15.065 -0.1356  0.1596  0.2632
22365W        W40569   3.246  17.242   2.631 -0.1972 -0.0274 -0.3540
22366W        W40570  15.915  12.378  12.420 -0.0427  0.0083  0.0444
22367W        W40571   2.251  16.230   0.348 -0.0716 -0.0135  0.0149
22368W        W40572  13.807   1.915  15.835 -0.3396  0.1475  0.2246
22369W        W40573  13.558   3.843   4.785  0.0345  0.1270 -0.1466
22370W        W40574   4.715   5.680  16.240  0.3218  0.1730 -0.3935
22371W        W40575   2.101  13.932   4.022  0.3368 -0.0619 -0.0150
22372W        W40576  17.246  10.879   0.397 -0.1453 -0.0961  0.1384
22373W        W40577   4.374   0.290   3.177  0.1402  0.0543 -0.2956
22374W        W40578   1.188  14.362  16.279  0.0436  0.2859  0.2520
22375W        W40579   2.603  11.753   3.157 -0.4141 -0.1607 -0.1185
22376W        W40580   4.325   0.194  16.442  0.0993 -0.0751  0.0522
22377W        W40581  12.212  17.494  16.351  0.4045  0.0914  0.1617
22378W        W40582  16.197   8.814   4.734 -0.1329  0.2262  0.0762
22379W        W40583  11.183   2.084  13.023 -0.3313 -0.0529  0.0017
22380W        W40584   7.284   6.954  14.330  0.0969  0.0796 -0.3110
22381W        W40585   6.383  10.734   1.037  0.2525  0.3279 -0.1207
22382W        W40586  11.589   8.404   1.866  0.3281  0.0051  0.1727
22383W        W40587  17.098  15.520  16.352 -0.0927 -0.0914  0.0522
22384W        W40588   6.020  12.750  15.240 -0.0969  0.0599  0.0731
22385W        W40589   6.895   1.723   1.007  0.2989  0.0607 -0.0187
22386W        W40590  15.847   7.010   5.030 -0.0007 -0.2265 -0.0405
22387W        W40591  16.115  12.582   5.181 -0.0335  0.3617  0.3371
22388W        W40592   1.336   6.828   5.284 -0.1329  0.0874  0.1170
22389W        W40593  14.061   0.834  13.998 -0.2245 -0.3575  0.1904
22390W        W40594   6.966   3.101  13.231  0.1267 -0.0481 -0.0068
22391W        W40595  14.473   1.090  13.254 -0.2660 -0.0735  0.1061
22392W        W40596  12.390   6.291  16.158  0.2465  0.0217  0.2153
22393W        W40597  16.649   9.812  12.805  0.2350  0.1561  0.1999
22394W        W40598   3.679  15.835   5.036  0.1643 -0.3690  0.0456
22395W        W40599   6.486   5.802   2.952 -0.2837  0.0928  0.3584
22396W        W40600  13.968  16.805   5.711  0.3361 -0.2174 -0.0134
22397W        W40601   6.169   3.780   0.391 -0.2055 -0.1638 -0.0355
22398W        W40602  12.853  11.690   5.405 -0.2791 -0.1895  0.2453
22399W        W40603  13.623   8.556   2.148  0.1784 -0.1306 -0.2549
22400W        W40604  14.202   4.409  12.967  0.1141  0.3631  0.0318
22401W        W40605   8.706   4.180   1.972 -0.1170 -0.2473 -0.4399
22402W        W40606  16.728  15.114   4.153  0.2740 -0.0011  0.1947
22403W        W40607   6.529   3.971   1.556  0.0614  0.0803 -0.0294
22404W        W40608  12.454   0.176  14.541 -0.0401 -0.0368 -0.1478
22405W        W40609  14.222  13.234  14.214 -0.0764 -0.2405 -0.0453
22406W        W40610   0.756   9.034  12.618 -0.0986  0.1680  0.0154
22407W        W40611  14.408   0.021   3.900 -0.1429 -0.0980 -0.1015
22408W        W40612  16.592   8.565   0.673 -0.1125  0.4337  0.2317
22409W        W40613   5.400   8.662  13.648 -0.2667 -0.4735 -0.0394
22410W        W40614  12.938   1.481   2.340  0.0400 -0.0731  0.2078
22411W        W40615  10.186   8.678   3.085  0.1842 -0.0523 -0.0070
22412W        W40616   8.917  15.226  11.819 -0.0596  0.1332 -0.2177
22413W        W40617  11.410  16.090   3.463  0.0324 -0.0926  0.2675
22414W        W40618  10.849   2.925   0.871 -0.1208  0.0520 -0.0874
22415W        W40619   4.014  11.894   5.314 -0.2931  0.0547  0.1821
22416W        W40620  10.079  11.081  12.861 -0.2260  0.2747  0.0320
22417W        W40621   1.937  16.262   4.670  0.1100  0.2673 -0.0062
22418W        W40622   0.695   7.934  11.912  0.0127  0.0726 -0.1351
22419W        W40623   3.938  16.708   2.973 -0.0105  0.2068 -0.3260
22420W        W40624   2.202  16.491  12.519 -0.2884 -0.1779  0.2106
22421W        W40625  11.087  13.178  13.710  0.0302  0.0453  0.1342
22422W        W40626  13.064  12.030  13.848  0.0853 -0.0049  0.1390
22423W        W40627  15.287  12.496   2.014  0.3332 -0.2285  0.1959
22424W        W40628  12.609   3.491  13.782 -0.0948 -0.0833 -0.3278
22425W        W40629   7.740   2.537  16.436 -0.1371 -0.4554 -0.2202
22426W        W40630  13.850  13.546  14.790 -0.3035  0.4768 -0.0883
22427W        W40631   1.978   4.148   1.704  0.0621  0.1030  0.6034
22428W        W40632   6.935  13.589   1.522 -0.1240  0.2052 -0.1247
22429W        W40633  11.984  10.550  13.559 -0.4211  0.1245  0.1225
22430W        W40634  10.635   8.944   5.294  0.0690  0.2401 -0.0427
22431W        W40635  10.617  14.175  17.018 -0.0602 -0.4538 -0.0500
22432W        W40636   8.439   7.281   5.185 -0.0250  0.1562 -0.4224
22433W        W40637  13.896  12.587  16.413  0.0273 -0.0487 -0.2963
22434W        W40638   7.937   1.654  12.616 -0.1732  0.3461  0.1875
22435W        W40639  14.446   3.754  16.193  0.1877  0.0442  0.1027
22436W        W40640   7.361   8.817  15.391 -0.1592  0.2564 -0.2852
22437W        W40641  17.009  11.737   2.453  0.0147  0.3261  0.1762
22438W        W40642  16.669   4.840  15.780 -0.0240 -0.1095 -0.1348
22439W        W40643  16.854  14.031   6.225  0.0242  0.0579  0.1666
22440W        W40644  16.804  12.681  16.522  0.1642 -0.0987 -0.4293
22441W        W40645   4.810  17.385   1.897  0.1049 -0.1029  0.0452
22442W        W40646   4.121  14.857   4.276 -0.0244  0.3209  0.1302
22443W        W40647   2.938  13.128  11.995  0.0493 -0.1115  0.1795
22444W        W40648   9.052   7.939   3.117  0.2154 -0.1665 -0.0750
22445W        W40649   0.754   5.057   4.676 -0.0028  0.0438 -0.0681
22446W        W40650   7.146   4.155  15.963  0.0825  0.1133  0.1482
22447W        W40651   5.270  10.808   1.174  0.2851  0.0703  0.1648
22448W        W40652   6.495  10.379  13.685  0.0397  0.0178  0.0045
22449W        W40653   5.251   1.560  15.278  0.3677 -0.1811 -0.4185
22450W        W40654   0.228   2.889   1.791 -0.1255  0.1729  0.2246
22451W        W40655  13.314  10.876   4.649  0.0343  0.0916  0.0073
22452W        W40656  15.355   5.121  15.372  0.1581 -0.0543 -0.3294
22453W        W40657  11.849   1.155   1.177 -0.2713  0.0449 -0.0444
22454W        W40658   3.799   1.005   2.053 -0.0420 -0.0981 -0.1115
22455W        W40659  12.763  12.722  10.873 -0.1188  0.3439  0.2329
22456W        W40660   3.998   7.265  15.139  0.2338 -0.3410 -0.0538
22457W        W40661  10.712  13.381  12.605  0.1164  0.0600 -0.1654
22458W        W40662   7.365  15.173  12.637 -0.3009  0.1920 -0.1067
22459W        W40663   2.811  16.181   5.318  0.3361  0.2168 -0.2339
22460W        W40664   8.417   2.828   0.976 -0.0949  0.0340  0.1451
22461W        W40665  11.252   0.590  11.241 -0.2442 -0.2133 -0.1031
22462W        W40666   5.528   9.710   4.236 -0.0247 -0.0115  0.0006
22463W        W40667   9.214   7.823   3.650 -0.0388 -0.1612 -0.0894
22464W        W40668   9.133  16.715  16.708 -0.2452  0.0700  0.1356
22465W        W40669   0.797   1.158   4.126 -0.2954 -0.2004  0.0308
22466W        W40670  10.548  15.438   0.236 -0.1060 -0.0020  0.0616
22467W        W40671   3.281   3.787   5.191  0.1758 -0.3732  0.3657
22468W        W40672   4.163  10.870  11.976  0.1612 -0.1509  0.2126
22469W        W40673  12.603   2.691  13.301 -0.0360 -0.2579 -0.0561
22470W        W40674  11.757   4.398  16.837 -0.1518 -0.0269 -0.2264
22471W        W40675  11.693  15.829  12.850  0.0616  0.3273  0.1031
22472W        W40676  12.084  12.821  15.758 -0.1726 -0.1392 -0.1528
22473W        W40677   2.352   5.653   3.974 -0.3344 -0.1503 -0.0553
22474W        W40678   1.504  15.644  13.896  0.1443 -0.0475 -0.0144
22475W        W40679  15.413   8.209   0.502  0.1737  0.2284  0.3233
22476W        W40680   5.197  13.422  15.985 -0.3659 -0.0238 -0.1536
22477W        W40681  11.499   9.011  16.657  0.0334  0.1606 -0.0527
22478W        W40682   7.524   8.495  13.040  0.0416  0.1320  0.0680
22479W        W40683  12.990  17.211   3.388 -0.1106  0.2033  0.4892
22480W        W40684   1.895  14.228  16.429 -0.1101 -0.2766 -0.2576
22481W        W40685   1.007  12.875   3.988  0.1118  0.1954 -0.0188
22482W        W40686  10.051   2.463   2.603 -0.0056  0.0142  0.1398
22483W        W40687  10.451   6.973   0.709 -0.1116 -0.0272 -0.0117
22484W        W40688  12.229   3.679   0.477  0.0179  0.1984 -0.1427
22485W        W40689   2.874   0.022  16.854  0.0167 -0.0386 -0.1216
22486W        W40690  15.524   1.004  13.995  0.1707  0.0602 -0.0412
22487W        W40691   9.565   8.487   5.235  0.2641 -0.2751 -0.1454
22488W        W40692  15.438   7.284   0.931  0.0530  0.0497  0.0671
22489W        W40693  11.351  14.939   2.526  0.0079  0.2483  0.0082
22490W        W40694  15.482   5.056  13.821 -0.2098  0.1421  0.0046
22491W        W40695   0.764   7.094  15.664  0.4323 -0.0737  0.1783
22492W        W40696   5.805  17.150   2.036 -0.0392 -0.0447  0.0096
22493W        W40697   3.340  13.403  12.981 -0.2173 -0.2413  0.1578
22494W        W40698  17.143   9.524  17.046 -0.1053 -0.1810 -0.0520
22495W        W40699   6.559  14.319   3.074 -0.1833  0.1432  0.2202
22496W        W40700   5.610   7.292   3.072  0.0031  0.0112 -0.1132
22497W        W40701   0.657  10.446   2.889  0.0952 -0.3745 -0.0363
22498W        W40702   9.542  14.132   4.766 -0.1358  0.1607 -0.0764
22499W        W40703   4.107   9.629   1.756  0.0783 -0.3223  0.0580
22500W        W40704   9.058  12.629  13.527 -0.0934  0.2832  0.1973
22501W        W40705  17.455   2.637   5.208  0.0059 -0.1794  0.1855
22502W        W40706   4.536   6.496   2.146  0.0341  0.0445 -0.0203
22503W        W40707   7.830   0.640  14.908  0.0248  0.1114 -0.1087
22504W        W40708  15.520   9.044  16.979  0.1671  0.1338  0.2770
22505W        W40709   4.023  16.061   1.539 -0.0899 -0.2261 -0.2925
22506W        W40710   0.365  16.794   5.486  0.0578  0.4015 -0.0654
22507W        W40711  16.948  15.498   0.726  0.1785 -0.1786  0.0996
22508W        W40712   5.907  12.312  15.055  0.1053  0.1875 -0.0808
22509W        W40713  11.192   9.426  15.896 -0.1877 -0.0807 -0.1554
22510W        W40714   5.314   7.119   4.813 -0.0284 -0.0059  0.1917
22511W        W40715  14.338   4.931  14.453  0.3221 -0.1223  0.1146
22512W        W40716   6.758   6.293   0.649 -0.1107  0.2059 -0.0067
22513W        W40717   6.381  11.037   3.313  0.2529  0.0353  0.0600
22514W        W40718   8.982   7.385  16.778  0.0038 -0.1332  0.2822
22515W        W40719  13.744  11.404   5.058 -0.0547 -0.0112  0.0200
22516W        W40720  13.264   0.677  11.871  0.1255  0.1408  0.0139
22517W        W40721   2.189  16.804   4.482  0.1030 -0.0023 -0.1116
22518W        W40722  15.821   0.915   5.229  0.2244 -0.0842  0.0208
22519W        W40723   0.871   0.057   2.772 -0.0592  0.0696 -0.1535
22520W        W40724   7.930   1.770   2.945 -0.2629 -0.2459 -0.0831
22521W        W40725  16.949   9.205   1.355 -0.0333  0.2032 -0.4339
22522W        W40726   3.184  11.613  12.566 -0.1823  0.0837  0.4034
22523W        W40727   0.072  10.711   1.316  0.2751  0.2116 -0.1244
22524W        W40728  12.102  16.784  14.456  0.0970  0.0648 -0.1189
22525W        W40729   4.655   3.497  16.550  0.0176  0.4468  0.1996
22526W        W40730   0.733  14.577  15.012 -0.0129 -0.1634  0.2960
22527W        W40731   8.963  12.677   1.459  0.0005 -0.2254  0.0249
22528W        W40732   2.695  15.041  12.379 -0.0398  0.0808 -0.1443
22529W        W40733   6.652   9.762  17.084  0.0248 -0.2000 -0.0022
22530W        W40734  10.572   7.030  14.167  0.1408 -0.2648  0.1238
22531W        W40735   6.069   6.998   4.765  0.0879  0.2270 -0.0510
22532W        W40736   9.582   9.439   1.621  0.2040  0.0077 -0.1900
22533W        W40737  13.424  17.360  15.329 -0.0173 -0.0330 -0.0306
22534W        W40738   9.551  14.130  13.933 -0.0149  0.3353  0.2289
22535W        W40739   9.991   4.183   3.838 -0.2021 -0.0320  0.0815
22536W        W40740  15.546  11.655  12.166  0.2532 -0.1443  0.0850
22537W        W40741  13.353   6.219  14.075 -0.0647 -0.2853  0.1172
22538W        W40742   5.231   4.760   1.658  0.0967 -0.1434 -0.0512
22539W        W40743   8.193   4.696  13.748  0.0559  0.1387 -0.3573
22540W        W40744  12.245  12.961   5.184 -0.0118  0.1499  0.0212
22541W        W40745  12.701   0.599  14.683  0.3820  0.0413  0.0689
22542W        W40746   6.979   0.195  12.405 -0.1141 -0.1269  0.0468
22543W        W40747   1.731   0.546   5.490 -0.0415 -0.1141  0.0860
22544W        W40748   0.461   2.837   3.000 -0.0189  0.4116  0.1395
22545W        W40749   0.180  10.778  12.253  0.1934  0.1483 -0.2262
22546W        W40750  15.530   2.503   4.194 -0.2008 -0.1517 -0.1168
22547W        W40751  14.892  14.529  16.919 -0.0719 -0.1993 -0.2001
22548W        W40752  16.460  12.990  15.717 -0.0372 -0.2297 -0.1670
22549W        W40753   4.338  13.475  17.106  0.1423 -0.1631 -0.1333
22550W        W40754  15.942   2.108  16.493  0.1107 -0.5346 -0.1173
22551W        W40755  11.890   6.095  15.564 -0.0166  0.0547 -0.2485
22552W        W40756   8.196   0.180   0.731 -0.1611  0.1486  0.0722
22553W        W40757   0.288   0.325   5.368 -0.1054 -0.2022  0.2286
22554W        W40758   4.075   4.000   4.701 -0.0060  0.1358  0.0997
22555W        W40759   4.605  13.377   1.784  0.0264 -0.1909  0.0664
22556W        W40760   0.606   0.175   0.208 -0.1650 -0.2975 -0.1838
22557W        W40761   1.245  13.143   2.644  0.1501  0.1955 -0.1419
22558W        W40762  10.880  11.423  12.935  0.1203 -0.0735 -0.1191
22559W        W40763   1.053   7.225   4.364 -0.0105 -0.1596  0.1984
22560W        W40764  12.796  11.671  13.659  0.2909 -0.4389  0.0129
22561W        W40765  12.572  13.059   3.354  0.0011  0.0025  0.4039
22562W        W40766  11.974  11.245   3.772  0.2672 -0.1074 -0.0382
22563W        W40767   5.413  10.087  15.555 -0.0617 -0.1441  0.0159
22564W        W40768   3.191   9.927  15.834 -0.0251  0.1745 -0.1067
22565W        W40769   3.774  15.704  15.213  0.0056  0.2685 -0.2229
22566W        W40770   3.465  13.827   3.499  0.0710  0.1579  0.0389
22567W        W40771   1.830  17.446   6.101  0.2107  0.2333  0.0451
22568W        W40772  11.158   1.851  16.884  0.0853  0.0449 -0.2335
22569W        W40773   1.908   9.109   4.101  0.2924  0.2161  0.0544
22570W        W40774   2.450  13.816   3.230  0.0913  0.0754  0.1989
22571W        W40775   2.789   9.185   4.642 -0.0645  0.0273  0.4799
22572W        W40776  13.549   3.251   1.293  0.1066  0.0652  0.1154
22573W        W40777   3.042   4.334  13.986  0.2082  0.2932  0.1853
22574W        W40778  11.338  12.277  13.741  0.0881 -0.1622  0.2780
22575W        W40779  14.440  16.514   2.919 -0.1234  0.1202 -0.2117
22576W        W40780   6.708   9.326  16.830  0.0957 -0.0359  0.2333
22577W        W40781   6.680   8.156  14.061 -0.0443 -0.2160  0.1186
22578W        W40782   6.496   5.681   2.360  0.0210 -0.2217  0.1405
22579W        W40783   6.499  11.758   5.921 -0.4550  0.1249 -0.1450
22580W        W40784  16.048  10.493   5.131  0.1892  0.0933 -0.1977
22581W        W40785   9.331  11.721  15.032 -0.0923 -0.1893  0.0858
22582W        W40786  16.626   2.566   4.556 -0.1536  0.3777 -0.1621
22583W        W40787  16.144   6.011   4.453  0.1233  0.1589  0.1419
22584W        W40788  16.214  12.766   3.517  0.0027  0.0700 -0.0048
22585W        W40789   9.449   6.527  14.320  0.2138 -0.0894  0.1262
22586W        W40790  13.124   9.751  17.257 -0.0330  0.1707 -0.1905
22587W        W40791   8.294   5.091   3.390 -0.1828  0.1054  0.0119
22588W        W40792   3.965   8.228   1.484 -0.2992  0.2294  0.2742
22589W        W40793   1.667  15.018   4.538 -0.1339  0.1172  0.0993
22590W        W40794   8.501  12.829   1.093  0.1650 -0.2648 -0.0804
22591W        W40795  14.374   7.356  15.988  0.0622  0.1486  0.0529
22592W        W40796  15.789   7.999  16.804  0.0121  0.0928 -0.0469
22593W        W40797   3.100   6.459   3.758 -0.0533  0.2796 -0.3394
22594W        W40798  14.587   8.711  13.149  0.1074 -0.1732  0.0378
22595W        W40799   6.717   8.275  13.143 -0.2289 -0.0049 -0.2214
22596W        W40800  14.501   7.304  15.237  0.0165  0.3008 -0.0260
22597W        W40801   0.063  10.631   0.691  0.1156  0.0630  0.4493
22598W        W40802   8.487  10.935  14.866 -0.0284  0.1671 -0.1058
22599W        W40803   7.765  10.413  13.647  0.0905  0.1709 -0.0189
22600W        W40804  14.553   3.423  17.194  0.1578 -0.4139 -0.4045
22601W        W40805   1.334  13.495  16.179  0.2443  0.1993 -0.3318
22602W        W40806  13.122   4.891   0.621  0.0178  0.1261  0.0771
22603W        W40807   7.728  16.075   1.993 -0.1010 -0.1841 -0.2371
22604W        W40808  10.179  10.641   2.060 -0.2018  0.1115 -0.0944
22605W        W40809  13.435   7.758  15.800 -0.0218 -0.2269 -0.1268
22606W        W40810  15.795  10.866  12.428 -0.0131 -0.0351 -0.1386
22607W        W40811  14.970   2.716   0.097  0.0832  0.1661 -0.0292
22608W        W40812  12.737   5.790   0.934  0.2675  0.2562 -0.5903
22609W        W40813   6.004   2.021   3.246  0.0129 -0.1166  0.2667
22610W        W40814  10.654   8.933   0.682 -0.0540  0.0585 -0.0568
22611W        W40815   5.301  13.260   4.450  0.2284 -0.0096  0.1515
22612W        W40816  13.324   8.845  14.280  0.2078 -0.0098  0.0536
22613W        W40817  10.698   9.532  10.928  0.1439 -0.1201  0.0061
22614W        W40818   9.926  17.251  11.456 -0.2585 -0.0629 -0.0894
22615W        W40819   7.966  13.921  17.024 -0.0104 -0.1554 -0.0254
22616W        W40820  15.583  10.450  12.342 -0.1146 -0.0302 -0.0153
22617W        W40821   6.484   3.119  16.255  0.2094 -0.0100  0.1884
22618W        W40822   1.098   5.313   0.998 -0.0834 -0.2648 -0.0412
22619W        W40823   6.180   5.177   1.453 -0.0494 -0.0827  0.1136
22620W        W40824  13.888   3.287   4.711 -0.1438 -0.0177 -0.0178
22621W        W40825   0.174  12.897  16.956  0.0626 -0.0117  0.0954
22622W        W40826  11.464  17.179   4.752  0.0178 -0.2321 -0.2480
22623W        W40827   8.180  15.605  12.858 -0.1153  0.0639  0.0689
22624W        W40828  13.260   4.775   0.099  0.5861  0.2692  0.0165
22625W        W40829  14.300   0.348   3.507  0.1092  0.0022 -0.1834
22626W        W40830  14.440  15.978   5.398  0.2457 -0.1303  0.3159
22627W        W40831  15.369  17.396  12.497 -0.0308  0.2000 -0.1317
22628W        W40832   2.120   6.010   0.451 -0.2662  0.0263 -0.1035
22629W        W40833   7.867   3.162   0.674 -0.1437 -0.1246  0.0816
22630W        W40834   5.330  10.660  12.255  0.0912 -0.0403  0.3205
22631W        W40835   5.313   0.911  13.196  0.1566 -0.0336  0.0728
22632W        W40836   8.947   9.448  13.941  0.3272 -0.0132  0.1032
22633W        W40837   8.445  10.077   5.099  0.0430 -0.0217  0.2176
22634W        W40838   1.497   5.923   2.355 -0.0481 -0.1095 -0.0084
22635W        W40839  13.273   1.698   0.358  0.0851 -0.0751  0.3836
22636W        W40840  11.276  15.041   0.481  0.2308 -0.1174 -0.0772
22637W        W40841  11.088  17.299  15.467  0.1247 -0.2757  0.1190
22638W        W40842   3.383   6.693  16.154  0.1340  0.0913  0.2455
22639W        W40843   2.586   8.815   1.021  0.1006  0.2578  0.0839
22640W        W40844   9.743   1.509   2.076 -0.1619 -0.0556 -0.0371
22641W        W40845   1.039  12.854   0.032 -0.0251  0.0157 -0.1006
22642W        W40846  16.049   3.903  14.969  0.0745 -0.0959  0.2380
22643W        W40847   6.297  10.433  14.755 -0.3390  0.1478 -0.2988
22644W        W40848  10.600   4.218   5.128  0.1432  0.0673  0.0602
22645W        W40849   3.380   3.704  16.116 -0.3166 -0.1143 -0.2739
22646W        W40850   3.645  12.794  12.441  0.1426  0.1204  0.0903
22647W        W40851  17.218  10.270   3.001  0.2376 -0.0760 -0.0736
22648W        W40852   4.053   9.332   2.909  0.1993 -0.0018  0.0136
22649W        W40853   0.021   8.558  10.872  0.1107 -0.0781 -0.0001
22650W        W40854   3.234   9.048  15.985 -0.1760 -0.1074 -0.0024
22651W        W40855   5.226   5.526  14.477 -0.1119  0.1403  0.4516
22652W        W40856   9.880  16.794   4.353 -0.1371  0.1570 -0.0826
22653W        W40857   1.434   6.433   4.182 -0.2163 -0.0536 -0.0117
22654W        W40858   0.363  12.582  14.133  0.1632 -0.2739  0.2160
22655W        W40859   9.074  15.348   4.621 -0.0427  0.0543 -0.2103
22656W        W40860  12.599  10.973   3.830 -0.2274  0.0906  0.0840
22657W        W40861   8.675  13.126   1.459  0.2334  0.3008 -0.3801
22658W        W40862  14.178   5.832   0.801  0.0843 -0.0902  0.0975
22659W        W40863   8.626  11.894  14.343 -0.0640  0.0943  0.3533
22660W        W40864  13.588  14.668   5.019  0.0567  0.4595 -0.2881
22661W        W40865  12.476   1.718  13.302 -0.1282  0.3012  0.1600
22662W        W40866   6.329   7.141  16.302 -0.0614  0.3631  0.1686
22663W        W40867   6.611  16.522  12.300 -0.0668  0.0002 -0.0205
22664W        W40868  12.173  10.167   0.506 -0.2005  0.0150  0.0952
22665W        W40869  10.352   4.094  14.227 -0.0027 -0.1617  0.0667
22666W        W40870  11.032   4.996  16.145  0.0581 -0.0938 -0.0763
22667W        W40871   5.720  16.193   4.527 -0.0929 -0.0943 -0.0892
22668W        W40872  12.729  10.922  12.940 -0.0973  0.0379 -0.0516
22669W        W40873   4.696   1.284  16.441  0.2868  0.1915  0.0073
22670W        W40874  14.040   1.212  12.289 -0.2972 -0.3312  0.0189
22671W        W40875   4.708  10.232  15.654 -0.1499  0.2239  0.0436
22672W        W40876  15.456  15.078  14.507 -0.3503  0.3975 -0.0067
22673W        W40877   1.114  14.334  12.624 -0.2307  0.0807  0.0089
22674W        W40878  14.523  13.231   5.603  0.0440  0.1017  0.1812
22675W        W40879   9.716   8.999  16.239  0.6276  0.2336 -0.0502
22676W        W40880  12.817   9.251   0.500 -0.0830  0.1612 -0.2088
22677W        W40881  13.453   7.589   2.474 -0.0054 -0.1973 -0.0657
22678W        W40882  10.369  12.940   4.274  0.0823 -0.2034 -0.1067
22679W        W40883  17.103   7.317  16.976  0.0724 -0.2094  0.1354
22680W        W40884   9.019  10.716   4.479  0.1808  0.0600 -0.3586
22681W        W40885  16.668   5.341  16.519  0.2273 -0.1065  0.0483
22682W        W40886   8.132   3.817  15.168 -0.2249  0.1868  0.0034
22683W        W40887   0.562  14.594  11.135 -0.1377  0.0479 -0.2912
22684W        W40888   1.949  12.540  12.834 -0.3967  0.1550 -0.0039
22685W        W40889   6.764   7.918   0.506 -0.1268  0.3147  0.1244
22686W        W40890   8.133   8.776   3.085 -0.0541 -0.0186  0.1184
22687W        W40891  14.751   5.368  16.240 -0.0091 -0.1866  0.3309
22688W        W40892  11.642   7.048   1.881  0.1132  0.0171 -0.1240
22689W        W40893  10.819   7.947  12.764 -0.1979  0.0001  0.0034
22690W        W40894  13.979  16.426  12.211 -0.0472 -0.0014  0.2461
22691W        W40895   9.152   6.993   2.018  0.1110 -0.4736 -0.2550
22692W        W40896   5.898  16.296   5.033 -0.3038  0.0534 -0.2570
22693W        W40897   7.280  11.037   2.566 -0.0171 -0.0001  0.0455
22694W        W40898  11.904  16.732   4.873 -0.1990 -0.0956 -0.2628
22695W        W40899   5.025   2.013  15.317 -0.3662  0.0029  0.1360
22696W        W40900   6.084  11.173  12.321  0.2152  0.0241 -0.2832
22697W        W40901   0.493   2.141  16.480 -0.2791 -0.2106 -0.4441
22698W        W40902  11.493   3.021   3.045  0.2428  0.0228  0.1479
22699W        W40903   1.586  10.341  14.745  0.0107 -0.2103 -0.0999
22700W        W40904  12.264  15.733  17.220 -0.0069  0.3762  0.1372
22701W        W40905  15.149   2.628   4.509 -0.2047  0.0256 -0.3796
22702W        W40906   7.543  12.266  15.756 -0.1052 -0.2368 -0.2509
22703W        W40907   3.917  13.276  12.414 -0.3304  0.1555  0.1056
22704W        W40908   0.305  10.411  12.910  0.2025 -0.1817  0.0548
22705W        W40909   0.989  12.238  15.132 -0.3135 -0.0992  0.2122
22706W        W40910   6.949  16.061  13.070  0.0876 -0.1642  0.1081
22707W        W40911   7.464   1.477  14.767 -0.1146  0.0803  0.2479
22708W        W40912  17.458   1.972   1.641  0.0407  0.1680 -0.2017
22709W        W40913  14.937   8.027  13.332  0.0287  0.1562  0.1205
22710W        W40914   6.447   6.187  17.103  0.2930  0.3587  0.0333
22711W        W40915  11.103   7.802  14.660  0.1887 -0.0224  0.1049
22712W        W40916   7.921   2.491   1.787 -0.0382  0.0097  0.1159
22713W        W40917  11.623  15.324   0.162  0.1236  0.0620  0.1599
22714W        W40918   1.094  17.280   1.472 -0.0510  0.1394  0.1325
22715W        W40919   6.472  11.460  12.366 -0.1180 -0.1722 -0.0059
22716W        W40920  12.993   2.470  16.360 -0.1060 -0.1139  0.0339
22717W        W40921   5.791   7.656   5.285  0.0827 -0.0386  0.2140
22718W        W40922  16.558  13.615   3.620  0.1424 -0.3588  0.1796
22719W        W40923   2.907   5.411   0.830  0.0773  0.4153  0.0442
22720W        W40924   2.312   8.403  16.139 -0.1646 -0.1093  0.2246
22721W        W40925  14.385   6.617  16.777  0.2281  0.3683 -0.0619
22722W        W40926   5.153  11.629   2.497  0.2895  0.0329  0.0155
22723W        W40927   7.381  14.248  15.171 -0.1110  0.0300 -0.2801
22724W        W40928   4.089   4.468   0.166 -0.1655  0.0613  0.0400
22725W        W40929   2.595   1.941  13.006 -0.1399 -0.3009 -0.0496
22726W        W40930   9.693   5.856   1.796 -0.0461  0.1701  0.0382
22727W        W40931  15.908  11.185   0.454  0.2585 -0.2008 -0.2522
22728W        W40932  17.461   9.363   1.951 -0.1517  0.1332 -0.1287
22729W        W40933   0.315  15.221  14.623 -0.0701  0.3904  0.1933
22730W        W40934   4.928   0.848  12.844 -0.1476 -0.0822 -0.2274
22731W        W40935  11.057  14.288  11.677  0.0774  0.1632  0.0929
22732W        W40936   0.451  16.891   4.445  0.3454  0.0385  0.1351
22733W        W40937  12.789  12.103  12.356 -0.1285 -0.1048 -0.0338
22734W        W40938   9.875  11.016   1.319  0.1209  0.0923  0.1860
22735W        W40939  16.744   6.740   2.799 -0.0909 -0.2234 -0.1163
22736W        W40940  16.659  11.885   1.887  0.2148 -0.2634 -0.1169
22737W        W40941  10.787   7.329  16.798  0.0596  0.0531 -0.4059
22738W        W40942   6.317  13.476   0.747 -0.2808  0.0586 -0.0576
22739W        W40943  15.888  14.550  12.582  0.2142 -0.1048 -0.0785
22740W        W40944   8.713   0.313  12.629  0.1113 -0.1337  0.0272
22741W        W40945   8.237  15.780   2.140 -0.0439  0.2984  0.0604
22742W        W40946   3.466   8.064   0.262  0.0271 -0.0717  0.0560
22743W        W40947   3.301  15.429   3.005 -0.2600 -0.2702  0.0790
22744W        W40948   2.420   3.812  15.710  0.0850  0.2024  0.1195
22745W        W40949  17.151   0.629  14.394  0.3442 -0.1688 -0.0707
22746W        W40950  11.770  11.849   3.042  0.2212  0.0720  0.0515
22747W        W40951   7.247   6.626  13.496  0.1008  0.0355 -0.2703
22748W        W40952  13.776   7.509   1.182 -0.2113 -0.2160 -0.1211
22749W        W40953  15.594  10.639   5.257 -0.2527  0.0943 -0.3582
22750W        W40954  10.953  14.488   3.783 -0.0811 -0.4127 -0.0834
22751W        W40955   6.930   9.269   2.277 -0.0870 -0.3552 -0.0088
22752W        W40956  11.925   9.270  16.604 -0.1174 -0.0843  0.0112
22753W        W40957  17.414   5.979  13.953  0.1112 -0.0094 -0.1057
22754W        W40958  14.542   9.090  15.867  0.3185  0.3630 -0.0241
22755W        W40959   5.256   4.225  16.182  0.3384 -0.0693 -0.2655
22756W        W40960  11.761  12.335  17.221  0.1263  0.2288  0.0604
22757W        W40961  11.031  11.840  15.681  0.1269  0.1872  0.2063
22758W        W40962  10.293  17.307   2.709 -0.0443  0.0522 -0.1550
22759W        W40963   9.114  16.988   1.258  0.0352  0.0947 -0.0913
22760W        W40964  15.923   9.680  14.658  0.1261  0.0868 -0.1480
22761W        W40965   0.479  17.165  15.706 -0.1413 -0.2642  0.0152
22762W        W40966   4.698  16.212   3.529  0.0402  0.2391  0.0088
22763W        W40967  10.757   6.053   3.435 -0.0349 -0.0682  0.2259
22764W        W40968  14.780   2.000  15.330 -0.1530  0.1844  0.0506
22765W        W40969   9.944   0.144   3.479  0.0999  0.3420  0.0762
22766W        W40970  16.260  17.271  14.905 -0.0255  0.2923 -0.1809
22767W        W40971  14.568   7.278  12.641  0.0521  0.1670  0.2318
22768W        W40972  17.426  13.289   3.997  0.1063  0.1874  0.2067
22769W        W40973  13.704   6.338   1.824  0.0932  0.3625  0.0535
22770W        W40974  10.185   7.439   2.702 -0.1821  0.2260  0.1142
22771W        W40975   4.155  16.337  13.138 -0.0729 -0.0892 -0.4099
22772W        W40976   1.704  15.790   3.377  0.0461  0.0578 -0.1064
22773W        W40977   1.858   8.878  12.425  0.2541 -0.0084  0.1058
22774W        W40978   2.832   0.798  11.806 -0.0560 -0.1191  0.0358
22775W        W40979  11.768   2.577   1.460  0.3059 -0.1458  0.1057
22776W        W40980   8.134  14.326   3.156 -0.0970 -0.2965 -0.0674
22777W        W40981   1.222  14.126  13.545 -0.0621  0.0711  0.0359
22778W        W40982  16.414   4.245   3.169  0.2313 -0.2939 -0.2451
22779W        W40983   0.772  12.572   3.635 -0.0412  0.4400  0.0470
22780W        W40984  13.687   4.190  14.494  0.0320  0.2142 -0.0026
22781W        W40985   9.337   4.174  12.772 -0.1200  0.0555 -0.2560
22782W        W40986   6.896   6.249  16.189  0.3211 -0.1929  0.2767
22783W        W40987   5.867  16.899  13.920  0.0591  0.1957  0.0577
22784W        W40988   9.884  16.294  16.433 -0.2196 -0.0186  0.3379
22785W        W40989   4.934  15.282   1.153 -0.1122  0.0096 -0.0516
22786W        W40990   4.299  12.341   1.931  0.0477  0.2633 -0.1868
22787W        W40991   6.629   4.323   3.804 -0.1813  0.1177  0.0077
22788W        W40992   6.825   7.553  14.928 -0.0229 -0.1489  0.2155
22789W        W40993   2.352  13.377  15.320 -0.2412 -0.0909 -0.0670
22790W        W40994  10.407  11.538  13.591  0.1355  0.3312 -0.0215
22791W        W40995  11.820  13.642   2.948  0.0267  0.2712  0.1417
22792W        W40996   4.705  14.965   6.659  0.1252  0.1958 -0.1006
22793W        W40997  12.226   4.029   2.342 -0.4652  0.0755 -0.0345
22794W        W40998   5.034   1.317  16.044  0.1049 -0.0111 -0.1560
22795W        W40999   2.960   2.996   4.763 -0.0606 -0.0128 -0.0501
22796W        W41000   2.629  13.768  12.548 -0.0488  0.0247 -0.1442
22797W        W41001  10.800   4.012  14.072  0.0960  0.2046 -0.0593
22798W        W41002   1.627   8.737   0.546  0.0738  0.3766 -0.1475
22799W        W41003  15.276   4.089  15.023  0.0959  0.1457 -0.0912
22800W        W41004  14.628  14.930  17.121  0.0918 -0.1136  0.0374
22801W        W41005   6.200   5.322  15.481 -0.2005  0.0018 -0.0206
22802W        W41006  10.962  15.652   2.297  0.1224  0.1489 -0.1089
22803W        W41007  11.783  15.054   1.051  0.0961  0.3136  0.0288
22804W        W41008  14.485  16.970   3.185  0.2335  0.1976 -0.2347
22805W        W41009  14.491   9.115  11.933 -0.2450 -0.0849  0.1896
22806W        W41010  15.822   5.731   6.473  0.2914  0.1470  0.1167
22807W        W41011   4.549  12.348   0.450 -0.1924  0.2049  0.2026
22808W        W41012   7.135  16.621   0.503  0.0413 -0.1835 -0.0688
22809W        W41013  15.505   5.975  13.409  0.2496  0.0745 -0.0487
22810W        W41014  12.402   9.140  12.632 -0.1247  0.0944 -0.0685
22811W        W41015   7.328   6.719  14.804 -0.0854 -0.0879  0.0514
22812W        W41016   8.095  15.859  12.446  0.2149 -0.0115 -0.0673
22813W        W41017  10.788  11.130  14.945 -0.1146 -0.3106 -0.0313
22814W        W41018  16.015   7.111  12.844 -0.0283 -0.2133 -0.0683
22815W        W41019   2.146   5.797  16.972  0.1321 -0.0926 -0.1433
22816W        W41020  11.366   2.277   1.510  0.0882  0.1074  0.1884
22817W        W41021   5.513  14.121  17.241  0.0028 -0.3061  0.1077
22818W        W41022  11.200   8.394   2.556  0.2520 -0.0370 -0.0441
22819W        W41023   1.067   3.498  16.522  0.1775  0.3594 -0.2334
22820W        W41024   2.030   9.424  12.909  0.0346 -0.0610  0.0930
22821W        W41025  16.075   4.637   4.760  0.0480 -0.2949 -0.0870
22822W        W41026   6.593   7.486  12.485 -0.2755  0.2806 -0.1832
22823W        W41027   6.963   8.376  14.591 -0.5080 -0.1333 -0.2084
22824W        W41028  12.028   1.918   4.415 -0.1654  0.3363  0.2665
22825W        W41029   7.177   4.383  13.785 -0.2497  0.2457  0.0241
22826W        W41030   2.871   8.010  13.104  0.2269  0.1951  0.0570
22827W        W41031  14.847   1.009   2.644 -0.1240  0.0912 -0.0614
22828W        W41032  14.646  10.858   5.173  0.1048 -0.1055 -0.2517
22829W        W41033  16.526   0.432  13.604 -0.2807  0.1112 -0.0175
22830W        W41034  11.728   2.722   4.102 -0.3046  0.2135 -0.1293
22831W        W41035   6.189   3.620   5.049 -0.0718 -0.1767  0.1235
22832W        W41036   2.210  12.487   3.056  0.0954  0.1012 -0.1054
22833W        W41037  17.439   5.744   5.600  0.0037 -0.0804 -0.2903
22834W        W41038   1.715   0.275  15.084 -0.0019  0.0515  0.0679
22835W        W41039  10.608   2.076   4.471  0.1269  0.1797 -0.1486
22836W        W41040  13.571  10.986   3.351 -0.5920  0.3992 -0.4080
22837W        W41041  15.209  13.263  16.899 -0.0518 -0.0122 -0.1991
22838W        W41042  16.558   7.676   0.458  0.1854 -0.0735  0.0854
22839W        W41043   1.994  13.487   0.947  0.1472  0.2145  0.0605
22840W        W41044  17.011  12.879  14.565  0.1861 -0.2717  0.2095
22841W        W41045   7.547   2.328  15.006  0.0985 -0.0933 -0.3212
22842W        W41046  10.289   6.448  12.853 -0.1973 -0.1337  0.0985
22843W        W41047   2.037   1.105  15.358  0.1034  0.0496  0.0954
22844W        W41048  14.342   0.701   5.437 -0.0571  0.2638  0.0263
22845W        W41049  12.000  10.440   1.421  0.1075  0.0814  0.3524
22846W        W41050  13.872  14.655   1.950 -0.0194 -0.0336 -0.0771
22847W        W41051  16.281   9.897  14.168  0.0906  0.1900  0.1086
22848W        W41052   6.140   9.930  15.500 -0.1776 -0.0871  0.0076
22849W        W41053  11.553   7.490   5.113  0.0876 -0.2069  0.2320
22850W        W41054   0.368   9.282   1.654  0.0509 -0.1119  0.0301
22851W        W41055  15.982  15.663  14.367 -0.0455  0.0460  0.2817
22852W        W41056  16.231   0.275  14.090  0.2851 -0.1889 -0.3548
22853W        W41057   2.224  17.285  16.550  0.0446  0.1769  0.2416
22854W        W41058   9.371   4.584   1.718 -0.2155 -0.1110  0.0596
22855W        W41059   0.270   0.429  14.297 -0.1530 -0.1062 -0.1463
22856W        W41060  12.884   0.084   3.103 -0.0081 -0.0827 -0.3100
22857W        W41061   2.588   6.271   0.315  0.2959  0.0845  0.0399
22858W        W41062  14.164  11.356  12.002  0.3318  0.0670  0.1472
22859W        W41063   4.135  11.255  14.414 -0.1852 -0.0032  0.0832
22860W        W41064   5.363  11.920   3.513  0.1270 -0.0641 -0.1955
22861W        W41065   2.412   5.182  15.901 -0.0036  0.0523  0.0324
22862W        W41066   9.855   5.911   2.783  0.1565  0.2398 -0.1153
22863W        W41067   5.036   0.282   1.945  0.3759 -0.0145 -0.0142
22864W        W41068   1.717   5.199  12.429 -0.3326 -0.1476  0.0794
22865W        W41069   2.285   2.578  14.037 -0.1371  0.5064  0.1160
22866W        W41070   2.330  16.121   2.163 -0.0366 -0.2934 -0.0208
22867W        W41071  17.030  10.604   0.787  0.2800 -0.0639 -0.0948
22868W        W41072   1.270   4.158  15.142  0.1914 -0.4313 -0.3015
22869W        W41073   4.252  13.457  14.801 -0.0237 -0.0356  0.1479
22870W        W41074  17.532   9.772   0.845 -0.1779 -0.2869  0.0670
22871W        W41075  17.104   1.160  14.320 -0.2115 -0.1306 -0.1218
22872W        W41076   5.083   0.081   0.084 -0.2639  0.1295 -0.4028
22873W        W41077   2.705   9.363   3.314 -0.0166 -0.0832 -0.1376
22874W        W41078  14.714   1.638  16.293  0.2860  0.0204 -0.0833
22875W        W41079  14.737   6.807  15.596  0.2370  0.3279 -0.1682
22876W        W41080   1.956  17.223  14.286  0.3638 -0.1122 -0.0638
22877W        W41081   0.444  17.484  15.144 -0.0961  0.3717  0.2447
22878W        W41082   7.540  16.343  14.587 -0.0975  0.2803 -0.1660
22879W        W41083   9.203  14.584  15.536  0.0719 -0.1903  0.1781
22880W        W41084   8.729   3.753   2.678 -0.2237  0.3627 -0.1803
22881W        W41085  12.555   1.839   1.427  0.0718 -0.2092  0.0611
22882W        W41086   4.663  10.717  14.527 -0.0527 -0.4201  0.0779
22883W        W41087   1.144   7.304  11.437 -0.1754 -0.0161  0.2990
22884W        W41088  17.147  14.130  13.293  0.1011 -0.2046 -0.0172
22885W        W41089   1.117   4.531  14.022  0.0696  0.1291 -0.2279
22886W        W41090   0.602  11.277  13.535  0.0838 -0.3170  0.0166
22887W        W41091   7.466   3.004  14.514 -0.1144 -0.0925  0.4084
22888W        W41092   2.429   3.662   0.309  0.5538 -0.1435  0.1403
22889W        W41093  12.903  11.661  14.198  0.0236  0.0895 -0.0476
22890W        W41094   1.097   2.816   0.767  0.0438  0.0620 -0.2386
22891W        W41095   8.406   1.552  15.285  0.1823  0.1874  0.3436
22892W        W41096   0.661   2.182  13.272 -0.0403 -0.1379 -0.0280
22893W        W41097   3.187  11.166  14.712  0.2087  0.1002 -0.0102
22894W        W41098   9.303   6.848  16.587  0.1371  0.1179  0.1383
22895W        W41099  15.016   1.319  12.448 -0.2013 -0.0006 -0.2291
22896W        W41100  15.228  14.119  17.019  0.2551 -0.0486 -0.0637
22897W        W41101  14.184  16.406   6.827  0.3573 -0.0362 -0.0348
22898W        W41102   0.868   8.729  12.090 -0.0762  0.1033 -0.1092
22899W        W41103  10.640   9.555  14.146 -0.1894  0.0532 -0.0038
22900W        W41104  13.913  16.814   2.958  0.0810 -0.1628 -0.0955
22901W        W41105   7.296   0.213   1.882 -0.0910 -0.0238 -0.2901
22902W        W41106   4.105   9.410  12.911  0.2163  0.0242 -0.1283
22903W        W41107   4.430  14.962  13.401  0.0824 -0.1487  0.1280
22904W        W41108   4.650  13.686  12.477 -0.0775  0.1139  0.0085
22905W        W41109   9.506  16.878  14.925 -0.2355 -0.3706  0.4996
22906W        W41110   5.951   2.817   4.095 -0.2098  0.0589  0.2841
22907W        W41111   3.730   7.052  15.978  0.2916  0.2659 -0.5109
22908W        W41112   5.415  17.390   3.275  0.3027  0.0365 -0.1206
22909W        W41113   7.076  11.821  17.073  0.1052  0.0940 -0.1865
22910W        W41114  15.909  17.268   3.441  0.1153 -0.0069  0.2491
22911W        W41115  12.064  13.956   2.023 -0.0793  0.0098  0.2007
22912W        W41116   2.680  16.652  14.685 -0.1323 -0.2263 -0.0398
22913W        W41117  15.235  17.043   4.240  0.0854  0.2433 -0.0103
22914W        W41118   2.324  14.317   1.415 -0.4413  0.0354 -0.0077
22915W        W41119   8.777   6.462  12.031  0.0265 -0.2200  0.0688
22916W        W41120  13.105   8.817   3.539  0.0129  0.1951 -0.1876
22917W        W41121   9.198  15.330  14.501 -0.1438  0.4818  0.2635
22918W        W41122  16.765   2.952  16.109  0.3254  0.1448  0.0503
22919W        W41123  16.589  16.883   5.067  0.2654 -0.2034 -0.1765
22920W        W41124  10.333   6.667   3.890  0.3128 -0.0512 -0.0104
22921W        W41125   4.969   6.021   0.029 -0.2705  0.0695  0.0789
22922W        W41126   5.050   3.654  11.407 -0.0271 -0.1670 -0.0180
22923W        W41127   0.587   0.461  16.832  0.1379 -0.4309 -0.1494
22924W        W41128   0.526  16.393   3.695 -0.0278  0.1173 -0.5866
22925W        W41129  14.481  16.163   1.898  0.0954  0.3441 -0.0628
22926W        W41130  11.945  16.268   3.080  0.2190 -0.2217  0.1355
22927W        W41131  11.109   0.464   0.802 -0.3186  0.1506 -0.0537
22928W        W41132   0.613   5.188  15.681  0.0103 -0.0153  0.0256
22929W        W41133   0.202   5.811   0.894 -0.0279 -0.2923  0.0690
22930W        W41134   5.310   3.324   5.838  0.3354 -0.3565  0.1294
22931W        W41135  10.274   6.311   3.473  0.1427 -0.0681 -0.1757
22932W        W41136  10.431   8.486  14.836 -0.2061 -0.0447 -0.1565
22933W        W41137   6.149   6.731  13.048 -0.0692  0.0860  0.2378
22934W        W41138  13.304  10.045  12.589 -0.0758  0.1185 -0.1114
22935W        W41139   7.466  10.848   0.002 -0.0433 -0.5040  0.1750
22936W        W41140   2.690   4.523   2.759  0.1679 -0.1639 -0.1636
22937W        W41141   1.390  16.183   1.191 -0.1737 -0.0312  0.2380
22938W        W41142  11.520  13.124  14.103  0.4097 -0.3828 -0.0962
22939W        W41143  15.096  14.988   4.294 -0.1968 -0.2488  0.2514
22940W        W41144   8.850   6.229  12.693 -0.0512 -0.0033  0.2433
22941W        W41145   0.861   5.419   1.464 -0.3000  0.3167 -0.1961
22942W        W41146  13.156  14.828   5.588 -0.1685  0.0539 -0.1265
22943W        W41147  11.184   6.794   3.457  0.0144  0.0590 -0.1634
22944W        W41148  16.338  17.294  14.169  0.0151  0.2639  0.0922
22945W        W41149   9.135  16.075  15.299 -0.2145 -0.2312  0.1452
22946W        W41150  10.830  12.277   2.811 -0.0451 -0.2194  0.0683
22947W        W41151  12.814   4.900  16.178  0.1284  0.0469 -0.2087
22948W        W41152   5.135  15.011  16.835 -0.0198  0.3773  0.3202
22949W        W41153   6.317  11.906  13.067 -0.3721 -0.0933  0.0434
22950W        W41154  12.864   6.990  13.553  0.2196 -0.1909 -0.1888
22951W        W41155  16.893   0.542   1.380  0.0327 -0.0350  0.1912
22952W        W41156   8.427   5.596  13.719  0.0723 -0.1776  0.2113
22953W        W41157   8.206  10.011   3.464  0.0309  0.0907  0.4960
22954W        W41158  12.687  10.047   1.768 -0.3518  0.1732  0.2990
22955W        W41159  11.175  16.953   1.737 -0.3565 -0.0940  0.2255
22956W        W41160   0.780  11.892  14.768 -0.0362 -0.0155  0.1021
22957W        W41161  11.887  15.622   1.133  0.1768 -0.0368  0.1415
22958W        W41162  14.501   3.630  12.713  0.3708  0.0531  0.2061
22959W        W41163   0.274  12.885   1.987  0.1203 -0.0289  0.0874
22960W        W41164   6.910   5.926  12.374 -0.1203 -0.5382 -0.0447
22961W        W41165  15.334  10.446   6.169  0.0910  0.1623  0.1946
22962W        W41166  10.118   3.545   0.806  0.2049 -0.1504  0.3356
22963W        W41167   1.747   2.322   2.983  0.5361 -0.1186 -0.3572
22964W        W41168  11.572   1.683   3.551 -0.0292 -0.3842 -0.1548
22965W        W41169   3.113   9.517   2.039  0.0432 -0.0881  0.1146
22966W        W41170   8.561  17.169  15.044 -0.1247  0.2552 -0.0291
22967W        W41171  13.884  10.372   5.065  0.4213 -0.0267  0.1278
22968W        W41172   7.131   6.852  16.440  0.1725 -0.0912 -0.0972
22969W        W41173   9.337  15.318  13.043  0.0379  0.1829 -0.1753
22970W        W41174   3.793   5.248  15.743 -0.0354  0.3256 -0.1875
22971W        W41175  16.784  14.822   4.960  0.5004  0.1088 -0.2057
22972W        W41176   0.412   1.499  11.830 -0.0184 -0.2270  0.2161
22973W        W41177   0.935  16.019   1.176  0.0338 -0.1680  0.1827
22974W        W41178   1.078   8.411   5.906 -0.1754 -0.3246  0.6058
22975W        W41179  12.212   9.779  13.823  0.0382 -0.0269 -0.0512
22976W        W41180   0.892  13.558  13.927 -0.1457  0.2262 -0.3454
22977W        W41181   1.646   0.821   0.561  0.2951  0.0477  0.0667
22978W        W41182  15.841  10.718   1.903 -0.3433 -0.3394  0.0671
22979W        W41183   0.984   6.764  12.519 -0.0946 -0.3529  0.0713
22980W        W41184   4.536  15.915  13.112 -0.0953  0.1339  0.0748
22981W        W41185   6.294  15.421   0.857 -0.1750  0.2907  0.0456
22982W        W41186   2.070  11.780  14.002  0.2728  0.1040  0.1582
22983W        W41187   4.781   1.233  15.625 -0.0880  0.2989 -0.1373
22984W        W41188   6.797  16.633   2.649  0.1490 -0.0206 -0.1088
22985W        W41189  17.009  10.810  11.556  0.1982 -0.4265 -0.0625
22986W        W41190   6.792  10.790   2.499 -0.2231 -0.0133 -0.0377
22987W        W41191  11.869   3.419   4.913  0.0678  0.0261 -0.0523
22988W        W41192   7.520   1.047   2.590  0.3270  0.0093 -0.1662
22989W        W41193   4.947   1.257   0.080  0.2141 -0.0182 -0.1383
22990W        W41194  15.232   4.173  15.667 -0.2744  0.1363  0.0740
22991W        W41195   0.779   8.484  16.502  0.2511 -0.0516 -0.0185
22992W        W41196   2.773  14.401   1.032 -0.2775  0.1145 -0.1832
22993W        W41197   2.219  14.656  16.609  0.2452  0.1050  0.1700
22994W        W41198   1.084   3.758   3.111 -0.3798  0.1464 -0.0212
22995W        W41199   9.376   2.604   3.326 -0.0493  0.0332 -0.1860
22996W        W41200  13.017  17.382   3.910  0.0104 -0.2371  0.0875
22997W        W41201   7.909   4.371   3.065 -0.4361 -0.2829 -0.1907
22998W        W41202   1.998  11.267  12.261  0.1606 -0.1129 -0.2833
22999W        W41203  17.021   7.034  14.252 -0.2925 -0.1749 -0.1580
23000W        W41204  12.313   1.040  15.118  0.0934 -0.0586  0.0190
23001W        W41205   1.136  10.578  16.294 -0.3952  0.1077  0.0141
23002W        W41206  12.582   3.816   1.578  0.1137  0.1727  0.0236
23003W        W41207   1.702  16.891   0.169 -0.0012  0.0272  0.0080
23004W        W41208   0.075   4.465  13.047  0.1608  0.0265 -0.0148
23005W        W41209   3.761   3.235  14.623  0.1571  0.4010 -0.1101
23006W        W41210  15.690   8.488   1.625 -0.1369  0.1179  0.0725
23007W        W41211   4.468  14.861   1.842 -0.2360 -0.0554 -0.0859
23008W        W41212  10.217   4.987   2.617 -0.4478 -0.2556 -0.0806
23009W        W41213   4.242  14.864   0.969  0.0061 -0.1515 -0.0401
23010W        W41214   7.464  17.196  14.132  0.3812  0.1797  0.2699
23011W        W41215  16.928  14.768  17.081  0.3575 -0.0892 -0.0811
23012W        W41216  12.957  15.498   5.051  0.1826  0.0943 -0.1078
23013W        W41217   1.651   8.185  11.948  0.2506 -0.1440 -0.0161
23014W        W41218   6.133   2.606   3.174 -0.0526  0.0196  0.1743
23015W        W41219  14.079  11.516   1.259 -0.0901  0.1639  0.1223
23016W        W41220  10.173   0.666   4.287 -0.0870 -0.1288 -0.0402
23017W        W41221   0.472   9.710   0.746  0.1151  0.1579  0.1013
23018W        W41222   8.217   3.236  14.419  0.1344  0.1090  0.1736
23019W        W41223   9.792   1.996   3.320  0.0730 -0.2033 -0.0661
23020W        W41224  14.453   1.702  13.900  0.0698 -0.1603 -0.0713
23021W        W41225   0.632   5.994   4.250  0.0765 -0.0866  0.0690
23022W        W41226   6.529  17.001  12.497 -0.1124 -0.1234 -0.3708
23023W        W41227   9.175   6.956  14.324 -0.0711  0.2400 -0.1588
23024W        W41228  14.410  14.067  15.230  0.0082 -0.0225  0.0249
23025W        W41229   1.340   1.025  17.264  0.3457 -0.1346  0.1540
23026W        W41230   0.823   8.437   3.946  0.3073  0.2085 -0.0239
23027W        W41231  14.676   9.748  15.392  0.2485  0.0927  0.0211
23028W        W41232   7.041  15.652   0.719  0.1338  0.0919 -0.2476
23029W        W41233  16.052  15.261   0.892 -0.1850  0.2267  0.0626
23030W        W41234   3.377   6.662   4.343 -0.2908 -0.0135 -0.1554
23031W        W41235  13.464  16.824  13.440  0.2265  0.2497 -0.1471
23032W        W41236   2.989   2.688   1.168  0.3396 -0.0441  0.3617
23033W        W41237   2.345   4.039  13.678 -0.0171  0.2707 -0.0727
23034W        W41238  14.778   5.737   2.279 -0.0347  0.2448 -0.0039
23035W        W41239  11.806  12.991   1.681  0.0431  0.1988 -0.1123
23036W        W41240  15.452   0.311   1.288  0.0419  0.1286  0.1086
23037W        W41241  11.235   9.458   1.050  0.0955 -0.3677  0.0967
23038W        W41242  11.289   2.911  12.854  0.0438  0.2272 -0.3573
23039W        W41243  12.313   4.550   0.299  0.0248 -0.3783  0.5998
23040W        W41244  10.500  16.833   0.214  0.3264 -0.4043  0.0620
23041W        W41245  17.106  14.897  14.950 -0.0058 -0.0468 -0.3407
23042W        W41246   4.739   1.645  15.167 -0.2923 -0.1826 -0.1421
23043W        W41247  16.947  15.576   2.898  0.0422  0.0842  0.0542
23044W        W41248   3.189   8.999   0.768  0.2253  0.3895 -0.0917
23045W        W41249   9.323   7.630   0.751  0.4816  0.0360  0.2930
23046W        W41250  16.852   1.638   4.859 -0.2538  0.1568 -0.1394
23047W        W41251   7.350  11.155  12.845 -0.0021  0.0820  0.2992
23048W        W41252  13.064   4.087   0.456 -0.1535  0.0426  0.2468
23049W        W41253   7.295   1.167  14.416 -0.1526 -0.1440  0.1020
23050W        W41254   0.582  16.688  14.602  0.0483 -0.1079  0.1840
23051W        W41255  12.819   3.959   5.580  0.0965 -0.1037  0.0259
23052W        W41256  15.070   8.677  15.254 -0.1595  0.2853 -0.2548
23053W        W41257   0.757  13.061   4.493  0.2494  0.2115 -0.0323
23054W        W41258   6.476  13.058   0.493  0.1612  0.1806 -0.1538
23055W        W41259  16.117  14.096   6.719 -0.1449 -0.2184 -0.3089
23056W        W41260  10.746  15.592  15.933  0.0814 -0.0334 -0.1928
23057W        W41261  10.965   8.484  16.168 -0.0818 -0.2378  0.0285
23058W        W41262   7.423   8.511  14.401  0.2692  0.0923 -0.1675
23059W        W41263  14.555   2.936   2.254 -0.2832  0.0034 -0.1630
23060W        W41264   3.336  12.760   2.058 -0.1810  0.2129  0.0311
23061W        W41265   5.784  10.561   2.645 -0.1866 -0.0811 -0.0074
23062W        W41266   0.479  15.754  14.576  0.0970 -0.1362 -0.1413
23063W        W41267  10.633   6.515  14.039 -0.1835  0.0620 -0.3776
23064W        W41268   0.601   4.452   1.755  0.0496 -0.4041  0.1196
23065W        W41269  11.720   9.927   2.950 -0.0665  0.0940  0.1295
23066W        W41270  12.218   2.783  14.130 -0.0558 -0.1461  0.1173
23067W        W41271  17.432  11.004   4.967 -0.1564 -0.0224  0.1459
23068W        W41272   0.915   7.999   2.129 -0.3529  0.2112 -0.0461
23069W        W41273   7.952  10.209  12.032  0.3358  0.3016  0.1814
23070W        W41274  16.845   9.563  14.865  0.1871 -0.1742 -0.1512
23071W        W41275   0.022   4.183  12.518  0.0154  0.0182  0.1730
23072W        W41276  17.447  13.778   3.892 -0.0766  0.0391 -0.1673
23073W        W41277   5.053   6.077   2.506 -0.2213 -0.1120 -0.0114
23074W        W41278   2.470  12.944  15.057 -0.3536 -0.1615 -0.0067
23075W        W41279  14.460   3.297  13.788  0.2693  0.0188  0.1012
23076W        W41280  10.270  10.778   4.292  0.5073 -0.5166 -0.0160
23077W        W41281   7.780  12.545   2.257  0.0083  0.1268  0.1673
23078W        W41282   5.003   4.755   2.110 -0.2469  0.2038 -0.0762
23079W        W41283  16.574   2.329  15.026  0.3201  0.0075 -0.1216
23080W        W41284  13.527   2.714   1.574 -0.2666  0.3437  0.0921
23081W        W41285  12.950  10.892  15.652 -0.0579 -0.0445 -0.2820
23082W        W41286  16.250  10.254   3.272 -0.0539 -0.0798  0.3104
23083W        W41287  15.900  13.604  17.266  0.0190 -0.0429  0.0724
23084W        W41288   3.933  16.978   0.454 -0.0528 -0.2569  0.2616
23085W        W41289  12.911   0.332   3.935  0.1684 -0.1018  0.1260
23086W        W41290   0.203   8.581   1.725  0.3671 -0.1242  0.1274
23087W        W41291   9.475   4.594  13.901  0.2398  0.1528 -0.1328
23088W        W41292  17.533  10.570   2.688 -0.0850  0.2087  0.0891
23089W        W41293  10.017   1.071   2.268  0.1098 -0.1908  0.1277
23090W        W41294  16.709   2.375  16.666  0.0333  0.1141  0.2771
23091W        W41295   7.723  11.355   0.032  0.1852 -0.5041  0.1118
23092W        W41296  12.213  12.361   5.837 -0.1764  0.1576 -0.1931
23093W        W41297  13.495  16.218   0.877  0.2313  0.1762 -0.2830
23094W        W41298   0.696  12.218   1.263 -0.3247 -0.1397 -0.0550
23095W        W41299   9.097   7.976   2.628 -0.0755 -0.0692  0.2444
23096W        W41300   0.299   5.588  12.516 -0.0411  0.1647 -0.1120
23097W        W41301   7.823   3.018  16.653 -0.0195  0.1242  0.1945
23098W        W41302   5.762   7.223   0.649 -0.1617 -0.0262 -0.1927
23099W        W41303   2.562   3.123   0.630 -0.1130  0.3015 -0.1329
23100W        W41304  12.872   7.566   4.228 -0.0810  0.1116  0.1205
23101W        W41305  16.200   0.003  13.308  0.0192 -0.0430  0.0426
23102W        W41306   2.284   9.199  14.418 -0.3676  0.1378 -0.1753
23103W        W41307   6.770  11.558   1.326  0.1869 -0.0833  0.0435
23104W        W41308   7.833  13.584   4.077  0.2519  0.1246 -0.2139
23105W        W41309  15.368   6.388   3.395 -0.1457  0.1042  0.1044
23106W        W41310   3.283   5.624   1.218  0.0626  0.1240  0.1767
23107W        W41311  11.939   6.065   0.892  0.0232 -0.2018  0.0583
23108W        W41312   1.702  13.537   2.269  0.1071 -0.1406  0.1837
23109W        W41313   1.046  14.704   0.598  0.0965  0.2604  0.0452
23110W        W41314  12.021  14.405  17.207  0.0580 -0.3009 -0.0991
23111W        W41315   2.854   8.293   1.409 -0.1690 -0.0370 -0.1409
23112W        W41316  12.560   8.336  13.204  0.0287 -0.0827 -0.0212
23113W        W41317  17.184  10.871   4.582 -0.1468 -0.2159  0.2901
23114W        W41318   0.113  12.658   4.935 -0.3030  0.1203  0.1258
23115W        W41319  11.637   4.120  14.771  0.1400 -0.0133 -0.1833
23116W        W41320  15.049   8.701   0.461  0.0768  0.3598 -0.0926
23117W        W41321   1.259   0.376   4.234  0.0834  0.2747 -0.0250
23118W        W41322   2.059   3.561  15.275  0.0113 -0.0006 -0.0225
23119W        W41323  14.137   6.726   5.171  0.1907  0.1517  0.1378
23120W        W41324  12.849  10.133   2.637 -0.0481 -0.3395  0.1214
23121W        W41325  10.257   4.895   0.522 -0.2830  0.1782  0.3010
23122W        W41326   2.648  11.368  14.640 -0.0998 -0.2427  0.2553
23123W        W41327  13.311   2.872   2.256  0.1661 -0.0579  0.0062
23124W        W41328  15.113   5.364   2.133 -0.1433  0.1783  0.1634
23125W        W41329   4.231   8.423   5.154 -0.3789 -0.4605  0.1293
23126W        W41330  10.001  12.040  12.425 -0.0629 -0.1785  0.1690
23127W        W41331   7.704  16.512   2.256  0.0093 -0.1518  0.1376
23128W        W41332  15.931   5.350   1.325  0.0293  0.2348 -0.0577
23129W        W41333  16.894   6.003  15.891  0.2424  0.0014 -0.1504
23130W        W41334  11.349  10.030   1.368 -0.0806 -0.0850  0.1228
23131W        W41335   9.275   6.953   4.803  0.0821 -0.2068  0.1058
23132W        W41336  16.185  10.782   3.179 -0.0798  0.1155 -0.1116
23133W        W41337  11.626  14.369  14.137 -0.2595 -0.1838  0.0130
23134W        W41338  16.477  15.691  13.709  0.0882 -0.2151 -0.0379
23135W        W41339   0.315  14.565   0.985 -0.1783 -0.1895 -0.1292
23136W        W41340   0.832   4.956  12.679 -0.2188 -0.0649 -0.0600
23137W        W41341  16.953  13.667   3.939 -0.2184  0.2227 -0.2439
23138W        W41342  13.777   9.349  12.882  0.0654  0.1174  0.2082
23139W        W41343   6.573   0.279   1.409 -0.0000  0.0041 -0.5494
23140W        W41344   3.741   2.777   2.332 -0.1068  0.0421 -0.2334
23141W        W41345   3.429  12.605   0.689  0.1570  0.1798 -0.0630
23142W        W41346   1.199  15.356   4.759 -0.2174 -0.2236 -0.0052
23143W        W41347   7.182  13.663  15.533 -0.1765  0.0692 -0.3240
23144W        W41348   9.935   0.198  14.848  0.4190  0.1389 -0.0214
23145W        W41349  11.257   8.149  17.019  0.1039 -0.0680 -0.0556
23146W        W41350   1.715  16.143   0.164 -0.1174 -0.1601 -0.3034
23147W        W41351   2.191   1.419  13.378  0.0177  0.1640 -0.1160
23148W        W41352   0.089   0.801   4.465  0.0502  0.1286 -0.0703
23149W        W41353   8.425  15.532   3.063  0.1511 -0.0359 -0.1960
23150W        W41354  12.218  10.559   3.808 -0.0336 -0.1930 -0.5670
23151W        W41355  13.465  13.171   5.179  0.2294 -0.2489  0.1385
23152W        W41356   9.810  10.183  13.104  0.2824  0.0256 -0.1093
23153W        W41357   7.852  14.781   2.271 -0.0679  0.2619 -0.0413
23154W        W41358  10.682  11.761  16.505  0.0175  0.1292 -0.0482
23155W        W41359   4.370   2.846   3.878  0.0991 -0.2839 -0.3131
23156W        W41360   6.840   4.829  16.211  0.3227  0.0733 -0.1242
23157W        W41361   7.587  13.367  14.938  0.0233 -0.1676 -0.1009
23158W        W41362  17.210  16.894   2.839  0.0279  0.0662 -0.1053
23159W        W41363  16.760  12.612  15.591 -0.0039 -0.1549  0.0963
23160W        W41364  13.362   0.363  15.352 -0.0072 -0.1991  0.2049
23161W        W41365  15.275   2.823  14.489 -0.3051  0.0958  0.1048
23162W        W41366   4.379   9.345  16.246  0.1522 -0.0556  0.1616
23163W        W41367  13.153  10.552  12.976 -0.0814  0.3678 -0.2034
23164W        W41368  17.208   9.556   4.572 -0.1587 -0.2956  0.0220
23165W        W41369   6.684  14.968   1.083 -0.0825  0.0148 -0.0279
23166W        W41370  15.877  16.740   2.032 -0.2371 -0.1526 -0.1996
23167W        W41371  17.287  10.316   3.521 -0.0472  0.0277 -0.2908
23168W        W41372   4.471  11.899  15.389 -0.3213 -0.3139 -0.3308
23169W        W41373   5.371   2.897  15.457  0.1183  0.0730 -0.1357
23170W        W41374   3.660   9.955   3.860 -0.1497 -0.1009  0.1220
23171W        W41375   1.159  11.493  16.446  0.1769  0.0886  0.2456
23172W        W41376   9.469   3.288   3.867 -0.0469 -0.2801  0.2027
23173W        W41377   9.713  13.620  11.512  0.2954 -0.4515 -0.1805
23174W        W41378  17.073   2.829   3.324 -0.1944  0.1474 -0.0390
23175W        W41379  12.312   3.302   4.071  0.2531 -0.4394 -0.1763
23176W        W41380  14.026   7.873   5.196  0.2742 -0.0036  0.0293
23177W        W41381  10.186   9.618   5.122  0.0217  0.2778  0.1635
23178W        W41382   7.953  10.825   3.170 -0.3232 -0.2823 -0.1718
23179W        W41383   6.573   0.124  16.008  0.0555 -0.3600 -0.1034
23180W        W41384   6.280  11.165  17.010 -0.0217 -0.0387  0.1066
23181W        W41385   8.288   7.392   3.999  0.1565 -0.2718  0.1818
23182W        W41386   8.575  11.821  13.749 -0.0536 -0.0278 -0.1282
23183W        W41387   7.748   3.926   4.682 -0.0874 -0.1751  0.2791
23184W        W41388  11.674   2.174  13.676 -0.0892 -0.1198  0.1330
23185W        W41389   3.284   1.021   4.331  0.2076 -0.0160 -0.0008
23186W        W41390   9.902  15.627  16.264  0.0629 -0.2325  0.2942
23187W        W41391   9.874   8.392  17.253  0.0425 -0.0008  0.0174
23188W        W41392   0.989  12.676   4.826  0.0247  0.1226  0.1536
23189W        W41393  11.387   6.069  15.148 -0.2310 -0.0383 -0.1933
23190W        W41394   8.691   5.500   5.186  0.0873  0.1511 -0.0189
23191W        W41395   4.143  13.938  13.592  0.2003 -0.2373  0.2444
23192W        W41396   1.296  12.550  15.464  0.3784 -0.2970  0.2270
23193W        W41397  13.962   9.144  15.249 -0.1075  0.2370 -0.1605
23194W        W41398   0.709  14.861   4.736 -0.0922 -0.0847  0.2660
23195W        W41399   8.750  17.185  16.330 -0.3001 -0.1333  0.1183
23196W        W41400   9.006  10.205   4.587 -0.1514 -0.0535 -0.1533
23197W        W41401   1.242   9.586   2.763 -0.0974 -0.1461  0.0169
23198W        W41402   5.850  15.225   0.810  0.0359 -0.0814  0.3357
23199W        W41403  10.086  11.999  13.390 -0.4067 -0.0115 -0.0678
23200W        W41404  17.006  14.709   1.642 -0.0333  0.3351  0.1282
23201W        W41405   2.020   6.943  15.503  0.0972 -0.1919  0.0266
23202W        W41406  15.339  17.291   0.603 -0.2212 -0.1293  0.1834
23203W        W41407  17.248   6.123  14.902 -0.2058 -0.1497 -0.1103
23204W        W41408  13.705   5.969   2.521 -0.0664  0.0921 -0.1744
23205W        W41409  14.853   7.608  16.866  0.1560 -0.0209 -0.0154
23206W        W41410   4.038  14.310   0.927 -0.1684 -0.0953  0.3126
23207W        W41411  12.918   8.931   5.249 -0.1251 -0.0186  0.1282
23208W        W41412   0.772  16.567   0.546 -0.2437 -0.3769 -0.3111
23209W        W41413   0.976  15.207   3.733 -0.3561  0.0601 -0.0543
23210W        W41414  11.085   0.412  15.461  0.0369 -0.1058 -0.3056
23211W        W41415   8.948  16.539  12.053 -0.0731  0.1405  0.2056
23212W        W41416   1.477  13.722   4.382 -0.0910  0.1388  0.1104
23213W        W41417  15.884  13.901   1.750  0.1059 -0.2576  0.2159
23214W        W41418  14.985   5.977   3.037 -0.1217 -0.0311 -0.2900
23215W        W41419   7.843  14.560   1.012  0.0291 -0.1033  0.1516
23216W        W41420   0.480  15.501  16.609  0.3147  0.3723  0.1651
23217W        W41421  13.797   2.454   3.882 -0.5435 -0.0229 -0.2655
23218W        W41422  11.236  10.237  16.127  0.0831 -0.3505  0.0221
23219W        W41423  10.948  11.931   4.874 -0.0552  0.0899 -0.0941
23220W        W41424   8.510   3.206  16.810 -0.3943  0.1327 -0.2942
23221W        W41425  10.056   8.171   0.490  0.0499 -0.0851 -0.1466
23222W        W41426   6.625  10.987  16.609  0.2127 -0.0827 -0.1269
23223W        W41427  14.760  11.281  13.036 -0.0955 -0.0580  0.1529
23224W        W41428   0.886   2.698  17.286 -0.2252 -0.2325 -0.0071
23225W        W41429   2.939   0.185   1.239 -0.2308 -0.2085 -0.1212
23226W        W41430   1.384   2.421   2.071 -0.0447 -0.1255 -0.1503
23227W        W41431  14.097   3.533  15.832 -0.1751 -0.1598 -0.1211
23228W        W41432  13.687   0.380   0.546  0.0116  0.0476  0.0308
23229W        W41433   7.916  15.414  12.186  0.0192 -0.1884 -0.1777
23230W        W41434   0.498  11.535  14.027  0.0230 -0.0707  0.1854
23231W        W41435   3.184  13.702  13.319  0.2342 -0.1879  0.1543
23232W        W41436  11.856   6.761   1.531  0.2086 -0.2027  0.0231
23233W        W41437   5.741  15.644  16.342 -0.0588  0.0794 -0.0782
23234W        W41438  13.956   5.193   5.256  0.1677  0.0276  0.0223
23235W        W41439  11.885   1.764   3.138  0.0454  0.0047 -0.2321
23236W        W41440   0.784  16.064   4.022 -0.1847 -0.0080 -0.1165
23237W        W41441   3.805  11.987  13.638 -0.1011  0.0334 -0.2255
23238W        W41442   1.073   1.194   3.648  0.0295 -0.4190  0.2646
23239W        W41443   6.065   0.293  14.975  0.0031 -0.0539  0.1723
23240W        W41444   5.706  13.247  13.363 -0.0335 -0.3619  0.1555
23241W        W41445  12.659  16.980  16.814 -0.1828 -0.1241  0.1837
23242W        W41446   0.444   4.073  13.174 -0.0560 -0.3530  0.2775
23243W        W41447  13.145  13.519   5.447 -0.0502 -0.2004 -0.1796
23244W        W41448  10.904   6.432  12.052 -0.5301  0.0851  0.0625
23245W        W41449   9.268   5.113  13.051 -0.0329 -0.0664 -0.0220
23246W        W41450  15.447  14.745   2.333  0.2405  0.1605  0.0245
23247W        W41451  10.713   3.322  16.196 -0.1017  0.2494  0.4250
23248W        W41452  10.119  15.061   4.500  0.0859 -0.3019 -0.0844
23249W        W41453   3.481   9.343  14.499  0.0035 -0.1891  0.2974
23250W        W41454  17.300   3.287   4.411  0.0569  0.0056 -0.1723
23251W        W41455  10.892   2.359  12.212  0.2330  0.0066 -0.2088
23252W        W41456  11.151  11.730   0.379  0.2058  0.2357  0.0531
23253W        W41457   9.129   0.487   6.335 -0.0360 -0.0092  0.1281
23254W        W41458   8.866   8.651   3.733 -0.1878  0.3798  0.1468
23255W        W41459  14.304  15.779  12.379  0.1072 -0.0515  0.1969
23256W        W41460  12.215  15.896  12.931  0.0323 -0.0337 -0.0237
23257W        W41461   4.032  10.374   4.032 -0.0704 -0.1063  0.3968
23258W        W41462   0.510   2.648   6.021  0.1102 -0.2541 -0.1153
23259W        W41463   5.938   4.932  12.239  0.0073  0.1385 -0.1444
23260W        W41464  14.119   7.783  13.702 -0.2452  0.2094  0.2359
23261W        W41465   8.434   0.765   4.431 -0.3720  0.1948 -0.1149
23262W        W41466  14.662  14.516   5.952  0.0203 -0.3908 -0.1058
23263W        W41467   8.523   6.968   4.442  0.4720  0.0783 -0.1233
23264W        W41468  10.252  14.261  16.196 -0.1148  0.1042  0.0316
23265W        W41469   1.331   9.748  15.089 -0.2825  0.1363  0.1919
23266W        W41470   9.736  15.939   3.823 -0.1276 -0.0871  0.0806
23267W        W41471   4.876   2.171   3.305 -0.2461 -0.0325  0.0485
23268W        W41472  11.810   5.548  12.816 -0.3682  0.1881 -0.0937
23269W        W41473   5.750   9.995   3.810  0.4764 -0.1087 -0.3231
23270W        W41474  14.176  14.916  13.666  0.0155  0.1717 -0.3303
23271W        W41475   6.465   2.886   4.151  0.2503  0.1110  0.2371
23272W        W41476  17.303   8.629  16.842 -0.3043  0.1520  0.0477
23273W        W41477   8.073   7.102   1.043  0.1899  0.2355 -0.0032
23274W        W41478  17.448  14.194  14.087  0.1835 -0.0942 -0.1107
23275W        W41479   5.878  16.410  12.123  0.0673  0.1028  0.2963
23276W        W41480   8.692  14.869  12.571  0.1145 -0.1029 -0.0403
23277W        W41481   3.993   1.976  16.769 -0.1539 -0.1578 -0.0719
23278W        W41482   9.091   9.478   3.639  0.5177 -0.2577  0.1930
23279W        W41483   6.044  14.046   1.875  0.1410  0.3892  0.1990
23280W        W41484   1.484   1.849   3.714 -0.1404  0.0541  0.0500
23281W        W41485   6.020   5.818  15.550  0.0700  0.0519  0.1702
23282W        W41486  11.611   7.165   5.986 -0.0666  0.0260  0.2590
23283W        W41487   9.089  12.744  14.023 -0.0486 -0.2131 -0.2559
23284W        W41488  13.518  12.940  13.110  0.0783 -0.1525 -0.2490
23285W        W41489  14.744  10.195  13.254  0.0978  0.1104 -0.0647
23286W        W41490  11.543   3.867   2.324  0.0239 -0.2840  0.0552
23287W        W41491  10.083   4.412   1.153  0.2292  0.3749 -0.3283
23288W        W41492  11.273   8.637  17.092 -0.4589 -0.1923 -0.4242
23289W        W41493   8.570   3.182   2.698  0.1239  0.0301  0.1100
23290W        W41494  17.245  17.000  13.923  0.2324 -0.2154 -0.2882
23291W        W41495  17.087   2.347   3.202 -0.0360 -0.2136  0.0472
23292W        W41496   1.270  10.784   2.824 -0.1499 -0.0073 -0.2701
23293W        W41497   0.979  15.963   2.095  0.3378 -0.2436 -0.1215
23294W        W41498   6.030  16.950   4.783 -0.0560  0.3403  0.0514
23295W        W41499  12.862   9.897  12.314 -0.0303  0.0936  0.1940
23296W        W41500   6.514   2.649  15.453  0.0330 -0.3516 -0.0134
23297W        W41501  10.317  12.028  16.059  0.0598 -0.3124 -0.0975
23298W        W41502   4.732   8.008  12.345 -0.0861 -0.0730 -0.3155
23299W        W41503  11.776   8.445   3.713  0.0950 -0.0434  0.1757
23300W        W41504   1.132   6.587   3.553 -0.0819  0.0804 -0.4335
23301W        W41505   2.046  10.534   3.366 -0.1226  0.1019 -0.0176
23302W        W41506  10.878   2.156  14.387 -0.1451  0.1087 -0.1882
23303W        W41507  10.148  11.801  16.603 -0.1158 -0.0732 -0.1711
23304W        W41508  15.118   4.063   3.241  0.2710 -0.0515 -0.1212
23305W        W41509   6.129   3.352   3.444  0.1524 -0.1538 -0.0314
23306W        W41510   0.875  14.545  12.190 -0.3530  0.2655 -0.0131
23307W        W41511   4.638   2.254  14.583 -0.3408 -0.0052  0.4202
23308W        W41512  16.761   6.203   3.638 -0.1464 -0.2517 -0.0947
23309W        W41513   6.407  16.225  13.696 -0.0155  0.0294 -0.0525
23310W        W41514   0.081  10.309  12.404 -0.1040 -0.3164 -0.1774
23311W        W41515  12.680  15.858  15.451  0.0670  0.0625  0.1316
23312W        W41516   6.478  10.134  14.114  0.3083  0.1657 -0.0130
23313W        W41517  12.784   0.104   4.773  0.2028 -0.2919  0.3065
23314W        W41518  15.196   9.273  13.953 -0.0077 -0.0404 -0.6195
23315W        W41519   0.386  15.782   5.385 -0.1209  0.2387 -0.0051
23316W        W41520   0.875  10.455   1.147 -0.0468 -0.0557 -0.2326
23317W        W41521   2.998  12.294  16.359 -0.0237 -0.1859 -0.0172
23318W        W41522   1.663   9.035  15.735  0.4759 -0.0311 -0.0541
23319W        W41523  15.497  14.837  12.966  0.2369  0.0889  0.1161
23320W        W41524   0.484   3.541   1.036  0.0896  0.0852  0.0274
23321W        W41525  16.884   2.689  15.619  0.0936 -0.0706 -0.0124
23322W        W41526  11.492   0.365  14.585 -0.1994  0.0507 -0.0759
23323W        W41527   1.987  14.835   2.067 -0.0286 -0.2676  0.0014
23324W        W41528  11.293   3.258  16.713 -0.1354  0.1249 -0.1216
23325W        W41529   6.033   4.493  16.517  0.0513 -0.1458 -0.0349
23326W        W41530  15.825   8.334   0.340  0.1597  0.1693 -0.0483
23327W        W41531   4.815  12.150   5.417  0.3201 -0.0953 -0.2501
23328W        W41532   2.220  17.332   1.134 -0.1096 -0.1308  0.1095
23329W        W41533  11.815   0.347  16.379  0.1893 -0.0167  0.0201
23330W        W41534   7.013   2.621   1.463  0.0781 -0.0421 -0.1477
23331W        W41535   9.312   0.204  12.632 -0.1430 -0.1428 -0.2002
23332W        W41536  16.322   3.832   0.973 -0.1249  0.0603 -0.2770
23333W        W41537  11.553   0.540   2.626  0.2560  0.1758  0.0137
23334W        W41538  13.194  11.654   2.245  0.1530 -0.1340 -0.3476
23335W        W41539   1.896  14.647  16.166 -0.4577 -0.0428  0.2482
23336W        W41540  17.186  12.085  11.344 -0.1277 -0.0915 -0.0883
23337W        W41541   7.585  14.674   1.784 -0.0368  0.1532  0.2694
23338W        W41542   7.118  12.066  12.861  0.2647  0.0554  0.0732
23339W        W41543   2.099  15.766  12.600 -0.3334 -0.0488 -0.0056
23340W        W41544   8.206  12.082  14.071 -0.0232  0.0662  0.0364
23341W        W41545   2.891  12.565   1.475  0.0978  0.1382 -0.1628
23342W        W41546  10.169   1.711   5.457  0.2030 -0.1935  0.2485
23343W        W41547   6.752   5.474   3.263 -0.3093 -0.1869  0.2497
23344W        W41548   4.669   8.944   1.876 -0.0164  0.3275  0.3185
23345W        W41549  14.845   2.743   0.870 -0.0670 -0.1789  0.0733
23346W        W41550   9.211  12.696   5.774  0.1451 -0.0195 -0.0897
23347W        W41551   9.213   4.803   2.180  0.0091  0.0952  0.2760
23348W        W41552   4.908  16.297   2.464  0.2758  0.2293 -0.1543
23349W        W41553   5.239  17.196   0.244 -0.4717 -0.0440 -0.0316
23350W        W41554  17.305  14.473  15.314  0.2586 -0.0448 -0.2177
23351W        W41555   1.254   6.547   1.896  0.0274  0.1179 -0.1796
23352W        W41556  13.398   5.801  16.379  0.2173 -0.1414 -0.3055
23353W        W41557   9.339  10.612  13.141  0.3533 -0.0831  0.1229
23354W        W41558  11.453   3.674  13.257 -0.1238  0.2187  0.0644
23355W        W41559   8.596  16.165   2.249 -0.2544  0.0631 -0.0960
23356W        W41560   8.761   4.935   3.161 -0.2167  0.1408 -0.5441
23357W        W41561   7.904  15.254  16.978 -0.2638  0.1075  0.1343
23358W        W41562  14.257   6.487  12.668  0.1830  0.3409  0.0448
23359W        W41563   3.393  10.268   0.585 -0.0490  0.1532 -0.0770
23360W        W41564   5.029  13.266   2.621 -0.1329  0.2628 -0.0857
23361W        W41565  16.371   3.434  16.534 -0.4464  0.1578  0.2772
23362W        W41566   0.099  14.924  12.722 -0.0735  0.0444 -0.1161
23363W        W41567   4.568   8.455   3.095  0.0927  0.0596  0.1812
23364W        W41568  13.191   8.687   1.963 -0.0713  0.0141  0.0136
23365W        W41569  17.342   8.777  12.432 -0.2252 -0.1588  0.0691
23366W        W41570  11.772   2.411  14.798  0.2379  0.1208  0.0832
23367W        W41571  12.913  13.970   5.612 -0.2753  0.2487 -0.0585
23368W        W41572   4.540   7.427  14.990 -0.2600  0.3451 -0.4081
23369W        W41573   8.053   4.104   1.270 -0.0862 -0.0325 -0.2960
23370W        W41574  16.463   4.079   0.105  0.1267  0.0117 -0.0621
23371W        W41575   2.119  10.871   1.916 -0.0620 -0.0817  0.0906
23372W        W41576   3.181  16.656  13.979  0.1741  0.1290  0.0654
23373W        W41577   1.950  15.730   0.032  0.0612  0.1509 -0.2763
23374W        W41578   0.113  16.982  13.316  0.0428 -0.0904  0.0637
23375W        W41579   9.780   9.113  11.982  0.0936 -0.1374  0.0656
23376W        W41580   0.606  10.491  16.252  0.1983  0.0970 -0.0235
23377W        W41581  11.079   3.561  16.377  0.0407  0.2999 -0.3368
23378W        W41582  14.757  10.582   0.451 -0.2219 -0.1239  0.0547
23379W        W41583   2.983   1.350  15.074  0.2595 -0.2339  0.2223
23380W        W41584  10.182  12.879  13.652  0.0040  0.0324 -0.1195
23381W        W41585  16.241   5.059   4.198  0.0040 -0.2342 -0.1629
23382W        W41586   1.451  14.697   1.004 -0.1152 -0.1517  0.1634
23383W        W41587   1.047  14.979   5.030 -0.0417 -0.3412 -0.2939
23384W        W41588   2.438   0.861  15.990 -0.1849 -0.0576  0.0332
23385W        W41589   8.635  10.541  12.450 -0.0705 -0.1888 -0.3315
23386W        W41590  12.202   4.319   0.742  0.0394  0.1069  0.0965
23387W        W41591  16.070  10.730  12.033  0.2251 -0.0774 -0.0765
23388W        W41592  12.757  13.296   2.371 -0.0351 -0.1259  0.1837
23389W        W41593  14.405   0.900   2.855  0.3164 -0.0754 -0.0034
23390W        W41594   5.974  13.845   4.216  0.0389 -0.1653 -0.2373
23391W        W41595   1.573  15.591   1.880  0.3083  0.0539  0.2634
23392W        W41596  17.335  10.170  13.082  0.0716  0.1970 -0.0356
23393W        W41597  15.154  14.518  16.089 -0.4099 -0.2089 -0.0896
23394W        W41598  16.157  16.581   5.014  0.0087  0.0006 -0.0390
23395W        W41599  11.461   4.971   4.638  0.2362 -0.3476 -0.0846
23396W        W41600  12.322   7.782   3.865 -0.1162  0.1669 -0.0518
23397W        W41601  13.897   2.654  13.021  0.2488 -0.0453 -0.0174
23398W        W41602  14.012  12.241   5.162 -0.2234 -0.0125 -0.0860
23399W        W41603   5.583   0.003  17.230  0.0239  0.0979 -0.1277
23400W        W41604   4.121  11.906  16.035 -0.1047  0.1032 -0.2045
23401W        W41605   0.687  14.448  15.530  0.4738  0.0198  0.1246
23402W        W41606   3.641  10.852   4.751  0.2228  0.0888  0.0084
23403W        W41607  10.555  13.130  16.726 -0.0650  0.1118  0.1527
23404W        W41608   2.413  14.337   0.016  0.2337  0.1890 -0.0199
23405W        W41609  12.064   1.487   4.035  0.1895 -0.1948  0.1097
23406W        W41610   0.923   3.218   2.333  0.1561  0.0128  0.3284
23407W        W41611   1.576   5.160   2.687  0.3085  0.1744 -0.1237
23408W        W41612  11.434  15.516  12.004  0.0922 -0.2453  0.0103
23409W        W41613   9.540   5.647   5.257 -0.0339  0.3982 -0.0873
23410W        W41614   4.324  11.932   4.555 -0.2083 -0.0993  0.2179
23411W        W41615  11.065   7.471   0.149  0.0834 -0.1100  0.4156
23412W        W41616  11.398  11.414   2.800  0.3528  0.0875 -0.1363
23413W        W41617   7.014  17.468  14.118  0.2251 -0.4467  0.4040
23414W        W41618   3.053  12.492   3.952 -0.2156 -0.0546  0.0650
23415W        W41619   8.615  16.337   0.292  0.1198 -0.2467  0.1601
23416W        W41620   9.315  14.377  16.512  0.1332 -0.0079 -0.0550
23417W        W41621  16.095   4.538   0.437 -0.1948 -0.0514 -0.1216
23418W        W41622   3.181   1.122  12.599 -0.1063 -0.1076 -0.0992
23419W        W41623  15.806   4.693   0.027 -0.2147  0.1228 -0.0141
23420W        W41624  10.773   2.762  11.946  0.0708 -0.0202 -0.3743
23421W        W41625   9.970  14.834  15.990 -0.1638  0.1443 -0.1701
23422W        W41626  12.139  12.269  14.059 -0.0573  0.0921  0.0954
23423W        W41627  17.337   7.504   2.296 -0.0726  0.0455 -0.2059
23424W        W41628  14.264   2.151  14.263  0.1293 -0.1831  0.1033
23425W        W41629   6.323   9.798  15.989 -0.3539 -0.0796 -0.0621
23426W        W41630  12.004  11.535  15.624  0.0132 -0.1711 -0.1019
23427W        W41631   4.665   1.751  14.666  0.1378 -0.3619  0.2361
23428W        W41632  16.363   7.978  15.963 -0.1002 -0.3510  0.1176
23429W        W41633  11.220   0.500  12.289  0.0116  0.1759 -0.3220
23430W        W41634  17.444   7.686  13.465  0.1410 -0.0280 -0.0453
23431W        W41635   1.849  12.374  12.279  0.2712 -0.2988  0.0440
23432W        W41636   6.311   0.179  16.761 -0.1482  0.2362 -0.0430
23433W        W41637   6.016  15.060   3.131 -0.1666 -0.1602  0.2139
23434W        W41638  13.327   4.054  13.035  0.2897  0.2766  0.1768
23435W        W41639   8.251  11.490  15.088  0.2161  0.1267  0.1893
23436W        W41640   3.182   2.789   2.221  0.0692 -0.3578 -0.1908
23437W        W41641   5.593   4.223  15.530 -0.1582  0.1811  0.1757
23438W        W41642   9.857   7.287  14.794  0.0297  0.1064 -0.3188
23439W        W41643   7.521   2.048  13.230  0.2263 -0.2659 -0.2208
23440W        W41644  15.746  10.035   3.524 -0.1152  0.0083  0.0486
23441W        W41645  16.337  17.063  13.052 -0.0978  0.0562  0.3623
23442W        W41646  12.206   3.442   1.593 -0.1305  0.0010 -0.0350
23443W        W41647   5.926   0.877   0.572  0.2371  0.2069 -0.0659
23444W        W41648  15.356   3.865   5.284  0.1224  0.1550  0.2161
23445W        W41649   7.565   1.615   0.119  0.1883  0.0878  0.0565
23446W        W41650  10.435  14.594   3.612  0.0866 -0.1004  0.0242
23447W        W41651   0.860  15.792  12.984  0.0773  0.0272 -0.0774
23448W        W41652   9.391   0.369  14.940  0.1065 -0.0182  0.0467
23449W        W41653   0.685   9.967   4.865 -0.3691 -0.0347 -0.2778
23450W        W41654  15.129   1.825   1.885  0.0156 -0.1447 -0.0028
23451W        W41655  10.563   6.123   1.270  0.2105 -0.0512  0.1905
23452W        W41656  14.112   9.328  15.989  0.0216  0.0391  0.3124
23453W        W41657   5.890  12.247   0.424 -0.0839 -0.2525  0.1192
23454W        W41658   4.987   5.948  15.775 -0.0456  0.1197  0.3116
23455W        W41659  15.469  13.768   5.731 -0.0673  0.0736 -0.1750
23456W        W41660   9.744   5.124   5.225 -0.1450  0.2161  0.0438
23457W        W41661   6.454  10.146  12.415  0.1382  0.0863  0.3074
23458W        W41662  12.747   8.354  15.488  0.0833 -0.0479  0.0329
23459W        W41663   7.774  10.536   1.446 -0.0016  0.0392  0.2219
23460W        W41664  10.059   7.612   0.302  0.1575 -0.1141  0.1485
23461W        W41665  13.734   5.097   1.033  0.1247  0.2551 -0.0027
23462W        W41666   6.614  11.782   2.053 -0.1326  0.0197 -0.1301
23463W        W41667   2.097  15.269   0.531 -0.0594 -0.1295  0.0445
23464W        W41668   3.459   6.161   4.852 -0.4172 -0.2056 -0.0042
23465W        W41669   0.333  11.810  16.938 -0.1735  0.0919 -0.2070
23466W        W41670  11.465   0.977   5.269 -0.0956  0.1260  0.2676
23467W        W41671  13.221  16.904   1.736  0.0798  0.0534 -0.0544
23468W        W41672  11.568   8.830   3.258  0.1396  0.1475 -0.1770
23469W        W41673  16.939  11.860   1.449  0.0732 -0.1694  0.0813
23470W        W41674  10.145  12.547   0.074 -0.0851 -0.1424  0.0429
23471W        W41675   1.979  13.806   3.181 -0.1148 -0.2282  0.1615
23472W        W41676  11.632   3.638  15.074 -0.1065  0.3045  0.0388
23473W        W41677   9.003  17.397  12.100  0.3839  0.3844  0.1118
23474W        W41678  11.370  15.585  16.265  0.0191  0.0269 -0.3982
23475W        W41679   1.861   1.037   0.925  0.0898  0.0981 -0.1031
23476W        W41680   8.334   7.485  14.987 -0.1233  0.0845 -0.2143
23477W        W41681  13.321  11.405   3.360  0.1830  0.0350  0.2285
23478W        W41682   3.308   4.756   0.809  0.0872  0.0314  0.0247
23479W        W41683  15.365   3.940   0.715  0.2725 -0.0163  0.0950
23480W        W41684  14.210   3.418   2.959  0.0725 -0.0737  0.4542
23481W        W41685   0.340  10.553  17.112 -0.1168 -0.2565 -0.1236
23482W        W41686  10.776  11.595   0.103 -0.1178 -0.0760  0.2489
23483W        W41687   5.276  16.579  13.229  0.0187  0.2024  0.1168
23484W        W41688  16.757  11.467  13.992  0.1502  0.1644  0.2478
23485W        W41689  16.730   7.937   3.787 -0.2493  0.0676  0.0224
23486W        W41690   1.029   8.933   3.567 -0.1263 -0.0760 -0.2081
23487W        W41691   1.476   0.300  16.961 -0.0473  0.1898  0.1038
23488W        W41692  16.350  11.910   0.437  0.1045  0.0116  0.4043
23489W        W41693  14.022  15.114  16.412 -0.2024  0.0358 -0.2726
23490W        W41694  10.380  11.232  14.041 -0.1343 -0.0980  0.0460
23491W        W41695  11.512  10.881   0.912  0.3716  0.0691  0.2528
23492W        W41696   2.370  12.244   2.130 -0.1854  0.0631 -0.0732
23493W        W41697   1.590   3.802  16.625  0.2012  0.0139 -0.0120
23494W        W41698   0.818   6.104  14.047 -0.0110  0.2903  0.0645
23495W        W41699  15.605  16.665  13.359 -0.1969 -0.1616  0.1118
23496W        W41700  10.956  12.403  16.373  0.0272 -0.1799  0.0622
23497W        W41701  10.663  15.092  13.333  0.2048 -0.6044 -0.0613
23498W        W41702   3.553   9.575  15.900 -0.1193 -0.1828  0.0129
23499W        W41703   6.947  13.244  14.379 -0.0588 -0.1776  0.0446
23500W        W41704  13.485   3.807  13.857  0.0179 -0.0138 -0.1213
23501W        W41705  11.465  13.243   4.127 -0.0915  0.0883 -0.1996
23502W        W41706   3.691  17.240   1.698  0.1674 -0.0615 -0.2238
23503W        W41707  13.905   4.603   1.127  0.0427 -0.3030 -0.3233
23504W        W41708   8.584  11.561   1.249 -0.0831  0.2006 -0.1595
23505W        W41709  11.420  16.796   2.404  0.0257  0.0531 -0.3884
23506W        W41710  11.054  16.930  15.834 -0.0061  0.1764 -0.1628
23507W        W41711  15.124  13.477   3.015  0.0700 -0.3827 -0.0741
23508W        W41712  12.124  14.956  10.869 -0.0281  0.0867 -0.1350
23509W        W41713   1.140  10.212  16.714 -0.3193 -0.1163  0.1953
23510W        W41714  10.324  11.523  16.165 -0.3870 -0.1515 -0.0294
23511W        W41715   3.286  11.030  17.238 -0.1339 -0.1236  0.0512
23512W        W41716   6.318   4.544  12.277  0.0398 -0.1631  0.1752
23513W        W41717  14.934   3.619   3.435 -0.0666  0.0162  0.0655
23514W        W41718  11.003   7.086  16.393  0.1107 -0.2031 -0.0932
23515W        W41719   3.572   1.447   3.512  0.0382 -0.0017  0.1652
23516W        W41720  15.185   9.883  13.203 -0.1562 -0.1741 -0.1111
23517W        W41721   9.888  16.986  15.706 -0.1832 -0.1387  0.0086
23518W        W41722  15.295   2.338  16.387  0.2655  0.3148  0.0229
23519W        W41723   5.414   2.773   4.368  0.2242  0.1749 -0.1088
23520W        W41724  10.752  17.508   3.903  0.0798  0.0879  0.1073
23521W        W41725  17.464   7.291   0.596  0.4089 -0.4771 -0.2015
23522W        W41726   0.752  15.313   0.310 -0.0745  0.0585 -0.0497
23523W        W41727   6.848  16.043  13.563  0.0119 -0.3269 -0.0421
23524W        W41728   8.129  11.320   1.357  0.3302 -0.0685 -0.1083
23525W        W41729   0.424   2.142   0.844 -0.2070  0.0959  0.3673
23526W        W41730   8.436  13.289  12.803 -0.0178 -0.0410  0.3183
23527W        W41731   2.473  12.182   3.939  0.5440 -0.2534  0.1723
23528W        W41732  15.860   9.814  16.566 -0.1824 -0.0747  0.1935
23529W        W41733   8.071   8.915  16.587  0.0470  0.0278 -0.0956
23530W        W41734   6.938  12.551  16.468 -0.1192  0.1783 -0.2763
23531W        W41735  11.043   0.613   1.900  0.1002 -0.1943 -0.0828
23532W        W41736   3.230   8.865   4.393 -0.1642 -0.2165  0.2373
23533W        W41737   3.264  13.224  16.820 -0.1957 -0.0815 -0.0535
23534W        W41738   2.874  16.112  16.723 -0.1316  0.0850  0.0533
23535W        W41739   7.638  11.206   3.354 -0.1285 -0.1641 -0.0066
23536W        W41740   2.181  11.664  16.169 -0.1132 -0.2486 -0.1399
23537W        W41741  10.455  11.259  13.205  0.0988 -0.0452  0.0656
23538W        W41742  14.695  10.994  14.946 -0.1513  0.0771  0.1582
23539W        W41743   7.544   4.982  14.436  0.0195 -0.3309 -0.1039
23540W        W41744   2.579   5.111  16.787  0.1622 -0.0861 -0.0085
23541W        W41745   7.097   0.467  16.963  0.1719  0.3855 -0.0721
23542W        W41746   0.966  12.731   1.328 -0.1166  0.2761  0.1525
23543W        W41747  11.257  14.196  12.500 -0.3019 -0.2003 -0.0343
23544W        W41748  15.438   7.550  13.805  0.1365 -0.0383 -0.2366
23545W        W41749   7.431   6.667   2.893 -0.2387  0.1463 -0.2528
23546W        W41750  11.645  14.306   5.469 -0.0555 -0.0338 -0.2194
23547W        W41751   3.184   1.985   4.824  0.3410 -0.1268 -0.0373
23548W        W41752  11.282  16.089  14.188  0.0023  0.1634 -0.0267
23549W        W41753   6.217   2.377   4.060 -0.0528  0.2999  0.1308
23550W        W41754  10.384  15.947   4.905  0.2204 -0.1071 -0.0882
23551W        W41755  12.676   6.332   0.249  0.0113 -0.0714  0.1005
23552W        W41756   1.731   2.181  15.870 -0.2520 -0.0278 -0.0475
23553W        W41757   4.377  16.218   2.416 -0.1294  0.0225 -0.0194
23554W        W41758  10.902  16.933   1.292  0.0996 -0.0117 -0.1742
23555W        W41759   3.513   7.194  15.252  0.1145  0.3830 -0.1869
23556W        W41760   4.149  17.487   2.902 -0.2882 -0.3363 -0.0277
23557W        W41761  15.448   5.156  17.133  0.2324 -0.1187  0.2256
23558W        W41762  15.098   0.688  13.686  0.0505 -0.1571  0.2754
23559W        W41763   9.302   8.285   4.461 -0.0015  0.1038  0.0080
23560W        W41764   6.039   0.273  15.843  0.0426 -0.0492  0.0859
23561W        W41765   7.760  15.223   2.569 -0.0909  0.2119 -0.0111
23562W        W41766   9.622  12.178  15.775 -0.1659 -0.2579 -0.2402
23563W        W41767  13.484  15.664  14.016  0.0136 -0.0279  0.2632
23564W        W41768  12.617   6.645  15.270 -0.2276  0.0512 -0.0418
23565W        W41769   7.476   9.485   0.265  0.0462 -0.0489 -0.0023
23566W        W41770   2.107  17.347   2.853 -0.1638 -0.0214  0.2458
23567W        W41771   2.737  16.088   0.521 -0.0875  0.1524  0.1735
23568W        W41772  12.308  10.050   3.578 -0.0118 -0.1257  0.1403
23569W        W41773   0.490  14.393   4.811 -0.0384 -0.1568 -0.1349
23570W        W41774  13.319   9.664  14.591 -0.0492  0.0218  0.0580
23571W        W41775   5.710  16.699   0.730 -0.0469 -0.0150  0.0192
23572W        W41776   1.508  13.105   3.072  0.0270 -0.1008  0.0526
23573W        W41777   4.464  16.546  12.024 -0.4390 -0.1981  0.0647
23574W        W41778   0.788  10.151  11.822  0.3080 -0.2110  0.0375
23575W        W41779  15.276   4.314   5.092 -0.0613  0.2186  0.1842
23576W        W41780  10.118   4.456  12.431 -0.1961  0.1686 -0.1817
23577W        W41781   5.826  16.251  16.690  0.4644  0.0979  0.1278
23578W        W41782   3.715   9.748   0.645  0.1916 -0.3482  0.1046
23579W        W41783   9.940   1.824   2.879 -0.0458 -0.2414 -0.4070
23580W        W41784   9.546   4.306  11.566 -0.5529 -0.0775  0.0448
23581W        W41785   3.468   2.029   4.146  0.1398 -0.1597 -0.2165
23582W        W41786   3.273   4.906  13.040  0.1462  0.0753  0.1914
23583W        W41787   2.422  15.601  11.641 -0.1369  0.0290 -0.2117
23584W        W41788  13.031  14.103   5.123  0.2070  0.0600  0.1976
23585W        W41789  10.136  11.345   1.585 -0.1345  0.3628 -0.3315
23586W        W41790   9.306  13.976   3.742  0.0658  0.0927  0.1413
23587W        W41791   4.370   1.899   5.014 -0.1656  0.0675  0.1335
23588W        W41792   8.225  12.215   2.769 -0.0260 -0.0373  0.1660
23589W        W41793  12.328   8.493   1.062  0.1247 -0.0825 -0.1341
23590W        W41794  17.099   4.273   0.894  0.1403  0.0885  0.0338
23591W        W41795  15.372  10.859   2.041  0.0062 -0.0415 -0.0484
23592W        W41796   9.788  13.557   2.185  0.3536 -0.0475 -0.0895
23593W        W41797   4.846   6.026   1.969 -0.0519  0.3205  0.0151
23594W        W41798   3.861   6.569  15.930  0.3417  0.0801  0.0165
23595W        W41799   1.902   0.349   0.448 -0.2290  0.1339  0.0807
23596W        W41800   8.080  11.010  15.124  0.0979  0.0788 -0.1889
23597W        W41801  14.955   9.171  12.998  0.0516  0.3114 -0.2498
23598W        W41802   2.710  15.197  12.822 -0.1644 -0.2221 -0.0132
23599W        W41803   0.779  14.435  11.613 -0.0744  0.0464 -0.2303
23600W        W41804   8.104  15.212   3.352  0.0744 -0.1895  0.0198
23601W        W41805   7.461  13.236  14.064 -0.1484 -0.1627  0.4350
23602W        W41806   3.207  14.962  13.217 -0.2519 -0.3097 -0.0473
23603W        W41807   9.778   0.837  16.952 -0.1009 -0.1992  0.0715
23604W        W41808   7.899  10.110   1.803  0.0257 -0.1645  0.4305
23605W        W41809   0.022   5.812  12.917 -0.2220  0.3853  0.4242
23606W        W41810   9.785   3.308  12.831 -0.0418 -0.1719 -0.4245
23607W        W41811   6.069  11.343   3.073  0.1519 -0.2727 -0.4725
23608W        W41812  15.274  14.080   2.331 -0.0583 -0.0273  0.1546
23609W        W41813  10.769   4.465   4.145 -0.1477 -0.0387 -0.0589
23610W        W41814   2.758  10.514  14.255 -0.0058  0.3991 -0.2908
23611W        W41815   6.858  17.536   5.332  0.0102 -0.0545 -0.0975
23612W        W41816  10.191   6.916   5.213  0.0884 -0.0836  0.1698
23613W        W41817  13.138   1.779  14.468 -0.2532  0.1980  0.1300
23614W        W41818  10.200   7.705  16.330  0.2280  0.1524 -0.0867
23615W        W41819  17.070   1.590   0.335 -0.4128  0.0749  0.0032
23616W        W41820  12.453   1.861   4.047  0.1103 -0.1496  0.1121
23617W        W41821   3.115   7.006  16.731 -0.1556 -0.0931 -0.0759
23618W        W41822  13.730  10.073  15.843  0.4884 -0.0653  0.0547
23619W        W41823  16.857  10.471  13.666 -0.0266  0.2431 -0.2963
23620W        W41824   6.963   7.203  14.579 -0.3251 -0.2079 -0.2011
23621W        W41825  11.197  16.937   3.036 -0.1483 -0.2268  0.2354
23622W        W41826   6.367  11.732  15.580 -0.1777 -0.1120  0.3203
23623W        W41827   0.905  16.771  13.473  0.1239  0.0245 -0.2811
23624W        W41828  11.973   8.600   4.173  0.2952  0.0260 -0.1240
23625W        W41829   6.622   1.243  16.078  0.4517 -0.1022  0.1996
23626W        W41830  11.306  13.482   3.070 -0.1226 -0.2732 -0.0009
23627W        W41831  10.060   9.436  16.466 -0.4433  0.3119  0.1381
23628W        W41832  11.604  15.540   3.512  0.3240  0.4431 -0.2929
23629W        W41833  12.823   7.865  15.663 -0.4419 -0.0412 -0.0042
23630W        W41834  15.874   8.006   2.916  0.0246 -0.1644  0.1844
23631W        W41835  12.202   4.928   4.873  0.1942  0.0312 -0.1416
23632W        W41836   3.840  10.951   3.595 -0.2055  0.4947  0.2145
23633W        W41837  10.846   6.079  17.105 -0.2045 -0.1192 -0.1672
23634W        W41838   5.407  11.037  15.776 -0.1246  0.1299  0.0959
23635W        W41839   6.848  12.889   3.947  0.0841 -0.1051  0.1959
23636W        W41840  17.501  11.254  15.843 -0.1206 -0.2337 -0.2545
23637W        W41841   5.885   6.750  15.111  0.1132 -0.0001  0.1181
23638W        W41842  15.513  15.770  14.347 -0.2256  0.3352 -0.0166
23639W        W41843  14.552  13.063  12.591  0.2539  0.1636 -0.2115
23640W        W41844  10.649  10.620   4.580  0.0967  0.0679 -0.5117
23641W        W41845  16.737   5.671  16.882  0.0238  0.0909 -0.1019
23642W        W41846   8.167  14.611  14.128  0.0153 -0.0428 -0.0494
23643W        W41847   3.342   1.670  12.572 -0.1736 -0.1275 -0.1037
23644W        W41848   5.604  16.649   0.218 -0.0499  0.1904 -0.0075
23645W        W41849  15.540  15.731  16.224  0.0651  0.1261  0.0196
23646W        W41850   3.777   8.067  16.527  0.0621  0.2005  0.1828
23647W        W41851   8.895  16.297  16.660 -0.1977  0.5412  0.0010
23648W        W41852   5.799   4.706  14.155  0.0978 -0.1117 -0.1097
23649W        W41853   5.069  10.419  13.048 -0.2212 -0.2424 -0.1595
23650W        W41854  14.403  15.540  16.555 -0.4218 -0.0409  0.1109
23651W        W41855   6.947   9.737   4.052 -0.0583 -0.0900 -0.0294
23652W        W41856   7.860  16.030  12.887  0.1824 -0.0569 -0.0631
23653W        W41857   7.560  13.623   2.509 -0.1116 -0.3145  0.0774
23654W        W41858  11.047   0.079  13.294  0.0196 -0.0677  0.0516
23655W        W41859  15.031  11.946  11.990 -0.1765  0.0439  0.0563
23656W        W41860   1.985   6.954  12.100 -0.2441 -0.3915  0.1081
23657W        W41861  17.425   8.937   0.991  0.0499  0.2450 -0.3914
23658W        W41862  12.884   5.500  13.764 -0.0092  0.3124 -0.2409
23659W        W41863   3.163   7.337   0.590  0.1944  0.0454  0.0395
23660W        W41864  12.671  16.063  12.482 -0.0755  0.1779  0.3706
23661W        W41865  10.464  13.407   4.536 -0.1457 -0.1577  0.2199
23662W        W41866   5.083  15.282   5.345  0.1148 -0.0608  0.2354
23663W        W41867  10.415  15.543   1.448 -0.1804  0.0592 -0.2063
23664W        W41868   9.265   1.958  15.570  0.0701 -0.0775 -0.1743
23665W        W41869   2.486   3.538   3.601 -0.0109  0.1662 -0.2885
23666W        W41870  15.384  16.831   2.036 -0.1127 -0.0588 -0.0162
23667W        W41871   8.501   1.578   0.496 -0.0062 -0.1123  0.0630
23668W        W41872  14.058  11.957   4.381 -0.1258  0.3448  0.1829
23669W        W41873  14.523  16.167   1.077 -0.1714 -0.1238 -0.0148
23670W        W41874   6.820   5.651   1.163 -0.1671  0.1935 -0.0770
23671W        W41875  10.279  13.976   6.244  0.1296  0.0422  0.0493
23672W        W41876  12.274   8.306   3.798 -0.1228  0.1008  0.0038
23673W        W41877  15.833  14.513  15.203 -0.1841 -0.2759  0.1522
23674W        W41878   5.038   2.862   2.144 -0.1793 -0.2401  0.3910
23675W        W41879   4.895   2.155   0.456  0.5575  0.1032 -0.3442
23676W        W41880   0.100  16.523   1.185  0.0851  0.0976  0.2973
23677W        W41881  16.655   5.887   3.076 -0.0997 -0.2546 -0.1205
23678W        W41882  13.891  12.346   4.704 -0.1686 -0.2124  0.2905
23679W        W41883   5.693  15.414   0.273  0.2943  0.2800  0.1759
23680W        W41884  16.887   8.684   1.174  0.1804 -0.0201  0.0686
23681W        W41885  10.362   6.742   3.258 -0.2301  0.2591  0.2598
23682W        W41886   6.843   2.130   1.282  0.0795 -0.1360  0.0130
23683W        W41887   8.405   5.005  13.280  0.0790 -0.0242  0.1770
23684W        W41888  11.407   0.880   4.086  0.4939 -0.1564 -0.0699
23685W        W41889  10.900   8.051   4.010  0.0043  0.1486 -0.1482
23686W        W41890   5.907  15.646  15.165 -0.1712  0.1504  0.1976
23687W        W41891  15.926   2.515   1.438 -0.0964 -0.4669  0.0726
23688W        W41892  13.195  12.662  11.043 -0.0689  0.0971 -0.1729
23689W        W41893  16.413  15.929   4.396  0.0683 -0.1965  0.0448
23690W        W41894   3.946   3.082  17.282  0.0195  0.0248 -0.0819
23691W        W41895   8.144  11.943  16.786 -0.1777  0.0510  0.1760
23692W        W41896   3.212  17.108  17.073  0.2393  0.0807  0.2084
23693W        W41897   5.240  16.259  12.826 -0.1827  0.0998  0.0026
23694W        W41898   7.521   1.474   2.363 -0.2644 -0.3188 -0.0191
23695W        W41899  10.380  15.297  12.963  0.0180  0.0118  0.1605
23696W        W41900   9.727  14.722   4.420 -0.0219 -0.2543  0.0785
23697W        W41901  13.192  14.346   0.529  0.2777  0.2002  0.0839
23698W        W41902  15.305  16.665   0.583 -0.2047 -0.0480 -0.1734
23699W        W41903   1.965   1.845  12.887  0.1226  0.2728  0.1178
23700W        W41904   2.566   4.712   4.203  0.0765 -0.2255 -0.1433
23701W        W41905   5.876   6.546  11.664 -0.1106  0.0467 -0.0160
23702W        W41906   5.503  11.688  13.181  0.1893  0.2511  0.0622
23703W        W41907   7.619   3.323  12.803  0.0290 -0.0571  0.0870
23704W        W41908   1.722   3.316  13.284  0.0826 -0.1687 -0.0497
23705W        W41909  12.212   5.273   1.335 -0.2485 -0.0438 -0.0033
23706W        W41910  17.144  14.753  13.642 -0.1348 -0.3975  0.1004
23707W        W41911  15.639   0.235  12.636  0.0619 -0.1512  0.2939
23708W        W41912  14.269  10.706  16.619  0.5167 -0.1782  0.0806
23709W        W41913   1.239   6.510  12.849 -0.3195 -0.1515 -0.1468
23710W        W41914  11.745   6.409  14.103  0.0388 -0.0812 -0.2371
23711W        W41915   7.415   3.049   3.903 -0.1087  0.0871 -0.0063
23712W        W41916   6.549  15.847  14.392 -0.1072 -0.1448  0.3695
23713W        W41917   4.476   4.370   1.555  0.1750 -0.0137 -0.1397
23714W        W41918  17.514   8.810  14.996 -0.1219 -0.1253  0.0314
23715W        W41919   3.957   2.054  15.097  0.2036  0.1734 -0.0796
23716W        W41920  12.300   5.445   0.854 -0.1587 -0.1777  0.0119
23717W        W41921  14.328  15.983  15.181 -0.1471  0.0996  0.0259
23718W        W41922  16.190   8.087  13.787  0.1901 -0.0645 -0.1059
23719W        W41923  13.441  13.658   1.180 -0.1524 -0.4322  0.3694
23720W        W41924  16.974   9.934  14.554  0.1182  0.1691  0.0170
23721W        W41925   7.571  11.684  16.474 -0.1211 -0.1142  0.3663
23722W        W41926   0.786   3.157   4.488 -0.3029 -0.0632 -0.0406
23723W        W41927   2.460   0.542  13.192  0.1977  0.1849 -0.1461
23724W        W41928  16.118  16.223   0.402 -0.0669  0.2181  0.0281
23725W        W41929  16.099  12.131  12.861 -0.0512  0.0743 -0.0312
23726W        W41930  16.078   8.521   1.895 -0.0422  0.0905  0.1478
23727W        W41931  15.597   9.599   1.699 -0.2649 -0.1954  0.2213
23728W        W41932  17.405   2.125  15.575  0.1498  0.0848  0.0294
23729W        W41933  13.148   0.739  16.148 -0.1698  0.4351  0.1092
23730W        W41934  10.716  11.618   2.129 -0.3736  0.0163 -0.3244
23731W        W41935  11.831   7.558   4.046  0.1443 -0.1443 -0.0559
23732W        W41936   9.805   2.721  16.033  0.1513  0.2005  0.1326
23733W        W41937   7.532   9.699   2.058  0.3713 -0.0608  0.1573
23734W        W41938  10.881  16.753   3.399  0.0166  0.1958 -0.0287
23735W        W41939   6.241   4.389   3.425 -0.0088 -0.3068  0.1039
23736W        W41940   0.735  12.442  12.655 -0.2371 -0.0914 -0.2923
23737W        W41941  11.371  10.495   2.739 -0.1386  0.5212  0.2892
23738W        W41942  11.900  15.894  11.284  0.4311 -0.0809 -0.0572
23739W        W41943  14.919  17.193  15.321  0.1003  0.1276 -0.3611
23740W        W41944  12.251  13.184  16.342 -0.1755  0.0296  0.0143
23741W        W41945   0.853  14.907  15.469  0.3929 -0.0220 -0.0270
23742W        W41946   0.527  12.679  13.209  0.0571 -0.2689  0.4439
23743W        W41947  16.393   6.619   3.757  0.2259 -0.1070 -0.2128
23744W        W41948  10.285  11.162   5.222 -0.3216 -0.4551  0.1464
23745W        W41949   5.290   0.732  15.932 -0.3002  0.0217 -0.0526
23746W        W41950   5.322  15.859  14.485 -0.0131 -0.0360  0.0593
23747W        W41951  13.740   9.053  15.733  0.0556  0.1963  0.1658
23748W        W41952   3.811   4.800   2.367 -0.1827 -0.1041  0.1150
23749W        W41953   5.683  14.093  13.018 -0.3179 -0.1473 -0.1028
23750W        W41954   4.735   6.286  12.935 -0.0922 -0.0639 -0.3763
23751W        W41955  13.622   4.205  16.085  0.2507 -0.1490 -0.0639
23752W        W41956  14.321   8.260  15.887  0.1379 -0.0199 -0.1096
23753W        W41957  11.538   4.328   3.890 -0.1129  0.1302 -0.1735
23754W        W41958   5.434  12.500   3.031 -0.1061  0.0220 -0.0518
23755W        W41959   2.857  13.752   4.729 -0.0617  0.1056  0.1806
23756W        W41960   0.169  12.208  15.694  0.2831 -0.3240 -0.1245
23757W        W41961  11.161   0.821  16.780  0.0872  0.0707  0.2314
23758W        W41962   3.106   1.961  12.932 -0.1829  0.1159 -0.4293
23759W        W41963   3.660   9.706  12.710  0.1736  0.2012 -0.3158
23760W        W41964  17.202  14.218   3.543  0.1982  0.1951 -0.2608
23761W        W41965   3.195  15.391  12.805 -0.2519 -0.0362 -0.0632
23762W        W41966   3.689   9.053   4.120 -0.0202  0.1614  0.1089
23763W        W41967   6.491  12.321   4.518  0.0744 -0.2146  0.2415
23764W        W41968   1.722  12.415   1.273 -0.0163 -0.0563  0.3930
23765W        W41969   4.255  12.381  16.828 -0.0521  0.0267  0.2427
23766W        W41970   4.897   0.487   2.375  0.0949 -0.0649  0.1912
23767W        W41971   4.886   8.648   1.440 -0.0778 -0.0351 -0.1514
23768W        W41972   9.487  13.233   1.932  0.1419 -0.0572 -0.0080
23769W        W41973   9.434   5.101  16.815  0.2077 -0.2426 -0.0860
23770W        W41974   5.394   5.565   2.260  0.0635 -0.1492 -0.5397
23771W        W41975  16.434   4.078  16.475  0.2626 -0.0200 -0.1125
23772W        W41976  10.174   1.871   0.854  0.2721 -0.2064 -0.3286
23773W        W41977  12.121   9.168  13.069  0.1483 -0.0235 -0.2917
23774W        W41978   2.699  14.092   2.281  0.3277  0.2054 -0.0895
23775W        W41979  12.290   5.856   0.080 -0.0532 -0.1520 -0.0466
23776W        W41980  13.899  12.864   3.958 -0.1777 -0.3860  0.0112
23777W        W41981  13.717   1.288   4.521  0.2082  0.0347 -0.1579
23778W        W41982  13.200  14.643   3.526 -0.1436  0.0867 -0.1880
23779W        W41983  16.542  14.246   6.571  0.1499 -0.0275 -0.0977
23780W        W41984  14.850   9.601   1.031 -0.0382  0.2330 -0.2724
23781W        W41985  15.493  11.231   0.770 -0.1294 -0.0516 -0.0424
23782W        W41986  15.105   7.861   5.050  0.2565  0.1937  0.1728
23783W        W41987   4.148   7.720   1.458  0.2743 -0.0407  0.2370
23784W        W41988  13.776   7.299  12.826  0.1378 -0.3070 -0.3921
23785W        W41989   2.408   9.399   3.815 -0.2544 -0.1195  0.0885
23786W        W41990  17.184   1.116   0.539 -0.2189 -0.1890 -0.0401
23787W        W41991  11.975   7.146   4.293 -0.1730  0.0844  0.1174
23788W        W41992  14.199  15.294  12.716  0.0967  0.3688 -0.1373
23789W        W41993   4.501   8.181   1.428  0.0244 -0.3729  0.2428
23790W        W41994  16.061   5.480   3.832  0.2815 -0.5273 -0.1686
23791W        W41995  13.066   6.816  15.261 -0.5323 -0.0382 -0.1193
23792W        W41996   8.888  11.057  12.474 -0.0794 -0.2087 -0.1136
23793W        W41997  15.977   2.703  14.155 -0.0570 -0.2578  0.0839
23794W        W41998   6.008   7.644   2.275  0.3186 -0.0694  0.1289
23795W        W41999  16.980  13.972  14.290  0.2264 -0.1309 -0.2532
23796W        W42000  10.423   3.635  14.396 -0.2051 -0.0491 -0.0627
23797W        W42001   0.527  12.376   0.231  0.1431  0.0412 -0.2219
23798W        W42002   1.801   5.716  16.160  0.0028  0.2498 -0.0319
23799W        W42003  12.299   5.019  17.247 -0.2262 -0.1984  0.0937
23800W        W42004   8.827   4.161   2.454  0.1243  0.1360 -0.0984
23801W        W42005  10.711  13.872   1.904 -0.0032 -0.0428 -0.0439
23802W        W42006   6.349   8.308   3.903 -0.1141  0.0489 -0.0165
23803W        W42007  16.291  11.138  14.603  0.1359  0.1513 -0.0187
23804W        W42008  11.350  10.029   1.891 -0.2293 -0.5915 -0.1766
23805W        W42009   6.322   8.074  12.738 -0.1395 -0.0454 -0.0062
23806W        W42010   0.898   5.813  16.126  0.0192 -0.2894 -0.1119
23807W        W42011   4.480   5.968   3.230 -0.0416 -0.1085  0.0786
23808W        W42012   8.981  13.704  12.567  0.0335 -0.0432 -0.0650
23809W        W42013   6.397   2.862  13.656 -0.0689  0.2207 -0.1695
23810W        W42014   7.571  16.976   0.881  0.0939  0.1276 -0.2510
23811W        W42015  16.320   4.002  15.325  0.2255 -0.1253  0.0663
23812W        W42016   6.747   7.163   1.646  0.0489 -0.3360  0.1500
23813W        W42017   1.181  16.055   3.692 -0.1113  0.0478  0.0641
23814W        W42018   1.688   8.882   1.620  0.0256  0.1981  0.1662
23815W        W42019  14.189   3.025   3.804 -0.0040  0.1317  0.2865
23816W        W42020   3.742   3.969   3.375  0.0220 -0.1426 -0.0576
23817W        W42021   9.088  16.603  13.304 -0.0421 -0.0840  0.2339
23818W        W42022  15.473   1.653   1.426  0.0004  0.0378 -0.1071
23819W        W42023  11.637  14.355  14.648  0.0662 -0.0254 -0.1046
23820W        W42024   6.911  15.226   3.102 -0.0396 -0.1736  0.1449
23821W        W42025  11.141   2.491   0.997 -0.2341 -0.0804 -0.2732
23822W        W42026  11.628   1.360   5.664  0.0054 -0.1085 -0.1559
23823W        W42027  11.973  13.733   2.453  0.1651 -0.0006 -0.2165
23824W        W42028  14.127  11.413   3.923 -0.0389 -0.0939 -0.0064
23825W        W42029   5.714   3.608  13.185 -0.0684 -0.0675  0.1215
23826W        W42030   5.315   3.918   0.225 -0.1178  0.3009 -0.2743
23827W        W42031  10.066   4.545   2.485  0.3670  0.0138  0.1332
23828W        W42032   0.960  15.736   4.503  0.0037 -0.0050  0.0531
23829W        W42033   8.324  14.788   3.088  0.1172  0.1690  0.2735
23830W        W42034   8.142  15.408  13.369 -0.0673 -0.1133  0.0066
23831W        W42035   8.280  15.673  17.266 -0.1558  0.3227  0.0477
23832W        W42036  11.015   3.064   3.926  0.1964 -0.1975 -0.2752
23833W        W42037  12.298  10.906   5.201 -0.1332  0.1876  0.2632
23834W        W42038  15.226  16.269  16.503  0.2560  0.3326 -0.1364
23835W        W42039   0.100  15.788   0.678  0.2744 -0.1519  0.0004
23836W        W42040   9.150  13.477   0.517  0.0102 -0.1028  0.0712
23837W        W42041   8.861   9.326   0.789 -0.1301 -0.1357  0.0262
23838W        W42042   2.997   2.259   0.874 -0.0670 -0.1716  0.0458
23839W        W42043   5.919  15.919  11.910  0.0045  0.0673  0.1558
23840W        W42044   4.544  10.212  13.050 -0.0946 -0.0986  0.2434
23841W        W42045  11.554   8.830  12.109 -0.0359  0.2139 -0.2152
23842W        W42046   3.729  12.483   1.878 -0.3120  0.0450  0.1937
23843W        W42047  17.442   6.920   4.592  0.1278  0.1420  0.0949
23844W        W42048   5.429  15.913  16.583 -0.1740  0.2328 -0.2453
23845W        W42049   6.540   0.064   2.283  0.0214  0.0826  0.2885
23846W        W42050   5.460  16.398  17.024 -0.0252 -0.0529  0.1776
23847W        W42051  13.369  12.140  12.389  0.0795  0.2002 -0.0892
23848W        W42052  15.643  15.885   3.837 -0.0396  0.2991  0.0456
23849W        W42053   7.107  14.739  13.037 -0.0405  0.1768 -0.0189
23850W        W42054   9.378   5.374   2.218 -0.0564  0.0448 -0.2443
23851W        W42055  12.951   2.589   4.327  0.1125  0.1291  0.2243
23852W        W42056  13.091  10.058   0.763  0.0694 -0.1991  0.2266
23853W        W42057   2.203   1.815   3.048 -0.0209  0.0832 -0.1113
23854W        W42058  12.772   3.502  12.286  0.3571 -0.1614  0.0781
23855W        W42059  14.328  14.505  15.547 -0.1915  0.1382 -0.1345
23856W        W42060  13.184  16.267   1.329  0.0778  0.1160 -0.1601
23857W        W42061   1.866  14.945   3.676  0.0816  0.0722 -0.0103
23858W        W42062   2.556   2.585  13.540  0.3987 -0.0789 -0.1299
23859W        W42063  10.868  14.225  12.117  0.1341 -0.1119 -0.0017
23860W        W42064  15.237   4.718  17.124 -0.2140  0.1316 -0.5258
23861W        W42065  11.541   7.311  15.511  0.2000 -0.3129 -0.1831
23862W        W42066   3.100   1.460   2.142  0.3267 -0.1032  0.3589
23863W        W42067  17.393  14.827   0.891 -0.3160  0.2054 -0.2626
23864W        W42068  11.294  12.913  14.541 -0.0479  0.1673 -0.0372
23865W        W42069  14.166   9.949   2.806  0.0432 -0.1069 -0.0144
23866W        W42070  17.482  14.553   2.466  0.0544 -0.3369 -0.2331
23867W        W42071   7.874  10.814   5.117  0.1214 -0.0650 -0.0280
23868W        W42072   3.477   5.247   4.928  0.1009 -0.1511 -0.0772
23869W        W42073   2.100   4.418  14.921  0.2900  0.0396 -0.1060
23870W        W42074  14.599  14.089  15.854 -0.0698 -0.1701 -0.0502
23871W        W42075  16.379  10.922   4.919  0.1789  0.2237 -0.0651
23872W        W42076   6.762  15.964   3.661  0.0631  0.2758  0.3970
23873W        W42077  10.458   5.411  15.570 -0.0884  0.2821 -0.1272
23874W        W42078   1.066  16.590  16.965 -0.2168  0.1237 -0.1834
23875W        W42079   1.252  12.378  12.356 -0.2212  0.1633 -0.2156
23876W        W42080  16.110   0.522  12.653  0.1333  0.0604  0.0238
23877W        W42081   9.098   4.933  13.482 -0.0290 -0.0526 -0.0341
23878W        W42082   6.658   6.845   0.262  0.0396 -0.4396 -0.1489
23879W        W42083   3.791   7.836  13.010  0.0528 -0.1662 -0.0205
23880W        W42084  12.343   3.070   5.253  0.2424  0.0190  0.0045
23881W        W42085   8.146   7.715   1.198 -0.1830  0.0481  0.0673
23882W        W42086   4.179  10.800  14.685 -0.0480  0.0454  0.2756
23883W        W42087   4.976   9.076   1.169 -0.2635 -0.0054 -0.1832
23884W        W42088  16.196   7.443   0.172 -0.1342 -0.2581 -0.4173
23885W        W42089  11.641   6.853  16.857  0.2299 -0.1420  0.2844
23886W        W42090   2.335   9.087   4.936 -0.0974  0.1105  0.2526
23887W        W42091  11.971   4.964  14.631 -0.0781  0.0540  0.1153
23888W        W42092   8.292  17.233  15.454  0.0294 -0.1307 -0.0921
23889W        W42093   6.006  15.072  11.728  0.0991 -0.0544  0.0339
23890W        W42094   6.533  16.941  16.474  0.1120  0.0848 -0.0620
23891W        W42095   2.915  15.854  14.130  0.1650 -0.0440  0.0578
23892W        W42096  11.099  15.637   1.596  0.0624 -0.0058 -0.2108
23893W        W42097  10.999  14.370  13.007 -0.1387  0.0339 -0.2057
23894W        W42098   0.107   8.847   0.476  0.0102  0.2606 -0.0994
23895W        W42099  15.423  17.361  13.432 -0.1267 -0.2265  0.0657
23896W        W42100  14.763  15.829  14.765 -0.0525  0.1920  0.0597
23897W        W42101  11.690  14.388  13.613  0.1382  0.1338 -0.0866
23898W        W42102  15.879   4.198  14.389 -0.0527 -0.2410  0.3213
23899W        W42103  13.493  13.810   0.308  0.2431 -0.1833 -0.2764
23900W        W42104   9.730   1.194  13.794  0.2110  0.3929  0.0714
23901W        W42105   8.961   3.268   3.991  0.1311 -0.3296 -0.1509
23902W        W42106   6.023   5.100   0.162 -0.0982 -0.1918  0.4966
23903W        W42107  16.862   1.157   4.433 -0.3026  0.0102 -0.3734
23904W        W42108   5.289   9.812   2.194  0.1724  0.4855  0.0329
23905W        W42109   5.900  13.934  13.771 -0.0112 -0.0006  0.2164
23906W        W42110   0.096   5.711  16.666 -0.0805 -0.3353  0.3330
23907W        W42111   2.245   9.191   0.994  0.0299 -0.2015 -0.4902
23908W        W42112   1.244   8.211   2.739  0.0669  0.0471  0.2100
23909W        W42113  10.387   3.440   5.507  0.3583 -0.0658 -0.0538
23910W        W42114   4.398   3.366  15.121  0.0035  0.1216  0.0145
23911W        W42115   5.891   7.260   2.623  0.0178  0.0044 -0.2122
23912W        W42116  13.150   1.376   2.832 -0.1247  0.2617 -0.1682
23913W        W42117  15.793   6.859   4.320 -0.0005 -0.0409 -0.1150
23914W        W42118   0.834   1.264  16.165 -0.1721  0.1992 -0.2646
23915W        W42119  13.619   1.310   0.350 -0.0883 -0.1057  0.0764
23916W        W42120  14.950   9.028   4.776 -0.2103 -0.1803  0.0657
23917W        W42121   0.203   8.855   4.039 -0.1402  0.0482 -0.0017
23918W        W42122   5.214   4.800  16.598 -0.0328  0.1198 -0.1476
23919W        W42123   0.257   4.091   3.141  0.0621 -0.0421 -0.1996
23920W        W42124   3.641  10.154  14.001  0.5223  0.0159 -0.1151
23921W        W42125  12.970  11.624  16.984 -0.0575 -0.0050  0.1989
23922W        W42126   1.085  10.230   0.340 -0.1187 -0.3382 -0.3174
23923W        W42127   1.908  14.701  13.932 -0.1790 -0.4756 -0.0188
23924W        W42128   4.076   5.093  12.576 -0.0563 -0.0313  0.1464
23925W        W42129   5.811  17.496   5.301  0.0420  0.1597 -0.1777
23926W        W42130   9.042   4.808  12.634 -0.0423 -0.2127 -0.1695
23927W        W42131  16.768   1.500   1.197 -0.0008  0.0953 -0.0753
23928W        W42132  10.244  15.331  14.869 -0.0928  0.0179 -0.0215
23929W        W42133  10.296  16.265  15.652  0.0552  0.1077  0.0578
23930W        W42134  12.313  11.958  14.969 -0.0427  0.3036  0.0980
23931W        W42135   1.023   6.431  14.500  0.3735 -0.0817  0.2714
23932W        W42136  15.077   7.974   2.791 -0.0894  0.2322 -0.2433
23933W        W42137  13.271   2.850   1.133  0.1919 -0.1217  0.1849
23934W        W42138   8.861   9.030   1.204 -0.0564  0.1021 -0.0743
23935W        W42139  12.890  15.110  13.632 -0.0205  0.1828 -0.0984
23936W        W42140   6.220  13.441  13.187  0.0915  0.1488 -0.1065
23937W        W42141  14.885   7.064   5.387  0.0464 -0.0206  0.2022
23938W        W42142   7.620   4.280   3.761 -0.1107 -0.0288  0.0942
23939W        W42143   1.441   3.435   2.188 -0.1412  0.1433  0.2900
23940W        W42144  14.316  11.257  14.477  0.0926 -0.0074  0.0471
23941W        W42145   4.107   1.072  14.186  0.0728  0.2087  0.1384
23942W        W42146  13.936  10.136  13.933  0.0771  0.0880  0.0528
23943W        W42147   1.792   9.032  15.099 -0.1011 -0.2281 -0.0389
23944W        W42148   2.795   4.663  11.979  0.0398  0.2873 -0.0497
23945W        W42149   8.666  16.851  13.150 -0.0738 -0.1286  0.2387
23946W        W42150   3.338   7.421  15.703 -0.0843  0.2219  0.2959
23947W        W42151   6.878   4.913   1.212 -0.1495  0.1145  0.0305
23948W        W42152   1.153   4.023  15.972  0.4136  0.2286  0.0833
23949W        W42153  15.283  12.458   4.654 -0.3529 -0.2013 -0.0212
23950W        W42154   1.798  11.728  12.268 -0.0118 -0.2383  0.1025
23951W        W42155   8.956   6.357  16.552 -0.0381 -0.0933  0.0186
23952W        W42156  16.277  11.479  14.209 -0.0395  0.2700  0.2754
23953W        W42157   0.564  12.985  16.011 -0.0806 -0.1711  0.0880
23954W        W42158  14.303  10.077   5.298 -0.3538 -0.3622 -0.4658
23955W        W42159   5.063   8.047  12.765  0.0402 -0.1611 -0.0496
23956W        W42160  15.276  16.654   2.533  0.1895  0.1485 -0.1549
23957W        W42161   1.428   8.454   1.382 -0.2171  0.2460 -0.0688
23958W        W42162   7.233  13.086  14.781  0.1528 -0.1990  0.1307
23959W        W42163   8.392  10.990  12.299 -0.1424 -0.0396 -0.2107
23960W        W42164   6.696   3.980  15.827 -0.2425 -0.2722 -0.1397
23961W        W42165   9.331   2.565  15.869 -0.1014 -0.2485 -0.3096
23962W        W42166   2.849  13.341  12.473 -0.0653  0.2336 -0.1198
23963W        W42167  11.915   0.464  15.655  0.0161 -0.3465 -0.2370
23964W        W42168  16.675  12.404   3.115 -0.1808 -0.2058  0.0073
23965W        W42169   2.763  13.561   4.092 -0.0308 -0.0173  0.0414
23966W        W42170   2.773  16.062   1.907  0.2216  0.0103  0.0968
23967W        W42171  14.880  11.458   2.338  0.1002 -0.0624  0.2600
23968W        W42172   7.606   9.551  12.124  0.0069 -0.2255  0.1902
23969W        W42173  15.392   7.583  12.808 -0.0913 -0.0025 -0.2289
23970W        W42174  11.393  17.284  13.833  0.0875  0.1375 -0.2060
23971W        W42175  10.049  16.396   3.619  0.1438 -0.1348  0.0157
23972W        W42176  10.588   5.699   5.386  0.0498  0.0742 -0.2147
23973W        W42177   8.512   4.721   3.758 -0.1928 -0.1120  0.0516
23974W        W42178  14.937  12.040  12.460  0.1048 -0.3926  0.0097
23975W        W42179   6.037   4.503  15.588  0.2890 -0.0417  0.2437
23976W        W42180   6.572   8.949  17.219  0.0464 -0.1556  0.0112
23977W        W42181   7.962   0.609  17.272 -0.1291  0.0403  0.1475
23978W        W42182  15.078   1.457   3.998 -0.2477 -0.0090 -0.0752
23979W        W42183   6.460  14.179   5.424 -0.0310 -0.1963  0.0144
23980W        W42184  11.325   5.852  15.905 -0.0864  0.1229  0.0250
23981W        W42185  17.467   2.845   4.378 -0.1247 -0.0893 -0.0528
23982W        W42186  11.627  17.126   0.821  0.1487 -0.2025  0.0166
23983W        W42187   2.539   1.464   2.859  0.0825  0.3650 -0.2845
23984W        W42188   5.290  11.738  12.260 -0.0951 -0.2354  0.0500
23985W        W42189   3.067  14.489  13.056 -0.1745 -0.0813 -0.1089
23986W        W42190   8.868   6.963  11.940  0.3985 -0.0651 -0.0716
23987W        W42191  12.330   1.275  13.794 -0.3151 -0.1491 -0.1370
23988W        W42192  16.199   4.918  13.670 -0.0799 -0.3447 -0.1050
23989W        W42193   3.450   0.675  15.433 -0.0587  0.1452 -0.1227
23990W        W42194   3.616  14.642  12.387  0.2052  0.0342 -0.0042
23991W        W42195  11.560  10.864  13.826 -0.1456 -0.0783  0.1959
23992W        W42196   4.222   6.575   5.288  0.3533 -0.0964 -0.0457
23993W        W42197   9.318  11.672  15.833  0.0049 -0.2865  0.0801
23994W        W42198   6.153   7.276  13.457 -0.1478 -0.1756  0.1680
23995W        W42199  17.172   2.422  17.186  0.1907 -0.0916  0.0469
23996W        W42200   6.680  15.934   0.960 -0.1756 -0.0009  0.1132
23997W        W42201   7.100  10.494   2.961  0.0829 -0.1260 -0.0034
23998W        W42202  14.734  13.227   0.392 -0.1213  0.2122 -0.0271
23999W        W42203   5.530  12.497   4.768 -0.0498 -0.0816  0.2016
24000W        W42204  17.538   0.496   3.978  0.0355 -0.1501 -0.0848
24001W        W42205  16.845  15.706  16.832  0.0086 -0.0025 -0.0720
24002W        W42206   2.979   4.242   5.378 -0.3108 -0.0331 -0.1249
24003W        W42207  13.510   3.786   0.885 -0.0165 -0.1740 -0.3159
24004W        W42208  16.081  13.252   1.063 -0.2468 -0.1429  0.1421
24005W        W42209  12.089  13.047  14.965 -0.0800  0.3170  0.0652
24006W        W42210   4.526  14.138   2.550  0.0389 -0.2838 -0.2041
24007W        W42211   9.498  16.389  12.983 -0.2124  0.0213  0.1798
24008W        W42212  12.739   0.267   0.166  0.0056  0.1476  0.1263
24009W        W42213   1.478   1.195  15.018 -0.0397 -0.1988  0.0136
24010W        W42214   5.360   1.062   4.547  0.1441  0.0165 -0.2198
24011W        W42215   6.840   6.319   4.870 -0.1253  0.1877  0.0959
24012W        W42216   1.908  13.533   4.491  0.1328 -0.1197 -0.1074
24013W        W42217  12.088   8.942  14.358  0.0601  0.1836  0.1786
24014W        W42218   0.803   5.800   0.165  0.2004 -0.0523  0.1184
24015W        W42219   2.968  11.930   1.490 -0.1273 -0.1536 -0.0273
24016W        W42220  16.282   6.237   1.132  0.2629 -0.0210 -0.1930
24017W        W42221  13.491  17.480  16.672 -0.1355  0.1031 -0.2293
24018W        W42222  13.200   9.992   1.737 -0.3194  0.1693 -0.1191
24019W        W42223   2.572   2.788   0.271 -0.1751 -0.3127  0.3902
24020W        W42224   1.593   4.785  13.222  0.0530 -0.1318 -0.2389
24021W        W42225   9.518  16.083   2.873  0.3867 -0.0750 -0.0508
24022W        W42226   3.919   2.791  14.422 -0.0721  0.0636 -0.2038
24023W        W42227   4.565   9.676  12.991  0.2990 -0.1860  0.2124
24024W        W42228   4.425   3.157  12.448  0.0418  0.0943  0.1304
24025W        W42229   5.639   5.492  15.804 -0.0876 -0.2712 -0.3492
24026W        W42230   3.425   3.185   3.753 -0.0392  0.1468  0.0298
24027W        W42231   5.620   4.073  16.500  0.0970 -0.1041  0.2059
24028W        W42232   7.152  16.473   1.499  0.0116  0.0114  0.0936
24029W        W42233   5.842   0.461  14.505  0.0563 -0.1096 -0.1820
24030W        W42234  13.080  14.919  15.025 -0.0449  0.1103 -0.1567
24031W        W42235  10.553  17.129  15.749  0.0208 -0.1415  0.4408
24032W        W42236   3.820   7.777  12.461  0.0325  0.1976 -0.2471
24033W        W42237   6.669   1.477   2.336 -0.0692 -0.0593 -0.0106
24034W        W42238  16.289  13.458  15.835  0.0797 -0.0420 -0.3826
24035W        W42239   8.512  12.781   4.080 -0.1799 -0.0676  0.0862
24036W        W42240  11.604   5.813   5.773 -0.0195 -0.1456 -0.0280
24037W        W42241   8.425  12.503   1.474  0.4544  0.0898  0.2347
24038W        W42242  14.493  17.353   5.099  0.2983 -0.0465 -0.0571
24039W        W42243   7.437   7.643  15.644 -0.3339 -0.1270  0.1675
24040W        W42244   8.979  13.779  14.511  0.0692  0.1376 -0.0078
24041W        W42245   2.704   5.690   1.179  0.0971 -0.1664 -0.0023
24042W        W42246   2.054  12.533   2.465  0.1926 -0.5651  0.2168
24043W        W42247  13.543   1.773  13.088 -0.0135 -0.1906  0.1897
24044W        W42248   6.559  17.301  16.911  0.0579  0.2553 -0.1351
24045W        W42249   6.508   5.769   0.741 -0.1402  0.1733  0.0348
24046W        W42250  11.442  13.637   2.565 -0.0898  0.0771 -0.1125
24047W        W42251  17.348   5.585  12.221 -0.0888 -0.0286  0.1010
24048W        W42252   9.682   5.232   1.147 -0.2860  0.0023 -0.1359
24049W        W42253  16.403   5.465  12.323  0.0944 -0.0608 -0.0747
24050W        W42254  10.031   6.511  13.378 -0.1294 -0.3867 -0.2110
24051W        W42255   3.883   3.548  14.182  0.1187  0.0728  0.2754
24052W        W42256  10.356  12.812  14.130 -0.0531  0.1830 -0.0037
24053W        W42257  16.527  12.745   2.534  0.0851  0.0155  0.3052
24054W        W42258   3.820   3.295  13.771 -0.0237  0.2585 -0.1727
24055W        W42259  14.297  15.346  17.034 -0.0497 -0.2398 -0.2696
24056W        W42260   6.250  13.645   4.618 -0.1189 -0.0652  0.0663
24057W        W42261  12.351  11.405   1.746 -0.0405 -0.1453 -0.2327
24058W        W42262   3.839  10.602  13.789  0.0429 -0.0386  0.0032
24059W        W42263   4.036  16.811  17.012  0.1473  0.0111  0.1556
24060W        W42264  16.667   8.286  15.678  0.2006  0.1146  0.0345
24061W        W42265   6.575   7.335  15.705 -0.2406 -0.1394 -0.1432
24062W        W42266   6.941  14.365  15.318 -0.2607 -0.1887 -0.1328
24063W        W42267   7.206  16.942   2.522 -0.2313 -0.1214 -0.0939
24064W        W42268   0.632  10.464  13.619 -0.4489  0.1562 -0.1688
24065W        W42269   0.201   9.979   4.955  0.0213  0.2873 -0.2611
24066W        W42270   8.447   9.862   4.623 -0.0515 -0.0609 -0.2946
24067W        W42271   0.759  10.533   2.111  0.2378  0.0001 -0.0331
24068W        W42272   4.558  12.091   3.313 -0.0193  0.0213  0.2199
24069W        W42273   4.033  14.687   0.546 -0.1088  0.0525  0.1792
24070W        W42274  10.448   4.620   0.868 -0.2304  0.3554 -0.1336
24071W        W42275  15.334  14.781  11.994  0.1099  0.2082  0.1917
24072W        W42276   1.669   0.123  14.138 -0.0111 -0.0735 -0.0204
24073W        W42277   0.196  14.403   0.438  0.0685 -0.2662  0.2627
24074W        W42278   1.914   8.968  16.800  0.1792  0.2590 -0.3980
24075W        W42279  14.206   1.043   4.651  0.0479 -0.3203  0.0126
24076W        W42280  16.372   7.228   4.947 -0.1171 -0.2740 -0.0391
24077W        W42281  13.001   9.251   3.236 -0.1451  0.3391 -0.4008
24078W        W42282  14.786  14.028   2.443 -0.1194 -0.2847 -0.2118
24079W        W42283   9.221   0.106  15.320  0.1496  0.1263  0.1123
24080W        W42284  13.984   0.819   3.682  0.1621  0.1122 -0.3018
24081W        W42285   6.551  16.421   2.193  0.0095 -0.2140 -0.0057
24082W        W42286  15.649  10.836   4.191 -0.0679 -0.3195  0.0394
24083W        W42287  11.730   3.236  13.357 -0.0732 -0.0527  0.2682
24084W        W42288  15.648  13.051   0.680 -0.2637 -0.0408 -0.1168
24085W        W42289  13.219  11.740   4.264 -0.1451  0.5008 -0.1661
24086W        W42290   0.701  15.952   3.443 -0.1291 -0.1455 -0.0512
24087W        W42291  15.852   3.184   3.727  0.2138 -0.0948  0.3596
24088W        W42292  14.357  15.569   1.841  0.1220 -0.3180  0.0735
24089W        W42293   3.338  11.201  15.252 -0.1021 -0.0982 -0.2248
24090W        W42294   3.045   9.712  17.093  0.0534 -0.0161  0.2325
24091W        W42295   5.189   9.959   0.709  0.0951  0.0325  0.0403
24092W        W42296   1.232   1.604  13.613 -0.1473 -0.0136  0.1106
24093W        W42297  15.423  12.020  16.109 -0.1208 -0.1900 -0.2366
24094W        W42298   4.934  13.760   1.674 -0.4614 -0.0977 -0.0756
24095W        W42299   8.333  15.554  16.226  0.1532  0.0994 -0.0681
24096W        W42300  11.567   0.416   1.003  0.0278  0.1522 -0.0153
24097W        W42301  16.552  13.851  15.891  0.1062  0.0528 -0.2104
24098W        W42302   0.331   8.728  12.050 -0.2498  0.1518  0.0722
24099W        W42303   5.826   1.375  16.505  0.0882 -0.2350 -0.0323
24100W        W42304   2.359  17.327  17.093  0.1625 -0.0277 -0.1078
24101W        W42305  13.073   3.489  13.274  0.0574  0.1548  0.1005
24102W        W42306   6.341  10.882  15.316  0.2492  0.0505  0.2461
24103W        W42307   2.135  14.948  12.924  0.2257 -0.3432 -0.0871
24104W        W42308  15.201   1.119   0.767 -0.1723 -0.0318 -0.1702
24105W        W42309  10.924   3.713   5.575 -0.1480  0.3472  0.0815
24106W        W42310   0.203   2.565   4.702  0.1722  0.5709 -0.0963
24107W        W42311   3.189   7.714   1.512 -0.0578  0.1553 -0.1676
24108W        W42312  14.886   9.604   3.296 -0.1515  0.0432  0.0850
24109W        W42313  13.724   8.742   1.718 -0.1782  0.0824 -0.1077
24110W        W42314   2.250   1.391   0.283  0.0533  0.1062  0.4436
24111W        W42315   6.001   3.791   2.099  0.2238 -0.1169  0.1067
24112W        W42316   4.255   8.191  12.420  0.0389  0.0268 -0.2762
24113W        W42317  13.928   4.947  13.637  0.1214  0.2094  0.0401
24114W        W42318  11.154   3.893  14.972  0.0281  0.0962 -0.0206
24115W        W42319   0.580   7.259   4.035  0.2061 -0.1208  0.1888
24116W        W42320   6.164   7.485  16.573  0.3235 -0.1694  0.0771
24117W        W42321   9.494   1.692   0.028  0.2546 -0.2842 -0.0110
24118W        W42322  12.007   4.519  14.139 -0.0742  0.2422  0.0520
24119W        W42323  10.887  13.020  14.275  0.0805  0.2656 -0.1491
24120W        W42324   2.577   4.516   5.398 -0.0557  0.1312  0.1508
24121W        W42325   7.728   8.011   3.824 -0.1065  0.0127  0.2488
24122W        W42326  10.122  10.826   3.155 -0.0807  0.3714 -0.0700
24123W        W42327  10.834   1.798  12.344  0.1115  0.2358  0.2280
24124W        W42328   9.689   1.959   2.328 -0.1301  0.0162 -0.0291
24125W        W42329  12.524   5.930   0.523  0.3695 -0.3310 -0.0817
24126W        W42330   7.631   3.971   4.150 -0.2817  0.1065  0.2266
24127W        W42331   6.335   2.470  12.600  0.3511 -0.1339 -0.1803
24128W        W42332   2.613   3.045  13.828 -0.1387  0.2006  0.1694
24129W        W42333  12.127  10.365   4.317  0.2590  0.0158  0.0354
24130W        W42334   1.191  14.821   4.443  0.0938  0.0773  0.2706
24131W        W42335   0.200  13.297  16.223  0.0635 -0.0105  0.0056
24132W        W42336  10.242   3.675   2.994  0.1991  0.3306  0.0127
24133W        W42337  15.229   2.690  13.438  0.0575  0.1180 -0.1510
24134W        W42338   6.268  15.890  16.818  0.0000  0.0144 -0.0256
24135W        W42339  15.937   7.331   1.026 -0.2137 -0.0116 -0.1789
24136W        W42340  10.311   7.468  15.680  0.0709 -0.1921 -0.2733
24137W        W42341   1.560   2.022   4.905 -0.2448  0.3383  0.0107
24138W        W42342  13.414  12.063   0.011  0.1162  0.2015  0.0990
24139W        W42343  17.399   0.409   5.052  0.1068  0.1243  0.0621
24140W        W42344   9.077  17.176  15.060 -0.0056 -0.1619 -0.1869
24141W        W42345   7.793   3.064  15.764 -0.0298  0.1901 -0.0825
24142W        W42346   8.033   2.720  16.087  0.1722 -0.3482 -0.0029
24143W        W42347   6.204  10.318   4.711  0.2027 -0.1539 -0.1423
24144W        W42348   0.500  12.218   0.789  0.0197  0.0985 -0.3757
24145W        W42349   7.066   8.980   0.972  0.0905  0.0829  0.2708
24146W        W42350   2.358  11.870  15.734  0.3116 -0.0177  0.3656
24147W        W42351  10.271   3.571  16.081  0.0805 -0.1791  0.0214
24148W        W42352   1.073   7.843  14.013  0.0967  0.2432  0.1394
24149W        W42353  16.185  14.232   1.919 -0.1368 -0.1262  0.2538
24150W        W42354   6.030   5.185  16.059  0.0523 -0.1879 -0.2744
24151W        W42355   7.537  13.338  13.349 -0.0410  0.0029 -0.0117
24152W        W42356   4.710  13.249  15.951 -0.1784  0.0160 -0.3565
24153W        W42357   1.490  11.563  14.140  0.0063  0.0240  0.1729
24154W        W42358   0.663  16.467   4.237  0.0715 -0.1375  0.1675
24155W        W42359   6.658   9.762   3.663 -0.0084 -0.1864 -0.0731
24156W        W42360   9.700  16.595   1.917  0.2476  0.4958  0.0939
24157W        W42361   8.571  15.914  12.734  0.0746 -0.2040 -0.0169
24158W        W42362   2.532   5.394   4.330 -0.0275  0.0880 -0.1827
24159W        W42363  16.854  14.518  15.104  0.1614 -0.2490  0.2473
24160W        W42364   8.077   1.736  16.563 -0.1826  0.4190 -0.0360
24161W        W42365   9.827   8.172   4.339  0.5959  0.1817  0.2196
24162W        W42366  13.069  17.240  14.189 -0.1229 -0.3300 -0.0632
24163W        W42367  15.511  16.959   2.887 -0.0360  0.1331  0.0136
24164W        W42368  17.230  13.402  16.131 -0.0427 -0.0280 -0.3403
24165W        W42369  16.656   5.033  12.421 -0.0506 -0.2602  0.2661
24166W        W42370  16.258   3.437  13.207 -0.3179  0.1998  0.1757
24167W        W42371   5.409   8.873   1.019  0.2084 -0.0503  0.2366
24168W        W42372   1.797  13.836   4.928 -0.0635 -0.0497  0.0836
24169W        W42373   9.149   8.472   2.192 -0.0236 -0.1665  0.1720
24170W        W42374  10.831   5.663   3.682  0.1636 -0.1105 -0.2128
24171W        W42375  11.121   5.979  13.328 -0.0988 -0.1132  0.2157
24172W        W42376   5.775   6.145   1.299  0.1253  0.0266  0.0480
24173W        W42377  16.743  10.135   2.802 -0.3203  0.0680 -0.2758
24174W        W42378   8.099  13.891  13.047 -0.0326  0.3560 -0.2683
24175W        W42379   2.164  13.652   3.620  0.0006 -0.1954 -0.0959
24176W        W42380   5.638   1.339  12.100  0.1040 -0.0303 -0.2199
24177W        W42381   3.452   0.968   2.728  0.1745  0.0032 -0.0729
24178W        W42382   6.217   7.410   4.456  0.1173 -0.2132 -0.0143
24179W        W42383  11.111   6.543  17.126 -0.0024  0.3599 -0.1468
24180W        W42384   1.151   9.846   3.183  0.2216  0.1763  0.0075
24181W        W42385  11.015  17.019   3.917 -0.0673  0.0938  0.0852
24182W        W42386  11.294  11.798  13.865 -0.1151  0.1352  0.0096
24183W        W42387  15.831  12.231   2.982 -0.0881  0.1469  0.0425
24184W        W42388   7.069  15.751  14.393 -0.0956 -0.5600  0.1500
24185W        W42389   4.909   8.274  16.216  0.3578  0.0729  0.1297
24186W        W42390  12.420  15.147   2.720 -0.2054  0.0424  0.1025
24187W        W42391  12.367   0.430  17.148 -0.1331 -0.1045 -0.0692
24188W        W42392   9.785   7.753  16.587 -0.0267 -0.2501 -0.0012
24189W        W42393  14.992   8.789   3.094  0.0618 -0.0045  0.1290
24190W        W42394  11.124  10.538  15.471 -0.0340 -0.0023 -0.2265
24191W        W42395  16.051   0.003   5.009 -0.0439  0.0333 -0.2349
24192W        W42396   7.544   4.415   5.297  0.0282  0.0872 -0.0653
24193W        W42397  13.764   2.029   2.671  0.0395 -0.0863 -0.0319
24194W        W42398  17.132   4.842   5.239 -0.0515 -0.0598 -0.1077
24195W        W42399  12.197  12.451  11.831  0.1875  0.1522 -0.0599
24196W        W42400  13.533   4.571  16.962 -0.1829 -0.0917  0.0352
24197W        W42401   0.854  16.639  16.504 -0.0527  0.1298  0.1784
24198W        W42402  15.722   4.195   1.836 -0.2664 -0.1658 -0.0067
24199W        W42403   7.768  10.325   3.239  0.1421  0.0566  0.0770
24200W        W42404   7.080   4.511   5.086 -0.1007  0.2251 -0.2838
24201W        W42405   2.198   4.876   0.701  0.0977  0.0817 -0.0990
24202W        W42406  11.997  14.328   4.112  0.0863 -0.5199 -0.0698
24203W        W42407  13.660   3.229   2.152 -0.0348 -0.0536 -0.2760
24204W        W42408  16.542  14.639  15.563 -0.0264  0.2088 -0.2036
24205W        W42409  14.384  12.263   4.120  0.2143  0.1150  0.0710
24206W        W42410  10.691   2.076   1.782 -0.1057 -0.2084 -0.1003
24207W        W42411  15.331  14.073  12.379 -0.0978  0.0185  0.2642
24208W        W42412   8.212   5.800  14.500 -0.0883 -0.1467  0.2728
24209W        W42413  15.307   1.813  15.111 -0.2067 -0.1186  0.0070
24210W        W42414   0.769  12.439   2.628  0.1364 -0.1310 -0.2380
24211W        W42415   8.361  15.043   5.101  0.3314  0.0435 -0.2710
24212W        W42416  12.866   2.958   0.638  0.2511  0.0184 -0.2897
24213W        W42417   0.303  13.429   5.218 -0.4535  0.2922  0.1116
24214W        W42418   7.116   3.936   4.006  0.2869  0.3629  0.0040
24215W        W42419  12.469  15.005   0.541 -0.4592 -0.2518  0.0907
24216W        W42420  10.274   1.863  15.648 -0.2799 -0.0014  0.0346
24217W        W42421  12.233   1.435  14.256  0.2239  0.0181  0.1448
24218W        W42422   5.458   2.767   3.780 -0.4464  0.0437 -0.1740
24219W        W42423   0.012  16.418   3.741 -0.0039  0.1486  0.2254
24220W        W42424   1.147   7.408   4.882  0.0813  0.3023  0.2761
24221W        W42425   5.021   8.378  12.069 -0.0105 -0.1083 -0.0383
24222W        W42426   1.788   6.180  16.456  0.0716  0.2029 -0.3647
24223W        W42427  14.936  16.041   5.173 -0.0416 -0.1356  0.2592
24224W        W42428  12.598   2.360  15.577  0.0903  0.1577  0.3143
24225W        W42429   4.279  15.873   3.422  0.1655 -0.1479  0.0216
24226W        W42430   6.994  16.144  15.929 -0.2534 -0.0158  0.1285
24227W        W42431   6.962  10.649   0.080 -0.0927  0.5487  0.2576
24228W        W42432  15.820  16.829  17.035 -0.2770  0.2030  0.0169
24229W        W42433   0.899  11.220  13.145  0.0510 -0.2202 -0.2227
24230W        W42434   6.110  15.513   4.417 -0.0318 -0.1854  0.2624
24231W        W42435  16.660  10.097  15.589 -0.0242 -0.0231 -0.0611
24232W        W42436   8.323  14.717  13.539  0.1016  0.0826  0.3675
24233W        W42437   4.672  14.573   2.769 -0.1672  0.0668  0.0354
24234W        W42438   4.298   8.777  13.983 -0.2759  0.2091 -0.0731
24235W        W42439   6.122  11.189  16.539 -0.0532  0.3200  0.0893
24236W        W42440  14.163   0.509  15.073  0.0652 -0.1391  0.1037
24237W        W42441   4.532  15.396   1.904  0.1866  0.0853  0.1092
24238W        W42442   2.672   9.856   3.118  0.0666 -0.2027 -0.0530
24239W        W42443  11.620  11.325   3.225 -0.1765 -0.0979  0.1105
24240W        W42444   5.838   3.830   2.733 -0.1690 -0.4869 -0.1212
24241W        W42445   0.842  12.449  10.752 -0.1791 -0.1219 -0.2498
24242W        W42446  11.662   2.091   1.935 -0.2237 -0.0493 -0.2069
24243W        W42447  10.583  11.522   1.015  0.0026  0.1327  0.1378
24244W        W42448   0.522   2.510  14.786  0.0449 -0.0447  0.0839
24245W        W42449   0.875   1.157   1.205 -0.0679  0.4227  0.0766
24246W        W42450  13.825  14.144   3.090 -0.1587  0.3553 -0.0888
24247W        W42451   1.688   7.883   1.895  0.0423  0.0117 -0.0238
24248W        W42452   6.002   0.167   3.691  0.3052 -0.0540  0.2028
24249W        W42453  12.028  17.229   1.543  0.1017  0.1558 -0.0261
24250W        W42454  13.004   3.162   3.704 -0.1100  0.3552  0.1580
24251W        W42455   9.438   8.535   1.771 -0.0001  0.0635 -0.0960
24252W        W42456   4.180  17.109   3.663  0.1488  0.1774 -0.0789
24253W        W42457   1.914  14.379  13.493 -0.2108  0.0919  0.0374
24254W        W42458   3.341  14.155  15.487 -0.1692 -0.0510  0.0363
24255W        W42459   3.549   8.735   3.675  0.0506  0.0341 -0.2455
24256W        W42460   3.413   7.175  12.957  0.1283  0.0149  0.1625
24257W        W42461  11.924   4.082  14.376  0.0670  0.1498 -0.1789
24258W        W42462   0.843  13.080  13.578  0.0298  0.0740  0.1461
24259W        W42463   4.672  10.619  16.007 -0.1125  0.2176 -0.2473
24260W        W42464  13.482  12.472   2.766  0.3389  0.2101 -0.3067
24261W        W42465   9.465   1.565  16.453  0.1724 -0.0900 -0.0067
24262W        W42466  13.023   8.770  13.353 -0.2479  0.0617 -0.2846
24263W        W42467  10.127  14.278  14.763  0.1798 -0.1944  0.3200
24264W        W42468   4.817  17.176  17.215 -0.0832  0.2946  0.2550
24265W        W42469   8.053   3.391  13.821 -0.4066 -0.1962 -0.3193
24266W        W42470  11.427   8.198   0.670  0.0157 -0.1282  0.3511
24267W        W42471  13.437   4.438   4.805 -0.1201 -0.2293  0.0879
24268W        W42472  12.533  12.763  12.162  0.0756  0.3076 -0.1700
24269W        W42473   3.618  11.250   0.823 -0.3117  0.2995 -0.1848
24270W        W42474   6.649  11.040   3.812 -0.2505  0.0268  0.2473
24271W        W42475   3.508   4.703   5.064 -0.2281  0.0625  0.0289
24272W        W42476  10.621  14.984   4.471  0.2206 -0.3469  0.0565
24273W        W42477  10.995  15.839  17.246  0.3140 -0.0389 -0.0980
24274W        W42478   8.661   7.001   2.958  0.2656  0.0862 -0.1400
24275W        W42479  14.186   3.125   0.395  0.0166  0.3354  0.0694
24276W        W42480  11.839   7.628  15.792  0.0686  0.3452  0.0426
24277W        W42481  11.185   1.407  17.171 -0.3205  0.0093 -0.1167
24278W        W42482   3.801   7.503   4.887 -0.3870 -0.2919  0.1839
24279W        W42483   0.718  17.357   1.155  0.0668 -0.0176  0.1022
24280W        W42484  12.770  17.217   1.858 -0.2742  0.2394 -0.1314
24281W        W42485  15.915  16.489  12.281  0.1915  0.1303 -0.2388
24282W        W42486  17.280   7.442   3.145  0.0231 -0.0598 -0.3699
24283W        W42487  14.965   6.511   2.884  0.0562  0.1047  0.0137
24284W        W42488  14.477  15.326   0.507  0.2362 -0.1621  0.1439
24285W        W42489   3.148   0.983   2.285 -0.0945 -0.2713  0.0832
24286W        W42490   2.299   7.515   0.296 -0.3231  0.1766 -0.2607
24287W        W42491  10.554   5.416   3.050 -0.0381  0.2079  0.1917
24288W        W42492   1.684   6.033  17.002 -0.0642  0.0282  0.0440
24289W        W42493  15.765  12.632   3.306  0.1148  0.0179  0.0563
24290W        W42494   2.103   1.595  15.244 -0.1182  0.2184  0.0294
24291W        W42495   7.227   2.804   2.240  0.1179 -0.1934 -0.0409
24292W        W42496  10.744   6.580   4.617  0.1169 -0.1917 -0.1517
24293W        W42497  10.606   7.428   1.738 -0.0491  0.0258  0.1428
24294W        W42498  17.316  16.446  17.106 -0.2406 -0.1178  0.0859
24295W        W42499   6.314  17.183   5.059  0.0726  0.0336 -0.0799
24296W        W42500  10.339  16.014   0.938 -0.0607 -0.3728  0.1822
24297W        W42501   5.816   4.217  15.975  0.2488 -0.1018 -0.0381
24298W        W42502  10.184  12.845   2.446 -0.2510  0.1324 -0.1845
24299W        W42503  13.481   6.346  12.248 -0.0472  0.0059  0.1181
24300W        W42504  15.755  12.699   2.731  0.1201 -0.0372  0.3799
24301W        W42505  10.704   1.621  16.786  0.0550  0.0557  0.0827
24302W        W42506  16.085   3.016  13.070 -0.0925  0.0471  0.0759
24303W        W42507   0.481   7.185  13.950 -0.1434  0.0383  0.0361
24304W        W42508   3.703  14.516  14.278 -0.0603 -0.0175  0.0459
24305W        W42509   9.467  14.170   2.495 -0.0318  0.2116  0.2119
24306W        W42510  14.600   1.456  14.683 -0.1096 -0.0339 -0.3780
24307W        W42511  12.516  12.917   4.391  0.0538  0.0973 -0.4606
24308W        W42512   7.015   8.694  11.818  0.0369 -0.0864  0.1766
24309W        W42513   2.717  17.332  14.522 -0.0264 -0.5834  0.1335
24310W        W42514   7.948   1.830   0.859 -0.0054 -0.1538  0.1228
24311W        W42515  11.614   0.034   5.178  0.1491  0.1614  0.2185
24312W        W42516  14.743   3.164  14.267  0.1754 -0.1640  0.2625
24313W        W42517   6.799   8.537   0.594 -0.0201 -0.2428 -0.2225
24314W        W42518  15.724   9.258   0.136  0.2543  0.0279 -0.3048
24315W        W42519  16.678   1.996   5.329  0.0216 -0.2085  0.0153
24316W        W42520  16.736   9.761   0.085  0.2579 -0.3647 -0.1953
24317W        W42521  16.835   9.248   1.879  0.0212 -0.1309  0.2177
24318W        W42522  13.426  11.019  15.859 -0.2540 -0.0813 -0.1007
24319W        W42523   7.947  12.091   0.851  0.4261 -0.1197  0.0825
24320W        W42524  16.266  14.407   4.009 -0.1417 -0.1632 -0.2133
24321W        W42525  15.158   1.591  16.079  0.0375  0.3205  0.0407
24322W        W42526   5.006  14.870   1.457  0.0732  0.1309 -0.5580
24323W        W42527  17.541   5.083  14.084  0.1317 -0.0076 -0.0372
24324W        W42528  10.155   1.723  16.736 -0.2511 -0.1718 -0.0822
24325W        W42529  13.860   8.624  16.278 -0.1660 -0.0576 -0.2734
24326W        W42530  14.260  12.462  15.960  0.0931 -0.1837 -0.0533
24327W        W42531  17.146   0.998   3.222  0.3164  0.0959  0.3055
24328W        W42532   7.913   7.141  15.113  0.0812 -0.5146 -0.1266
24329W        W42533  12.250   1.680  12.002 -0.1484  0.0922  0.0211
24330W        W42534   6.948  12.732   5.362  0.3636 -0.0322 -0.0671
24331W        W42535  11.573   7.525   2.056  0.0530 -0.2712 -0.0620
24332W        W42536   5.509   2.071  13.244 -0.2077  0.1067 -0.3747
24333W        W42537   0.731  12.527   5.266 -0.0579  0.1881  0.1669
24334W        W42538   2.510   5.750   4.847  0.1034 -0.1204  0.2694
24335W        W42539   9.648  15.163  16.168  0.0065 -0.0446 -0.3170
24336W        W42540   7.909  10.030  16.267 -0.1794  0.3701  0.0418
24337W        W42541  14.568   3.805  13.504 -0.0391 -0.0434 -0.2315
24338W        W42542  11.467  13.816   0.237 -0.0877 -0.1542  0.0733
24339W        W42543   3.281  16.960  13.104  0.1254 -0.3359  0.3025
24340W        W42544   5.894   6.905  12.584  0.1388  0.1866  0.0809
24341W        W42545  16.387  10.635  13.859  0.1159  0.1485  0.1842
24342W        W42546   4.084   6.277   4.937 -0.0558  0.3624 -0.0947
24343W        W42547   2.634  12.420   4.878  0.3384  0.1805 -0.0080
24344W        W42548   5.067   5.676   5.273 -0.1225  0.0906  0.2320
24345W        W42549   2.654  12.270  15.469  0.2368 -0.1133 -0.0679
24346W        W42550   0.417   7.213  11.949 -0.2805  0.1365 -0.1959
24347W        W42551  15.469  10.598  11.028  0.0570 -0.5495 -0.1049
24348W        W42552   6.559  17.063   1.898 -0.0939 -0.0345  0.4951
24349W        W42553  13.630  12.057  16.486  0.0706  0.3278 -0.1267
24350W        W42554  10.728   6.070   4.391 -0.3815 -0.0860  0.0058
24351W        W42555  13.822  12.102  14.353  0.1186  0.0773 -0.1223
24352W        W42556   2.138  16.612   1.009  0.0580  0.1141 -0.0662
24353W        W42557  12.381   6.351   4.050  0.2555 -0.1027  0.2093
24354W        W42558  15.150   3.624   2.894 -0.1894 -0.0904  0.0598
24355W        W42559   9.272   0.972  12.538 -0.0482  0.0837 -0.1277
24356W        W42560   0.544  12.375  11.640  0.1295  0.2603 -0.2062
24357W        W42561   0.033   2.833  15.054 -0.1563 -0.1861  0.2133
24358W        W42562   3.895  11.412   3.374  0.1675  0.3254 -0.0359
24359W        W42563  17.532   0.333  13.899 -0.2112 -0.1967  0.0764
24360W        W42564   0.737   3.340   4.964  0.1778 -0.0935  0.0394
24361W        W42565   6.643   6.792  16.532  0.0355 -0.0394  0.3598
24362W        W42566  10.788  14.112   4.834  0.2614 -0.1667  0.1062
24363W        W42567   5.288   5.133  15.769  0.0341  0.2342  0.1990
24364W        W42568  16.280  15.523   3.703 -0.2547  0.0183 -0.0598
24365W        W42569   1.817  17.515  16.720  0.1218  0.4213 -0.1632
24366W        W42570  17.238   6.141   5.311 -0.0878 -0.2587 -0.0312
24367W        W42571   3.554   3.030  11.836 -0.2494 -0.1484  0.2309
24368W        W42572   2.954   5.818  17.199  0.0587 -0.1354  0.2539
24369W        W42573   7.010  12.736   4.448 -0.0940 -0.0178  0.3414
24370W        W42574   8.377  13.571   3.955  0.0785 -0.1377  0.0736
24371W        W42575  14.641  10.117  15.961 -0.4018  0.0932  0.1106
24372W        W42576  16.569   3.019   1.803 -0.2155  0.2907  0.0138
24373W        W42577   6.819   1.241   4.363 -0.1997  0.0053  0.1516
24374W        W42578   1.238  10.995  11.954  0.2162 -0.0999 -0.0989
24375W        W42579  14.854  15.283  14.404 -0.2112 -0.1826  0.2689
24376W        W42580  14.021  17.137   5.315  0.0264  0.3207  0.0009
24377W        W42581  16.798   3.074  14.465  0.0615  0.0259  0.2460
24378W        W42582   5.655   9.649  15.545  0.0179 -0.0228 -0.2381
24379W        W42583   3.352  16.437  13.009  0.1619 -0.0901 -0.0737
24380W        W42584   1.733   2.264  13.118  0.0186  0.0410 -0.1003
24381W        W42585  16.191   0.114  16.312 -0.1516  0.2308  0.0103
24382W        W42586   6.899  17.539   0.288  0.0759  0.2237 -0.2780
24383W        W42587  11.085  14.900   3.005  0.1500  0.0670 -0.0421
24384W        W42588   2.866   7.678  13.888  0.1448 -0.0872 -0.0484
24385W        W42589   1.163   9.929  13.234  0.0143  0.1055 -0.1385
24386W        W42590  10.174  12.106   5.174 -0.0758 -0.0182 -0.2769
24387W        W42591  15.388  17.014   3.442 -0.1570 -0.0010  0.1052
24388W        W42592  12.346  11.204   3.445 -0.3214 -0.1230  0.1972
24389W        W42593   3.109  15.814  17.008  0.2337  0.0215  0.2482
24390W        W42594   2.360   3.972   2.013 -0.1929 -0.1938  0.0774
24391W        W42595  11.276   3.868   2.804 -0.2480 -0.1625 -0.2171
24392W        W42596   1.999  12.846  14.176  0.2434  0.1256 -0.2338
24393W        W42597   7.920   5.677   4.626 -0.4783 -0.1531 -0.0220
24394W        W42598  11.319   8.663  15.051 -0.0579  0.2822  0.0863
24395W        W42599   2.506  14.364  15.567  0.1916 -0.0028 -0.1721
24396W        W42600  15.666  14.274  15.998 -0.2693 -0.0102 -0.1376
24397W        W42601  12.068   8.168  16.843  0.1567 -0.1935 -0.1583
24398W        W42602   5.006   1.759   4.396  0.0740  0.1710 -0.0219
24399W        W42603  10.148   3.098  16.331  0.0169 -0.0178  0.1127
24400W        W42604  13.056   1.465   5.178 -0.1363  0.2492 -0.3930
24401W        W42605   6.176  13.627   2.650  0.0718 -0.0782 -0.0313
24402W        W42606   7.942  15.387   0.180  0.0585 -0.0382  0.0399
24403W        W42607  14.326  14.516  12.425  0.2208  0.1121 -0.0591
24404W        W42608  12.962   7.015  16.911 -0.0434  0.1026  0.2203
24405W        W42609  16.933  16.602  13.907 -0.0463 -0.0139  0.2088
24406W        W42610  14.118  14.221   4.868  0.2486  0.0674 -0.0525
24407W        W42611  11.239  13.942  12.013 -0.1087  0.1164  0.2541
24408W        W42612   0.312  10.955  16.191  0.3092  0.0001 -0.0467
24409W        W42613   1.416   1.016   2.060 -0.0406 -0.0885  0.1980
24410W        W42614   4.097   3.071   2.215  0.2290 -0.1061  0.1922
24411W        W42615   1.133   5.049  14.865 -0.2039 -0.2176 -0.0279
24412W        W42616   8.502   2.674  13.426  0.3353 -0.0762 -0.1685
24413W        W42617   6.954  14.848  11.660 -0.2020 -0.0160  0.2624
24414W        W42618   2.230   0.546   2.467  0.0338 -0.3153 -0.0632
24415W        W42619  11.868   5.423   0.511  0.0756 -0.0589 -0.0450
24416W        W42620  17.084  17.127   4.361  0.0503 -0.1841 -0.1921
24417W        W42621   2.586   2.573  12.657 -0.2947 -0.1827 -0.0512
24418W        W42622   6.582   5.095  12.288 -0.0184  0.0437  0.0601
24419W        W42623  17.382  15.420   2.633  0.2765  0.1864 -0.3674
24420W        W42624   2.787   2.658   4.362  0.0823 -0.0483 -0.0368
24421W        W42625  11.652  12.463   2.228  0.1383  0.0591  0.1743
24422W        W42626   6.478   6.440  15.414  0.3986  0.4896  0.0564
24423W        W42627   1.039  13.483   4.471  0.1130  0.3894  0.2624
24424W        W42628   2.991  12.717   0.974  0.0892  0.0079  0.0582
24425W        W42629   3.986   0.130  14.219 -0.2247 -0.4172 -0.1522
24426W        W42630   1.049  13.249  16.483 -0.0543  0.2424 -0.0273
24427W        W42631  11.173   9.180   5.240  0.1234 -0.4050  0.2405
24428W        W42632   2.886  12.907  16.929  0.1883 -0.2517  0.2748
24429W        W42633   7.036  12.333  13.430  0.1092  0.0278 -0.1236
24430W        W42634  16.655  10.857   3.097 -0.0117 -0.0524 -0.0048
24431W        W42635  17.535   5.688  14.829 -0.0075 -0.3555  0.1522
24432W        W42636   5.936  11.034  16.082  0.0316  0.2553  0.0894
24433W        W42637  14.586  12.845   3.368  0.0964 -0.1662  0.1796
24434W        W42638   6.334   6.735  12.434  0.1042 -0.0637  0.0708
24435W        W42639  11.033   1.476  15.466 -0.1570  0.0011  0.2802
24436W        W42640   4.839   2.701   0.954 -0.0397 -0.4258  0.3385
24437W        W42641   8.479   1.567  12.757  0.2574  0.2793 -0.0750
24438W        W42642  11.413  12.854   0.196  0.2082 -0.0849  0.0293
24439W        W42643  11.391   5.447  15.311 -0.1675  0.0327  0.1626
24440W        W42644   5.086   9.510  12.971 -0.1245 -0.1245  0.0229
24441W        W42645   3.898   2.123   2.369 -0.2078  0.2310  0.0071
24442W        W42646  14.399  12.905  15.324 -0.0207 -0.1074 -0.0217
24443W        W42647  14.870  10.585   1.127 -0.1086 -0.0649  0.0141
24444W        W42648  10.052  12.008  15.531 -0.2320 -0.3917  0.3673
24445W        W42649   2.369  11.853   1.180 -0.2361 -0.4337  0.2903
24446W        W42650   3.464   1.920   2.141  0.1286  0.0443  0.1809
24447W        W42651   6.261   6.447  13.470 -0.2650 -0.6655 -0.0167
24448W        W42652   9.218  15.800   3.593  0.1482 -0.5555  0.0189
24449W        W42653  11.301   7.039   5.302  0.0164 -0.0635  0.0510
24450W        W42654  11.193  16.150   5.014  0.1049  0.2799 -0.1676
24451W        W42655   6.813  12.286  13.999  0.0045 -0.0908  0.1007
24452W        W42656  11.294  10.554   2.117  0.0998  0.2801 -0.2671
24453W        W42657  13.934  16.672  13.312  0.1021 -0.1720 -0.4346
24454W        W42658  10.574   2.029  13.974  0.2193  0.1327 -0.3528
24455W        W42659  12.656   0.352   0.676 -0.4201  0.1262 -0.0980
24456W        W42660   0.080   4.310   3.790 -0.0977 -0.2388 -0.0810
24457W        W42661   2.898  16.287   4.709  0.2447 -0.2605  0.0106
24458W        W42662  15.264  15.003   2.738 -0.1401  0.2395 -0.1949
24459W        W42663  10.848  14.707  11.963  0.0272 -0.1233  0.0758
24460W        W42664   6.573   5.223   0.181  0.1554 -0.2594 -0.3503
24461W        W42665   9.988   6.741  15.990 -0.1037  0.2558  0.0353
24462W        W42666  11.591   5.643   3.442 -0.0110  0.2308  0.0453
24463W        W42667   7.441  15.428  12.130 -0.3168  0.2333  0.1917
24464W        W42668   7.202  10.425  15.256 -0.3396 -0.3375  0.1149
24465W        W42669  15.717  13.108   1.426 -0.0544  0.0898  0.2359
24466W        W42670   9.943  13.234   4.584 -0.0279 -0.0903  0.1238
24467W        W42671   5.594   9.488   3.669  0.3765  0.1293 -0.2054
24468W        W42672  17.042   6.688   1.639 -0.0726 -0.1082 -0.0482
24469W        W42673  11.640  14.741   4.796  0.0911 -0.0254 -0.1233
24470W        W42674   5.679  10.897   0.165  0.2137  0.1009  0.4008
24471W        W42675   5.761   1.148   1.411 -0.0673 -0.1031  0.0950
24472W        W42676   0.780   8.186  14.853 -0.0402 -0.5169 -0.0933
24473W        W42677   2.531   0.276   4.342  0.3026 -0.0017 -0.0618
24474W        W42678   8.773  12.816   5.109 -0.0030 -0.1462  0.1751
24475W        W42679   5.902   6.536   4.826 -0.2873  0.1270 -0.0691
24476W        W42680   9.726   4.248   1.652 -0.1044 -0.2103  0.2362
24477W        W42681   0.043  14.038   5.740 -0.2230 -0.1237 -0.0593
24478W        W42682   3.610  12.420   0.207  0.0569  0.1551 -0.3171
24479W        W42683   5.751   4.954   1.541  0.0167  0.0982 -0.1983
24480W        W42684   1.872  13.335  12.506 -0.1782 -0.2180  0.0873
24481W        W42685  15.075   7.602   3.179  0.2520  0.1180  0.0413
24482W        W42686  10.253  14.913   3.171 -0.2204  0.2340  0.3852
24483W        W42687   4.188   6.486  16.776  0.1840 -0.1966  0.1303
24484W        W42688   2.938   1.522  15.660 -0.1354 -0.0247 -0.0098
24485W        W42689   3.439   2.944   1.004 -0.1325 -0.0065  0.2514
24486W        W42690  16.485   1.332  13.994  0.2130  0.1424  0.0384
24487W        W42691   9.958   9.408   4.696  0.1812 -0.0550 -0.3513
24488W        W42692  10.323   2.402   3.038 -0.0896  0.0212  0.0826
24489W        W42693  14.780   2.818  14.700  0.0754  0.4738 -0.1136
24490W        W42694   2.397  12.406  12.339 -0.1578  0.0342  0.1710
24491W        W42695   0.403   1.136  12.205 -0.0840  0.2405 -0.0536
24492W        W42696   3.291   5.941   3.867 -0.2435  0.0896  0.0906
24493W        W42697   1.522   1.368   3.552  0.1385  0.0376  0.2796
24494W        W42698  11.232   2.528  15.213  0.1610 -0.2375 -0.1857
24495W        W42699   0.626   9.542  12.571 -0.1357 -0.3822 -0.0788
24496W        W42700  15.191   1.943   5.094  0.3299  0.1257  0.1111
24497W        W42701   5.609   8.909   2.048  0.0756  0.0652  0.4363
24498W        W42702   5.764  14.899   2.751 -0.1925 -0.3122 -0.2735
24499W        W42703  17.444  14.723  17.183  0.0011  0.2692  0.5015
24500W        W42704   0.459  12.944   4.004 -0.0334 -0.1831 -0.0355
24501W        W42705  12.001   3.042  15.509 -0.2351 -0.4168 -0.1895
24502W        W42706  15.698   2.912  13.816 -0.0596  0.1428 -0.3667
24503W        W42707   0.028  16.085   1.693  0.0762  0.2416 -0.0734
24504W        W42708  11.683  10.652   2.414  0.2253 -0.0469 -0.4331
24505W        W42709   3.500  14.899   4.936 -0.0402 -0.0376  0.5922
24506W        W42710  13.789   3.189  16.139 -0.0848  0.2474 -0.4561
24507W        W42711  13.271   4.817   3.487 -0.2461 -0.2875  0.0618
24508W        W42712  15.489   0.391  15.696 -0.1123 -0.0799 -0.0805
24509W        W42713  17.195  15.999  16.353  0.1090 -0.2058 -0.2409
24510W        W42714   2.882  15.654   5.171  0.3022 -0.1278 -0.1794
24511W        W42715   6.547   4.494  16.577 -0.0264 -0.1171 -0.4648
24512W        W42716   6.985   7.570   3.865  0.1186  0.2834 -0.0829
24513W        W42717  15.996   3.038  15.008 -0.3077  0.0168 -0.2874
24514W        W42718   6.609   1.478  16.901  0.0486 -0.0315 -0.3539
24515W        W42719  13.938   4.687   5.340 -0.2424  0.3816  0.1345
24516W        W42720   8.079  14.760  17.214  0.1276  0.0522  0.0056
24517W        W42721   2.506  10.574   1.867 -0.2690 -0.2386  0.3785
24518W        W42722  16.040  16.428  16.836 -0.1880 -0.0190 -0.1885
24519W        W42723   8.287   1.105  14.451  0.1842 -0.4500 -0.1131
24520W        W42724   1.714  16.563   1.388 -0.0818 -0.2012 -0.1493
24521W        W42725   6.030   1.117  14.224  0.1555 -0.1416  0.1075
24522W        W42726   5.775  13.882   2.368 -0.1222 -0.0098 -0.2368
24523W        W42727   3.977  17.426  15.103  0.0896 -0.2209  0.0258
24524W        W42728   7.658  15.900  12.138  0.0381 -0.1430  0.0863
24525W        W42729  15.683   2.021   3.148  0.0266  0.1606  0.4534
24526W        W42730  15.882   6.206   5.128  0.0309 -0.2387 -0.0779
24527W        W42731   2.939   3.236   1.051 -0.0203  0.1433 -0.0144
24528W        W42732   2.550  13.251  13.261 -0.0207 -0.1591  0.0553
24529W        W42733  12.104   5.598   4.480 -0.0448  0.1815  0.0164
24530W        W42734   8.601  11.102  15.932  0.1653  0.0674 -0.3136
24531W        W42735   5.873  10.911  13.721  0.1496 -0.3460 -0.0048
24532W        W42736   4.500   3.874  17.223 -0.2204 -0.0153  0.2378
24533W        W42737  15.477   6.941  12.977  0.1510 -0.2613  0.0076
24534W        W42738   1.014   2.000   0.118 -0.2288 -0.2592 -0.0059
24535W        W42739   6.513   5.965  12.024  0.3732 -0.2779 -0.3575
24536W        W42740   4.860  13.069  12.467 -0.0512 -0.0264 -0.0423
24537W        W42741  13.877   6.412  16.011 -0.3086  0.2341 -0.1154
24538W        W42742   5.137   8.648  14.912  0.2176  0.0868  0.1882
24539W        W42743  14.176   9.027  12.786 -0.0190  0.2792  0.1188
24540W        W42744   6.690   4.428   2.872 -0.1653  0.1997  0.2765
24541W        W42745   4.024   0.875   4.773  0.1110 -0.1792 -0.0194
24542W        W42746   8.249   9.689  14.395 -0.0102  0.0097 -0.0308
24543W        W42747  16.369  11.413  16.447 -0.0899  0.1517  0.0171
24544W        W42748   4.973  10.166   4.822 -0.1241  0.0604 -0.1201
24545W        W42749   3.558  14.598   2.230  0.0502  0.0640 -0.1684
24546W        W42750   7.234   4.515  12.804 -0.0255 -0.0481 -0.1909
24547W        W42751  16.838  16.020   0.021 -0.3163 -0.2639 -0.2755
24548W        W42752  16.315  11.285   1.399 -0.1074 -0.3251  0.0469
24549W        W42753  10.387  16.067   2.112  0.0974  0.1915  0.4344
24550W        W42754   8.155  17.422   4.761 -0.1041 -0.1129 -0.1738
24551W        W42755  13.200  15.870  13.246  0.0871 -0.2902  0.0870
24552W        W42756  16.592  10.046   5.183 -0.0428  0.0060 -0.2052
24553W        W42757   4.956   0.288  16.001 -0.5655 -0.2082 -0.0856
24554W        W42758  14.671  13.294  14.590  0.0757  0.1124  0.1304
24555W        W42759   1.647   0.554   3.331  0.0070 -0.0493 -0.0636
24556W        W42760   4.443   4.338  14.906  0.1465  0.0209  0.1831
24557W        W42761  10.203  16.025  16.731 -0.0816 -0.0217  0.2582
24558W        W42762  16.898   4.197   2.719 -0.0706 -0.0178 -0.2390
24559W        W42763   8.951  13.786  14.967  0.0509 -0.2462 -0.4121
24560W        W42764   0.443  15.568   1.143  0.0048 -0.3195  0.0294
24561W        W42765  13.812   9.008  12.364 -0.4112 -0.0413 -0.1029
24562W        W42766   2.853   6.413   0.810  0.0593 -0.1620 -0.2559
24563W        W42767  16.636  17.321  13.341  0.0328 -0.3696  0.0161
24564W        W42768  16.024  14.757   3.129  0.0453  0.2377 -0.3081
24565W        W42769   1.891   0.635  16.778  0.2391 -0.1217  0.1294
24566W        W42770  11.084   5.897  14.722 -0.2883 -0.2695  0.0222
24567W        W42771  16.000  13.137  15.628  0.0763  0.0352 -0.3406
24568W        W42772  16.077  15.834  16.419  0.0775 -0.2321 -0.0693
24569W        W42773   0.585   1.903   2.453  0.2000  0.4161  0.1655
24570W        W42774  14.572  15.813  16.179  0.2137 -0.0087  0.0549
24571W        W42775   4.044  13.542   3.581 -0.0198 -0.0378 -0.2020
24572W        W42776  17.000   9.046  16.720  0.1097  0.1238  0.0542
24573W        W42777   9.833  14.511   2.994 -0.0397  0.0118  0.0301
24574W        W42778   2.257   4.803   4.988  0.1239 -0.1585 -0.1450
24575W        W42779   5.247  14.567  15.254  0.2549 -0.1378  0.0649
24576W        W42780   6.282   2.036  16.166  0.0284  0.0251 -0.0702
24577W        W42781   5.991  14.279  16.757 -0.2055  0.1090 -0.0839
24578W        W42782  12.223   6.098  14.883 -0.0448  0.1116 -0.0123
24579W        W42783   8.440  16.042   1.750 -0.1688 -0.1074 -0.0626
24580W        W42784  14.909  13.317  14.071 -0.0542  0.1932  0.3524
24581W        W42785  16.227   8.758  12.484 -0.2481 -0.0429 -0.2706
24582W        W42786  10.423  16.810  12.696 -0.2255 -0.1415  0.1077
24583W        W42787   2.775  16.101   2.521 -0.1402  0.0614 -0.4589
24584W        W42788   7.384  13.518  11.895 -0.1125  0.0628 -0.1763
24585W        W42789  13.854   9.475   0.554 -0.0807 -0.0356 -0.0931
24586W        W42790  11.164   0.115  11.981 -0.1641  0.3023  0.2323
24587W        W42791   7.295   2.923  14.007  0.1155  0.0479  0.0039
24588W        W42792   8.802  16.634  16.327 -0.0255 -0.0402 -0.1078
24589W        W42793   9.917  12.206  17.096 -0.0652 -0.2568 -0.1105
24590W        W42794  16.697  13.083  14.197 -0.0971  0.3155 -0.1256
24591W        W42795  10.363   6.645  14.457 -0.1789  0.2503  0.0528
24592W        W42796   8.933  10.992  15.455 -0.1152  0.2521 -0.2702
24593W        W42797   8.762  17.148   4.093 -0.1559 -0.1258  0.0069
24594W        W42798  16.440   8.931   0.296 -0.1566 -0.0249 -0.1172
24595W        W42799  16.268   2.528  16.360  0.1089  0.0663 -0.0622
24596W        W42800   2.893   2.775  16.311 -0.0753  0.1083 -0.1152
24597W        W42801   7.687   8.043   4.927  0.0769 -0.1329 -0.1939
24598W        W42802   1.704   0.899  13.244 -0.0491 -0.0534  0.0791
24599W        W42803   1.990   2.292   1.503 -0.1709  0.1135 -0.0488
24600W        W42804  14.516   7.842  14.743 -0.3359 -0.2864  0.0240
24601W        W42805   8.125  10.027  13.845  0.1676 -0.0377  0.2952
24602W        W42806  17.223  15.516   4.695 -0.1433 -0.1636 -0.2906
24603W        W42807  17.184   4.767  15.653  0.1249  0.2774 -0.0010
24604W        W42808   6.297  15.471  12.531 -0.0445 -0.2562  0.0127
24605W        W42809  14.471   3.449  15.093  0.1982  0.1002  0.0024
24606W        W42810   1.467   1.380   4.032  0.0318 -0.0165  0.1873
24607W        W42811   5.983  12.593   4.592  0.0008  0.1303 -0.2043
24608W        W42812  14.278   2.587  15.368 -0.2696 -0.1636 -0.1195
24609W        W42813  16.405  14.521  12.562  0.3259  0.1870 -0.1718
24610W        W42814   9.794  13.952  14.433  0.2278 -0.2735 -0.1187
24611W        W42815   0.455  12.884   0.274  0.0053 -0.4000  0.0201
24612W        W42816   3.836   2.905   2.856 -0.1163 -0.1407  0.0363
24613W        W42817  15.358   9.206  11.075 -0.1234 -0.0517  0.1607
24614W        W42818  15.352  11.540  14.439  0.0403  0.4314  0.0400
24615W        W42819   7.993  17.513  13.540  0.2356 -0.3817  0.1605
24616W        W42820  11.888   4.025   5.603 -0.3360 -0.0581  0.1241
24617W        W42821   1.621   8.723   4.322  0.0490  0.1004  0.0068
24618W        W42822   6.015  12.985   1.207 -0.0196  0.2074  0.1805
24619W        W42823  10.945  10.706   4.197  0.0602  0.1731 -0.0131
24620W        W42824   4.016   0.661   0.031 -0.4782  0.0159 -0.2202
24621W        W42825   0.088   1.619   1.984 -0.1068 -0.0796 -0.2886
24622W        W42826  15.246   7.806   0.260 -0.1400  0.1164  0.1280
24623W        W42827   4.055  15.163   0.538  0.2006  0.1823  0.0139
24624W        W42828   4.280   4.326  15.385  0.1867 -0.2194  0.1518
24625W        W42829   7.955   9.175   0.852  0.1077  0.0570  0.0701
24626W        W42830   7.212   8.100  12.814  0.0006  0.3734  0.0014
24627W        W42831   9.253   2.057  13.169 -0.2249  0.0896  0.1234
24628W        W42832   3.809   6.531   4.589  0.1556 -0.2639  0.2245
24629W        W42833  11.749   5.334   2.059  0.2138  0.0539  0.0761
24630W        W42834   0.495  14.509   3.188  0.1375  0.0961 -0.0129
24631W        W42835   0.437   3.523  13.905 -0.1322 -0.1226 -0.0758
24632W        W42836  15.302   9.682   1.339  0.3333  0.2249 -0.0562
24633W        W42837  16.965  16.805  14.405 -0.0349  0.5507  0.2525
24634W        W42838   6.735  10.539  12.600 -0.1099 -0.0398  0.2671
24635W        W42839   8.544  14.927   0.326  0.2799 -0.1416 -0.0794
24636W        W42840   0.316   2.659   3.490  0.1716 -0.1267  0.0655
24637W        W42841   3.074   9.791   1.098 -0.0497 -0.1360  0.0261
24638W        W42842  11.497   6.107  16.402  0.2510  0.2986  0.0018
24639W        W42843  11.022  10.369  14.804 -0.0327  0.4250  0.2406
24640W        W42844  11.863   7.740  12.003  0.2731  0.0788 -0.0212
24641W        W42845  10.430   6.534  11.888 -0.1693  0.1073  0.0779
24642W        W42846   9.684   0.581   4.180 -0.0538  0.2022  0.1375
24643W        W42847   7.098   0.211  13.039 -0.2526  0.0676  0.1183
24644W        W42848   7.774   5.636  13.586 -0.0220 -0.0366  0.0352
24645W        W42849  10.045   1.392   0.729  0.1853 -0.1359  0.1989
24646W        W42850   3.719  13.148  17.234 -0.3905 -0.1525 -0.1704
24647W        W42851  12.083  15.010   4.745 -0.0663  0.0439 -0.3793
24648W        W42852  11.914   3.373   3.641 -0.2905 -0.0185 -0.0175
24649W        W42853  17.353   4.899   3.017  0.3444 -0.3270  0.1463
24650W        W42854   6.163   0.016   1.549  0.1128  0.2957  0.1448
24651W        W42855   0.782  17.455  14.657 -0.3522  0.2247  0.0011
24652W        W42856   6.113   1.929   1.609 -0.1905 -0.2329 -0.2647
24653W        W42857  16.431   2.693   5.981 -0.2567  0.1708 -0.0385
24654W        W42858  10.070   0.928  12.117 -0.0745 -0.0184 -0.0641
24655W        W42859  13.704   7.618  12.083  0.4135  0.3923  0.0829
24656W        W42860   0.061   7.949   5.028 -0.1313 -0.1728  0.0818
24657W        W42861   7.206   1.677  15.688 -0.3089 -0.0790  0.1472
24658W        W42862   8.335  12.922   2.405 -0.1835 -0.0609 -0.1344
24659W        W42863   9.155   8.749   0.484  0.2109  0.3144  0.0057
24660W        W42864   8.785  15.288  13.772  0.0014  0.1171  0.0437
24661W        W42865  14.160   8.330  13.911  0.2369  0.0974 -0.0588
24662W        W42866   7.371   5.717  17.196 -0.2327  0.2607 -0.2043
24663W        W42867   4.215   4.048  14.003 -0.0309 -0.0683  0.2164
24664W        W42868   9.967   7.248  16.729 -0.0944  0.0594  0.2615
24665W        W42869   3.817  16.121  16.725 -0.3030 -0.0387 -0.3649
24666W        W42870   2.918   0.997  16.868 -0.0764  0.1190 -0.0517
24667W        W42871  10.854   2.626   3.604  0.1888  0.3458 -0.5373
24668W        W42872   3.856  16.755   0.846 -0.2890 -0.0528 -0.0907
24669W        W42873   5.695  12.929   4.832  0.0320 -0.1027 -0.1299
24670W        W42874  12.745   4.372   0.779  0.1800  0.2581  0.2248
24671W        W42875   6.127   5.938  12.366 -0.1964  0.1332  0.1996
24672W        W42876  16.844  11.283  14.484  0.2060  0.1320 -0.0669
24673W        W42877  14.434   7.771   3.544  0.1927 -0.3454 -0.1374
24674W        W42878   6.564   2.484  14.552 -0.3377 -0.0014  0.3253
24675W        W42879   7.732   7.159  14.304 -0.1591 -0.1624 -0.0150
24676W        W42880   8.657  14.069   4.585 -0.0191 -0.0412 -0.0251
24677W        W42881  10.869  16.779  16.662 -0.0265  0.2980 -0.0784
24678W        W42882  11.560   2.147  15.262 -0.1184  0.0372 -0.0220
24679W        W42883   3.477   0.577   4.155  0.0745  0.5711  0.0631
24680W        W42884   8.593  12.835   0.016  0.0431  0.0666  0.1662
24681W        W42885   2.854   0.658   0.989 -0.1083  0.1056 -0.2487
24682W        W42886  13.494  12.214   5.012  0.1613  0.3623  0.1046
24683W        W42887  12.146  16.198  14.280  0.0892  0.0459  0.2028
24684W        W42888   7.541   2.838   0.882 -0.0580  0.1416 -0.0403
24685W        W42889  12.489  11.989  11.958 -0.3127  0.0858 -0.1314
24686W        W42890   7.605  10.198  13.133 -0.1862  0.0835  0.1098
24687W        W42891  10.545   2.280   3.470  0.0461  0.1028 -0.1019
24688W        W42892  17.252  15.905   2.568 -0.0925 -0.2185 -0.1185
24689W        W42893  11.925  13.467   4.405  0.4038  0.1786 -0.1495
24690W        W42894  12.795  15.989  14.941 -0.0861  0.1830  0.3293
24691W        W42895   5.805   4.930  14.634 -0.1165 -0.0389  0.0288
24692W        W42896   5.188  15.730  13.555 -0.0426  0.2261 -0.1787
24693W        W42897   7.054  16.600  12.025 -0.0199 -0.0870  0.1155
24694W        W42898   4.935   1.007   5.006 -0.4422  0.0921  0.2231
24695W        W42899  12.035   4.077  12.478 -0.1677  0.1510  0.0139
24696W        W42900   9.733   3.040   1.999 -0.1774  0.1331  0.0478
24697W        W42901  11.396   7.531  15.119  0.0043 -0.0063  0.0067
24698W        W42902  13.583   1.625  14.028  0.0652  0.0062  0.3149
24699W        W42903  13.630   9.375   3.939  0.2445  0.2824 -0.1335
24700W        W42904   5.333  16.964  13.647 -0.1482  0.6923 -0.0762
24701W        W42905  11.312   1.094  16.248 -0.0616 -0.0476  0.0151
24702W        W42906   7.966   8.849  13.016  0.0181  0.8833 -0.2538
24703W        W42907   5.410   0.842  12.046  0.1859  0.0819 -0.1739
24704W        W42908   1.147  14.339   4.205 -0.0398 -0.0662 -0.1136
24705W        W42909   5.153   9.171   1.840 -0.3689 -0.0037 -0.0790
24706W        W42910   0.122   0.939   0.520 -0.1389 -0.0413 -0.0322
24707W        W42911  16.726   6.861  13.303 -0.1680  0.0789 -0.1978
24708W        W42912   9.583  11.037   3.737  0.0271 -0.1884 -0.3209
24709W        W42913  17.381  16.501  14.039  0.1589  0.1629  0.2916
24710W        W42914  10.131   4.411  16.411 -0.5938 -0.1411 -0.1538
24711W        W42915   6.116   7.102   3.149 -0.2136  0.2057  0.1421
24712W        W42916   9.436  10.252  13.463 -0.0954 -0.1343 -0.1112
24713W        W42917   7.967   2.098   1.354 -0.1186 -0.0983  0.3459
24714W        W42918  13.403   7.090  14.249 -0.1510  0.1015  0.0158
24715W        W42919   1.930   0.866   2.192 -0.0544 -0.2602 -0.0818
24716W        W42920   4.924   9.407   2.327  0.1490  0.0932  0.3168
24717W        W42921   9.823   5.414   3.482  0.1837 -0.2465 -0.2959
24718W        W42922   7.036   3.155   3.522 -0.4602  0.1957 -0.2310
24719W        W42923  13.509   4.217  15.535 -0.1466  0.1194 -0.0601
24720W        W42924  15.050   8.771  16.972 -0.1564  0.1534  0.2066
24721W        W42925   2.835  11.969   6.100  0.0849  0.0408 -0.1192
24722W        W42926  12.108  16.932   4.229 -0.2542 -0.0579  0.0841
24723W        W42927  10.411   8.042  15.920 -0.0598  0.0876 -0.1051
24724W        W42928   9.228   3.574  16.977 -0.2612  0.0207  0.0383
24725W        W42929   2.923   8.512   4.465  0.1991  0.0347 -0.2196
24726W        W42930   8.194  12.173  15.392  0.2950 -0.3025  0.1123
24727W        W42931   4.024  11.120  16.480  0.0553 -0.1487 -0.0769
24728W        W42932  16.136  17.096   1.682 -0.0099  0.1135  0.1529
24729W        W42933   0.119  13.148  14.318 -0.0988  0.0241  0.0339
24730W        W42934   2.629  12.457   2.580 -0.0809 -0.2388 -0.1393
24731W        W42935  14.570  11.580  11.800 -0.1166 -0.1844 -0.2437
24732W        W42936  12.728   0.602  15.925 -0.2352 -0.0298 -0.3112
24733W        W42937  16.344   5.623   4.218  0.0909  0.1157  0.0420
24734W        W42938   6.709  13.091  14.754 -0.0907  0.1218 -0.1571
24735W        W42939   1.792  15.145  15.580 -0.0182 -0.2407 -0.2881
24736W        W42940   7.389  11.923   2.754 -0.1200 -0.2286  0.3485
24737W        W42941   2.491   5.822   0.143  0.4427  0.2698 -0.0907
24738W        W42942  13.411  13.252  13.485 -0.0191  0.0077 -0.1285
24739W        W42943  11.398  10.027  14.378  0.2600  0.1391  0.4591
24740W        W42944  11.007  15.488  12.238  0.0431  0.0154  0.3767
24741W        W42945   4.920  12.745   5.273  0.0352  0.0988 -0.0115
24742W        W42946   1.864  16.362  16.316 -0.0029 -0.2251  0.2927
24743W        W42947   8.042  11.600   2.122  0.4063  0.0619 -0.1228
24744W        W42948  11.873   0.828   2.150 -0.1045 -0.0072 -0.2473
24745W        W42949   9.804   1.977   1.866 -0.0927  0.1554  0.0848
24746W        W42950   2.417  12.955   1.374 -0.0729  0.0668  0.1739
24747W        W42951   7.731  10.657   0.835 -0.0834 -0.1888  0.2085
24748W        W42952   7.385   1.412   1.830  0.1219 -0.3880  0.0859
24749W        W42953  12.955   1.107  16.894 -0.0473  0.1197 -0.0804
24750W        W42954   6.473   1.542  14.435 -0.1615 -0.0944  0.1122
24751W        W42955  11.447  10.072   2.415  0.0531  0.1882  0.0278
24752W        W42956   1.492  13.785   0.919 -0.3385 -0.4085 -0.0359
24753W        W42957   6.107  11.817   2.979  0.1445  0.1098 -0.0253
24754W        W42958  11.229  13.431  10.626 -0.0645 -0.0467 -0.2745
24755W        W42959  14.419   9.465  16.823  0.0275 -0.0162  0.1815
24756W        W42960  14.358  17.170  14.476  0.1074 -0.3984  0.1749
24757W        W42961  16.985   8.929   2.634 -0.0029 -0.1255  0.0587
24758W        W42962   9.202  16.775   3.560  0.1766  0.0427 -0.0217
24759W        W42963  10.990   6.253  15.673  0.1175  0.3197  0.0143
24760W        W42964  14.632  14.112  12.546  0.0651  0.1464 -0.4009
24761W        W42965   8.970   0.556   3.724  0.2752  0.1165 -0.3985
24762W        W42966   7.437  14.688  13.416  0.1201  0.0903  0.0509
24763W        W42967  16.347   3.359   3.646 -0.2043  0.0115 -0.3591
24764W        W42968  15.972  14.565  15.685  0.1711 -0.1216  0.1809
24765W        W42969  13.201  10.519  15.881 -0.0087  0.0254 -0.2167
24766W        W42970  13.088  13.186   3.274  0.2163  0.5397 -0.1217
24767W        W42971   2.484   3.116   4.717  0.1278  0.0681 -0.0814
24768W        W42972   4.740   8.083   3.701  0.1094 -0.3922 -0.1019
24769W        W42973  11.010   2.932  12.407  0.1490 -0.0257  0.0585
24770W        W42974   6.327   3.142   4.971 -0.0101  0.0951 -0.2287
24771W        W42975   8.676   5.763  12.734  0.0623  0.1632  0.0741
24772W        W42976  12.452  14.305  14.502  0.1326 -0.0983  0.0377
24773W        W42977   8.969  13.946  16.690  0.0620  0.1134  0.3497
24774W        W42978   6.951  13.466   2.971 -0.1222 -0.2115 -0.1025
24775W        W42979   5.326   9.291   2.666  0.1732 -0.2372  0.0219
24776W        W42980   3.244  17.415  13.444 -0.2641 -0.3075 -0.3302
24777W        W42981   2.229   3.072  16.336  0.1775  0.3992 -0.1145
24778W        W42982  17.020  15.388  15.799 -0.0623  0.2424 -0.2089
24779W        W42983  12.810  11.552   4.890 -0.0816 -0.0909 -0.0439
24780W        W42984   9.869  15.082   4.060 -0.0728 -0.2071 -0.1107
24781W        W42985   1.665   2.825   5.068 -0.2071 -0.1258 -0.0292
24782W        W42986   9.612  14.266   3.366  0.2133 -0.2775  0.0211
24783W        W42987   8.513  17.413  13.790  0.2720  0.0073  0.2158
24784W        W42988  13.020   0.590   1.548 -0.1661  0.0024  0.1103
24785W        W42989  17.342   9.420   3.377 -0.0240  0.0991 -0.0247
24786W        W42990   9.055  12.509   4.856  0.1516  0.0437 -0.0119
24787W        W42991   6.618   5.882   1.614  0.0201  0.0186 -0.1031
24788W        W42992  13.226   8.789   3.011 -0.3533 -0.3591 -0.3247
24789W        W42993   4.768   5.341   0.325 -0.1702 -0.1240  0.0263
24790W        W42994   7.420  15.894  15.235  0.1882  0.0854  0.2579
24791W        W42995   6.809   8.277  12.073  0.1117  0.0200  0.2360
24792W        W42996   1.595   3.373  15.761  0.1378 -0.1894 -0.1610
24793W        W42997  12.357  13.118   0.006 -0.1380  0.0576  0.2043
24794W        W42998  12.570  12.229   4.722  0.0701  0.1809 -0.2190
24795W        W42999   9.400  15.857   4.650 -0.0867 -0.1131 -0.0902
24796W        W43000  13.085   6.315  15.228  0.0301 -0.1568 -0.0707
24797W        W43001   4.659   8.344  14.685 -0.3230 -0.2003 -0.0288
24798W        W43002  17.530  16.305  13.402  0.1077 -0.3156  0.1594
24799W        W43003  10.406   3.969   4.594 -0.0131  0.0096  0.2320
24800W        W43004   8.770   0.786   3.327  0.2446  0.0750  0.0693
24801W        W43005   6.878  12.034   2.511 -0.1849  0.5362  0.1684
24802W        W43006  11.175   5.310  15.769 -0.1814 -0.2874 -0.2692
24803W        W43007  12.585   9.500  15.450  0.1265 -0.1586 -0.0094
24804W        W43008  13.990   5.536  15.129  0.1139 -0.2568 -0.0785
24805W        W43009   3.775   0.161   2.314  0.2169  0.3499 -0.2217
24806W        W43010   4.113   6.326   1.840 -0.1059 -0.0045  0.0792
24807W        W43011   2.445   2.112  16.465 -0.1892 -0.1579 -0.0351
24808W        W43012   7.450  12.542  14.709  0.3691 -0.1546  0.0962
24809W        W43013  12.221   8.936   3.152 -0.0011  0.1911 -0.2004
24810W        W43014  16.612  14.354   2.197 -0.0537 -0.2308 -0.1420
24811W        W43015  12.642  13.918   1.144 -0.1096 -0.2427 -0.2482
24812W        W43016   7.983   0.660   0.746  0.0765  0.2258  0.0484
24813W        W43017   5.415   5.067   2.869 -0.2942 -0.2139  0.0490
24814W        W43018  16.734   6.164  14.117 -0.4294  0.4066 -0.0032
24815W        W43019  13.792   4.469   2.961 -0.0001 -0.1451 -0.0256
24816W        W43020   9.581  12.582  12.945 -0.1753 -0.0715  0.0997
24817W        W43021  12.966   1.579  16.730 -0.2321 -0.2090 -0.2326
24818W        W43022   9.884   0.167   4.402 -0.0036  0.0200 -0.0557
24819W        W43023   6.394   5.234  12.776  0.0609 -0.1984  0.0906
24820W        W43024   2.622  13.972   0.936  0.1240  0.1412 -0.1647
24821W        W43025   4.810   5.466  12.306 -0.3614 -0.0998  0.1881
24822W        W43026  14.988  17.335   4.622 -0.2648 -0.2829 -0.2604
24823W        W43027   3.419  11.741  13.885  0.2503 -0.5181  0.2534
24824W        W43028  15.654  17.060  15.751 -0.3001 -0.0605 -0.0190
24825W        W43029  10.598  16.385  15.292 -0.0408 -0.1288  0.0167
24826W        W43030  11.818  15.415   4.002 -0.0040 -0.1324 -0.0514
24827W        W43031   6.684  15.691   3.197 -0.3137  0.0715 -0.1432
24828W        W43032  16.980  16.993  13.165 -0.2408 -0.0635  0.1838
24829W        W43033  15.254  13.631  14.317 -0.2355  0.1372  0.0306
24830W        W43034   1.784   9.554   3.798 -0.1665  0.1116 -0.0967
24831W        W43035  16.608  11.430  14.982  0.0798 -0.2391  0.0063
24832W        W43036  16.233   6.202   3.500 -0.1312  0.0583 -0.4194
24833W        W43037  15.685   0.830   2.949 -0.2252 -0.1378 -0.0593
24834W        W43038  15.566   4.634  14.187  0.2109 -0.1366  0.2448
24835W        W43039  14.051   3.510  16.405 -0.0650 -0.2970 -0.0978
24836W        W43040   6.224   6.340  12.056  0.2048  0.2207 -0.2745
24837W        W43041  12.481   3.585  14.808 -0.2675  0.2458 -0.1866
24838W        W43042   0.951   9.056   4.857  0.0372 -0.1146 -0.3057
24839W        W43043   0.183   5.779  13.458 -0.5339  0.2334 -0.0167
24840W        W43044  15.028  11.460  12.024 -0.1300 -0.2088  0.1224
24841W        W43045   4.024   4.391  13.686  0.1095 -0.2326 -0.0940
24842W        W43046  14.038   8.170   4.070  0.1575  0.0851  0.1637
24843W        W43047   0.353   0.177   3.736  0.1631  0.0932  0.2667
24844W        W43048   0.680   4.716   0.710  0.1930  0.1665 -0.1217
24845W        W43049  13.950  13.964   5.387  0.0176  0.0793 -0.1199
24846W        W43050   8.854   6.377  13.169  0.1844  0.3031 -0.0498
24847W        W43051  17.421  11.830  11.768 -0.0362 -0.0515  0.1368
24848W        W43052  10.405   5.905   2.088 -0.0985  0.2018  0.1773
24849W        W43053  10.190  17.476   0.352 -0.3125  0.0942 -0.3146
24850W        W43054  10.646  11.514   1.504 -0.0511 -0.1101 -0.2830
24851W        W43055   0.385  15.641  13.147 -0.0351 -0.2152  0.0350
24852W        W43056   8.825   2.887  16.538 -0.0328 -0.1774 -0.1390
24853W        W43057   1.387   1.654  12.196  0.1821 -0.0591 -0.1023
24854W        W43058   7.289  13.897   2.980  0.2125 -0.1599  0.2444
24855W        W43059   8.419   9.975  15.201  0.0630 -0.0309  0.1190
24856W        W43060  15.326  17.464   0.029 -0.4384 -0.1384  0.1187
24857W        W43061   4.634   8.469  15.218 -0.3135 -0.0159 -0.0777
24858W        W43062  14.797   5.415  14.930  0.0269  0.3211  0.1703
24859W        W43063  15.655   7.599   3.106  0.1255 -0.0701  0.1023
24860W        W43064   7.206   8.141  15.806 -0.0009  0.1472  0.0364
24861W        W43065   8.710  12.570   0.408 -0.0232  0.2812 -0.0853
24862W        W43066   9.690   7.383  11.604  0.2059 -0.2422 -0.4157
24863W        W43067  14.738  15.939  12.163 -0.1069  0.1678  0.4275
24864W        W43068  10.516  11.662  14.394 -0.2917  0.1867 -0.1680
24865W        W43069  10.731   9.564  17.060  0.3409  0.1383  0.0671
24866W        W43070   9.731   8.849   0.994  0.1244 -0.1239 -0.1366
24867W        W43071  17.311   1.113  15.769  0.0640 -0.0058 -0.3011
24868W        W43072   0.152  11.026   4.524 -0.3023 -0.0207  0.3362
24869W        W43073   6.991   7.737  16.903 -0.0500  0.0754  0.0518
24870W        W43074  11.115   0.371   3.946  0.0502  0.1128 -0.2414
24871W        W43075  12.080  16.965  16.519 -0.0813 -0.0030  0.1162
24872W        W43076   1.301  13.426  14.251 -0.1055 -0.3498 -0.0665
24873W        W43077  15.561   9.384  12.136  0.0619  0.2072 -0.1046
24874W        W43078  10.539  11.043   2.894  0.2231  0.0152 -0.1211
24875W        W43079   3.987  10.239  16.615 -0.2278 -0.2663 -0.0477
24876W        W43080  12.789   4.112   1.245 -0.1952 -0.2439 -0.0740
24877W        W43081   4.574   2.856  13.697 -0.0716 -0.3057 -0.0665
24878W        W43082   7.685   4.050  15.324 -0.3057  0.0864  0.1302
24879W        W43083   8.967  16.500  13.852 -0.0681  0.1808  0.0169
24880W        W43084   6.019   9.622   4.339 -0.2168 -0.0995  0.0474
24881W        W43085   4.467   0.163  14.349  0.3000  0.5033 -0.0852
24882W        W43086  17.079   4.532  12.842 -0.0888  0.0734 -0.1795
24883W        W43087  13.282   9.580  12.724  0.0403  0.1068 -0.2373
24884W        W43088  13.223   2.561  16.825  0.2156  0.1891  0.1470
24885W        W43089   0.259   1.176  15.569  0.2691 -0.2394 -0.2972
24886W        W43090   6.414  11.377  14.626  0.3014  0.1190 -0.1988
24887W        W43091   1.540   2.759   3.744  0.3609  0.3136  0.0755
24888W        W43092   0.778  12.542   4.304  0.0338 -0.4248  0.2591
24889W        W43093  10.512  12.463  11.312 -0.0224 -0.1092  0.3896
24890W        W43094   8.928   2.800  14.976 -0.0728 -0.3031 -0.0108
24891W        W43095  16.030  10.899  14.049 -0.2165 -0.2213  0.2083
24892W        W43096  13.613  13.213  12.534  0.1435 -0.2135  0.2815
24893W        W43097  12.433   1.845  14.406 -0.1978 -0.0865  0.0407
24894W        W43098  14.235   1.542  14.307 -0.0132  0.2364 -0.0405
24895W        W43099  12.624   7.228   5.166  0.0880 -0.1302  0.3660
24896W        W43100   5.225   6.134  14.774  0.0482 -0.1967 -0.0849
24897W        W43101  12.450  16.905  12.645  0.1822  0.0232  0.2321
24898W        W43102   0.611  11.685   0.115  0.0820 -0.2936 -0.0433
24899W        W43103   6.576  15.763   4.124 -0.0990 -0.3352 -0.0790
24900W        W43104  15.851   0.506  15.329 -0.1123 -0.2567 -0.0492
24901W        W43105  11.363   3.432   2.075  0.2240  0.0603  0.1449
24902W        W43106   6.377   5.489   4.360 -0.0645  0.2188  0.0642
24903W        W43107  15.056   3.585   1.795 -0.0276 -0.1947 -0.1399
24904W        W43108   4.079  15.258  13.659  0.0572 -0.0960 -0.0761
24905W        W43109  14.349   7.701   4.146  0.0617  0.1234 -0.0348
24906W        W43110  16.861  15.119   3.616  0.2607  0.1237 -0.3762
24907W        W43111   1.394   8.294   0.432 -0.0760 -0.0940  0.0738
24908W        W43112  16.361   1.015   1.895  0.3054 -0.0530  0.0661
24909W        W43113  10.419   2.110   5.300 -0.4010 -0.3212 -0.2519
24910W        W43114   8.413   2.806  12.310  0.0061 -0.0431 -0.1515
24911W        W43115  15.145   6.513  15.706 -0.1247  0.1453 -0.0204
24912W        W43116   8.861  15.601  16.284 -0.0566  0.0295  0.0726
24913W        W43117  16.217   1.615  16.460 -0.2358  0.3433 -0.0941
24914W        W43118   3.583   6.959  16.506 -0.0459  0.4626 -0.0393
24915W        W43119  16.256   7.596   1.327 -0.0533 -0.2806  0.1782
24916W        W43120  14.522  17.198   2.239 -0.2578 -0.0391  0.0453
24917W        W43121  13.038  11.990   1.847 -0.1712  0.0978 -0.1272
24918W        W43122  10.927   3.856   1.266  0.1787 -0.2181 -0.1741
24919W        W43123   5.424   4.559  15.857 -0.1210  0.0062  0.2213
24920W        W43124   2.691   3.422  16.618 -0.0361  0.3924  0.1041
24921W        W43125   6.235   3.009  15.772  0.1793 -0.2561  0.0133
24922W        W43126  14.152   3.519  12.354  0.1519 -0.2815 -0.0411
24923W        W43127  15.955   0.983   4.618 -0.1379  0.2032  0.2288
24924W        W43128  12.969   0.026   5.200 -0.2166  0.1648  0.0740
24925W        W43129  17.017  17.542  13.795 -0.1733 -0.0455  0.1258
24926W        W43130  16.859   6.163   2.220  0.0823  0.1835  0.0530
24927W        W43131   0.022  12.542   1.621  0.2284 -0.0975  0.2671
24928W        W43132  11.230   8.328   0.197  0.0616 -0.1579 -0.2181
24929W        W43133   9.385  14.722  16.117  0.0292 -0.1647 -0.0113
24930W        W43134   2.904   6.114  16.611  0.2392  0.1600  0.0343
24931W        W43135   3.224  14.569  14.483 -0.0668 -0.1999 -0.0589
24932W        W43136   2.222   7.581  12.392 -0.0306  0.2882 -0.2065
24933W        W43137  14.001  13.857  12.844 -0.2764  0.1385 -0.0470
24934W        W43138  10.375   0.139   4.408 -0.1493  0.3571  0.1999
24935W        W43139  11.415  16.601  16.115  0.1291 -0.3279 -0.1322
24936W        W43140  11.672  10.099  16.997 -0.1207  0.0828 -0.0347
24937W        W43141  11.251   7.044   2.834  0.0432 -0.2611  0.0166
24938W        W43142  17.300   5.705  15.727  0.3264 -0.0019  0.1756
24939W        W43143   3.208   0.629  14.098  0.3017  0.0283  0.1598
24940W        W43144   1.861   7.198  12.519 -0.0844  0.1853 -0.0789
24941W        W43145   4.299  10.485   3.586 -0.1936  0.0771  0.0906
24942W        W43146   7.863   3.567  15.558  0.4574 -0.2093  0.0717
24943W        W43147   2.868   9.663  15.446  0.1626 -0.0092 -0.0598
24944W        W43148  14.489  14.731  16.566 -0.1270 -0.0556  0.1204
24945W        W43149  16.974   2.586  15.067 -0.1185 -0.0947 -0.1424
24946W        W43150   2.573  11.403   2.515  0.0449 -0.0117  0.0650
24947W        W43151  12.301   8.214   4.317  0.1788 -0.1667  0.0113
24948W        W43152  10.521  13.857  16.119  0.0950  0.3001 -0.1891
24949W        W43153  17.218   8.105   5.765 -0.0842  0.1479 -0.1126
24950W        W43154  12.391   9.115  15.815  0.1263 -0.2909 -0.0519
24951W        W43155  12.583   8.157   1.462  0.0089 -0.0484 -0.1512
24952W        W43156  10.814   5.222   5.102 -0.2074  0.3759  0.0319
24953W        W43157  13.682   0.380   3.519 -0.2631 -0.0979  0.1005
24954W        W43158  11.931   0.179   1.986  0.0544  0.0726  0.0446
24955W        W43159   6.860   4.491   0.355 -0.1737 -0.0801 -0.1678
24956W        W43160  13.590  11.097   0.011 -0.1432 -0.1267 -0.0727
24957W        W43161   3.463  11.534   3.104  0.2771  0.0013  0.1460
24958W        W43162   6.410   5.540  13.744 -0.1002  0.2224  0.0600
24959W        W43163   8.797  17.000  15.433 -0.1408 -0.1591 -0.2394
24960W        W43164   2.160  16.994   3.609 -0.4659  0.2112  0.0188
24961W        W43165   0.752  10.159   0.762  0.0766 -0.0639  0.1105
24962W        W43166   9.898   9.349   2.175 -0.0864 -0.3468  0.0608
24963W        W43167  11.900   2.512   3.644  0.1723 -0.0850  0.2706
24964W        W43168  10.605   8.403  14.392 -0.0504 -0.0906 -0.0177
24965W        W43169  16.878   7.620  16.633  0.2591  0.2013 -0.0067
24966W        W43170   4.585  17.050  13.028 -0.0401  0.0483  0.1314
24967W        W43171   4.929  14.466   2.357 -0.0273  0.2612 -0.1418
24968W        W43172   5.031   1.149  13.524 -0.2423  0.0033  0.0418
24969W        W43173  10.904  10.509  16.386 -0.1064 -0.0428 -0.2292
24970W        W43174   6.304   5.954   2.006 -0.0413 -0.1147  0.2555
24971W        W43175   7.232   1.272   4.606 -0.1088 -0.1832  0.1040
24972W        W43176  16.043  17.054   5.149 -0.0812  0.0908  0.0299
24973W        W43177  15.409   5.946  16.518 -0.0167 -0.0393  0.0396
24974W        W43178  12.122  12.881   5.775 -0.0227 -0.2425  0.1511
24975W        W43179  12.016   1.043   4.540  0.3190 -0.4552  0.0208
24976W        W43180   1.019   4.201   1.966 -0.1007  0.0013 -0.2462
24977W        W43181  10.041   6.097  15.332 -0.2100  0.0435  0.3252
24978W        W43182   6.568   3.915   4.176  0.0160  0.2749  0.1252
24979W        W43183   9.359   8.942  13.284  0.1254 -0.0371 -0.4086
24980W        W43184   4.180   1.884  13.711 -0.0850 -0.1246  0.0324
24981W        W43185  14.452   1.461   3.365  0.2968 -0.0680 -0.2238
24982W        W43186   5.260  14.579   1.883  0.0208 -0.2557  0.0310
24983W        W43187   5.799   7.425  12.632 -0.3999  0.2284  0.2308
24984W        W43188  14.393  12.537   1.560 -0.1000 -0.3291 -0.0007
24985W        W43189   4.234   2.197  16.081  0.1116  0.2255  0.0878
24986W        W43190   2.820  14.196  14.175  0.2935  0.1411  0.2162
24987W        W43191  14.824   5.585   1.729 -0.2483  0.0084 -0.3072
24988W        W43192  16.905   9.840  16.351  0.0681 -0.0204  0.1772
24989W        W43193   8.546   9.849   1.616  0.0236 -0.0883 -0.0311
24990W        W43194   8.675  11.091  17.078  0.0521  0.0072 -0.0336
24991W        W43195  15.122   1.930   3.677 -0.0404 -0.0323 -0.1867
24992W        W43196   0.295  15.972   3.907 -0.0558  0.2813 -0.0509
24993W        W43197   4.760   3.757   0.761 -0.1891  0.0441  0.1894
24994W        W43198  15.385  14.811   5.315  0.3733  0.3444  0.2917
24995W        W43199   6.975   5.898   0.178 -0.2191  0.0349 -0.0944
24996W        W43200  13.796   6.208  12.802  0.0532  0.3472  0.0692
24997W        W43201   7.815   4.159   0.836  0.1850 -0.0389  0.0654
24998W        W43202   6.525  15.806   0.025  0.1729 -0.1986  0.1915
24999W        W43203  11.356   3.449   5.227 -0.1291 -0.1264  0.1371
25000W        W43204  11.702   3.090  13.915  0.2682 -0.1038  0.0628
25001W        W43205  12.300   9.702  15.812  0.0864 -0.1720 -0.1219
25002W        W43206   8.552  15.697  13.263 -0.3482 -0.1406  0.2720
25003W        W43207  13.901   9.115   0.177  0.1849  0.1394 -0.0695
25004W        W43208  10.461   1.382   4.657 -0.1839 -0.2313  0.1746
25005W        W43209   4.234  15.140  12.563 -0.2635  0.3003 -0.1610
25006W        W43210   3.667   3.302   1.768 -0.0854  0.2380  0.0988
25007W        W43211  14.692   4.750  17.187 -0.0438  0.0950 -0.0569
25008W        W43212  11.682   6.008  12.455  0.0513 -0.0902  0.3057
25009W        W43213   1.810  17.024  12.347  0.1785 -0.5706  0.0757
25010W        W43214   1.631   8.537  16.916 -0.0325  0.3888 -0.0365
25011W        W43215  13.776  10.908   1.796 -0.0617 -0.4410 -0.2008
25012W        W43216   7.340   4.727   1.325 -0.1184 -0.0143  0.1536
25013W        W43217   1.692   0.727   1.768 -0.0833 -0.0486 -0.4889
25014W        W43218   1.370   6.293  16.116  0.0463  0.3021 -0.0481
25015W        W43219   9.027   7.738   5.098  0.0201  0.1875 -0.3026
25016W        W43220  10.213   8.090   2.340 -0.3812  0.3953  0.1364
25017W        W43221  11.209  14.839  15.418 -0.1634  0.0675 -0.0798
25018W        W43222  17.317   3.509  13.161  0.0962 -0.1157  0.1811
25019W        W43223   0.430  10.595   5.033 -0.1297  0.4150  0.1242
25020W        W43224  14.967   1.402   1.748 -0.0470 -0.0734 -0.1056
25021W        W43225   9.709  16.070   1.769  0.0695 -0.1587 -0.0901
25022W        W43226  15.847   5.562  15.229  0.0785 -0.0387  0.1399
25023W        W43227   1.572   6.915  15.798  0.1227  0.1042 -0.1043
25024W        W43228   8.989  10.183  15.486 -0.1437  0.1340 -0.1467
25025W        W43229   4.517   9.586   5.929  0.1833  0.1995 -0.3198
25026W        W43230   1.691  12.684   3.338 -0.1113 -0.1632 -0.0630
25027W        W43231   0.948   5.766  15.157  0.0177 -0.0649  0.1981
25028W        W43232   4.260   4.064  12.312  0.2829  0.2115 -0.0005
25029W        W43233   5.485   2.036  15.166  0.3970  0.0190  0.1499
25030W        W43234   8.020   5.161  16.175  0.1973 -0.0628  0.0683
25031W        W43235  17.096   9.773   2.674 -0.1169  0.1539 -0.1030
25032W        W43236  15.492   1.789  13.028  0.0408  0.4680  0.0747
25033W        W43237   5.877  15.922   3.498 -0.0523 -0.0303  0.5623
25034W        W43238   0.362   1.876  12.204 -0.0213 -0.0455 -0.0297
25035W        W43239  10.078   6.967  13.318  0.3667 -0.1877 -0.3274
25036W        W43240  15.977  16.704   5.544 -0.0321  0.0506 -0.1537
25037W        W43241   3.930  10.438   5.057 -0.0552  0.0730  0.6759
25038W        W43242   9.036   2.910   2.342 -0.4995 -0.2741 -0.0758
25039W        W43243   5.272   1.104   1.353 -0.0340  0.0279  0.1299
25040W        W43244  12.621  17.204  16.362 -0.1283 -0.0609  0.0352
25041W        W43245  12.014  14.608  15.558  0.0985 -0.1337  0.0506
25042W        W43246   3.655   8.178  14.016 -0.2559 -0.0924  0.1699
25043W        W43247  16.803  10.197   1.045 -0.0975 -0.1889  0.0640
25044W        W43248  14.940  11.945  13.407 -0.2402  0.3682  0.0984
25045W        W43249  12.348  15.935   5.453 -0.5839  0.0469 -0.0773
25046W        W43250   6.668   1.256   0.787  0.0955 -0.0503  0.3551
25047W        W43251   2.472  12.036   4.401 -0.1668 -0.0706 -0.3417
25048W        W43252   0.067  13.166   4.774 -0.0088  0.3870  0.2712
25049W        W43253   7.637   4.808  12.943  0.0227  0.0913 -0.1823
25050W        W43254   9.301   5.573  16.141  0.4389  0.1989 -0.1101
25051W        W43255   0.843   1.580  12.335 -0.0405 -0.0905  0.2745
25052W        W43256   0.940  15.142  14.270  0.0216 -0.2059  0.1942
25053W        W43257   2.463  14.608  16.033  0.2229  0.0179  0.1035
25054W        W43258  13.480  15.466  15.194 -0.3455  0.2132  0.2800
25055W        W43259   0.605   8.704  12.965 -0.0969  0.2823  0.2374
25056W        W43260   2.191   5.578   3.141 -0.0237 -0.0397  0.1471
25057W        W43261   7.147  15.232   0.580 -0.0149  0.0475 -0.2685
25058W        W43262  17.499  14.786  12.157 -0.2305  0.1228  0.1208
25059W        W43263  11.014   4.624  13.584 -0.0192  0.2201 -0.0817
25060W        W43264  17.396   4.919   2.224 -0.2305  0.0459 -0.0540
25061W        W43265  13.214   1.769   3.960  0.1764  0.1599 -0.0969
25062W        W43266   7.311   0.246  14.383 -0.0609 -0.0445  0.0365
25063W        W43267  17.386   1.644   4.960 -0.1284  0.1373 -0.0026
25064W        W43268  15.903  10.483  12.743  0.2029 -0.4935 -0.1015
25065W        W43269   0.009   2.433  14.669  0.0978 -0.2738 -0.1506
25066W        W43270   9.002   3.654  11.513 -0.0383  0.0795 -0.0704
25067W        W43271   1.808  13.082  12.024 -0.0931 -0.0049  0.0499
25068W        W43272   8.961   6.327   3.566 -0.0514 -0.0461 -0.2788
25069W        W43273  14.112  10.851  14.682 -0.3765 -0.1074  0.1582
25070W        W43274  17.014   3.483  14.128  0.2633 -0.2928 -0.1387
25071W        W43275   0.413   7.744  14.152 -0.0735 -0.4189 -0.0483
25072W        W43276  12.707  12.703   3.004  0.0262 -0.3522  0.1693
25073W        W43277   8.813   6.717   4.728 -0.0133 -0.0387  0.1266
25074W        W43278   8.185  16.214  15.902 -0.0614 -0.0130  0.2483
25075W        W43279  15.991   9.652  11.995  0.0360 -0.3424  0.0210
25076W        W43280   1.611   7.416   4.589 -0.3141 -0.2355  0.1084
25077W        W43281   1.380   4.884   3.939 -0.0999 -0.1144  0.1808
25078W        W43282   5.726   1.587   5.319 -0.0872  0.0590 -0.0633
25079W        W43283  13.920   9.014   4.383  0.1596  0.1269  0.0572
25080W        W43284  16.278  10.121   3.744  0.4173 -0.2403 -0.1353
25081W        W43285  13.563   1.926  12.500  0.2490  0.1392 -0.1402
25082W        W43286   0.953   7.734  13.452 -0.0774 -0.1966 -0.2532
25083W        W43287   2.903  10.960   3.208 -0.0722 -0.3377  0.3407
25084W        W43288  12.344   5.140  11.951 -0.2375 -0.1680  0.0992
25085W        W43289   9.817   4.404   3.351  0.1543  0.1397 -0.0127
25086W        W43290  15.717   0.166  16.075 -0.0348  0.4183 -0.0207
25087W        W43291   2.353  15.803   1.233 -0.0730 -0.0530 -0.0432
25088W        W43292   5.706   5.469   3.037  0.1298  0.1490 -0.0030
25089W        W43293  17.497   7.667  15.849 -0.3060 -0.4097 -0.1868
25090W        W43294   3.732  14.082   4.627 -0.1184  0.1584  0.0509
25091W        W43295   2.039  11.234  17.126  0.0764  0.1867  0.1657
25092W        W43296   3.433  14.671  13.568 -0.0514 -0.0169 -0.0951
25093W        W43297   4.869   7.685  16.175 -0.1746 -0.0853 -0.1336
25094W        W43298   7.224  15.517  16.549  0.1304  0.0449 -0.0047
25095W        W43299   3.485   0.592   3.024 -0.0884 -0.0989 -0.0123
25096W        W43300   3.758   9.124  15.744  0.2103  0.0322 -0.3295
25097W        W43301   5.310  12.073   4.596  0.1448  0.1746 -0.0146
25098W        W43302  12.636  16.124   2.620 -0.1707 -0.0668  0.1464
25099W        W43303   4.250   9.824   3.111 -0.0058  0.1751 -0.1354
25100W        W43304  16.991  10.685   1.844 -0.3683  0.2274 -0.1202
25101W        W43305   9.863   2.432   4.838 -0.0866 -0.2450 -0.0488
25102W        W43306  10.299  16.512  14.188 -0.1056  0.0252 -0.0619
25103W        W43307   4.429   6.432   3.140 -0.1420 -0.1588 -0.2736
25104W        W43308   8.506  15.974  12.183  0.4415 -0.1357  0.1791
25105W        W43309  13.937   4.833  13.114 -0.2734  0.2903  0.0436
25106W        W43310   9.560   0.322  13.148 -0.2391 -0.1652 -0.1490
25107W        W43311   2.978   4.244  15.021 -0.0576  0.0402  0.0096
25108W        W43312   7.348   0.028   4.513  0.1984 -0.1082  0.1513
25109W        W43313   2.570  10.735   4.009 -0.0181 -0.3117  0.1039
25110W        W43314   6.419   8.409   2.553  0.0197  0.2435 -0.1249
25111W        W43315  12.132   2.793  16.670  0.2735  0.2605  0.1739
25112W        W43316  15.180   9.450   4.498  0.1245 -0.2714  0.0047
25113W        W43317  14.368  10.424   4.798  0.1238 -0.0786 -0.0455
25114W        W43318   4.677   3.173  14.048  0.3514  0.0019 -0.2348
25115W        W43319  10.520  13.431   0.399  0.2212 -0.0195 -0.1865
25116W        W43320  17.207   1.369  12.383  0.0046 -0.0919 -0.2446
25117W        W43321  11.608  15.556   5.544 -0.0944 -0.1157 -0.0060
25118W        W43322   4.685   8.283   6.119 -0.3207  0.1544 -0.1858
25119W        W43323  11.457  11.762   4.855  0.0557  0.2645  0.0074
25120W        W43324  13.590  16.614  16.933  0.2107  0.0512  0.2807
25121W        W43325   1.608  14.436  12.516 -0.0467 -0.0692 -0.1258
25122W        W43326  14.252   5.980   4.161  0.0824  0.1273  0.0682
25123W        W43327   8.426   6.690  13.865  0.1857 -0.2635 -0.2416
25124W        W43328   9.875  13.112   0.832 -0.3633  0.0157 -0.2263
25125W        W43329  12.637  12.855  14.908 -0.1259 -0.1320 -0.1948
25126W        W43330  10.472   3.936  14.795 -0.1235 -0.0577 -0.1947
25127W        W43331   4.036  14.876   1.439  0.2455  0.0195  0.0164
25128W        W43332   0.377   8.990  17.269  0.0645  0.2299 -0.0836
25129W        W43333   4.507  11.493   2.552 -0.0779  0.1062 -0.0893
25130W        W43334  12.030   0.123  13.254  0.0529 -0.1066  0.4430
25131W        W43335  14.768  15.573   4.019  0.6008  0.1646  0.1551
25132W        W43336   3.275   7.940  15.783  0.2470  0.1647  0.3082
25133W        W43337   8.110  16.061  17.016  0.0341 -0.2402 -0.0614
25134W        W43338  15.578   6.366  16.035 -0.0342 -0.0327  0.1674
25135W        W43339   5.593  17.441   2.773 -0.2616  0.0925 -0.0277
25136W        W43340   0.574  16.921  16.119  0.0501 -0.3216  0.2058
25137W        W43341   5.051  12.607  17.233  0.4312 -0.0311 -0.1436
25138W        W43342  14.869   8.974   1.760  0.1094 -0.0153  0.2666
25139W        W43343   6.477  14.645   4.533  0.1626 -0.0693  0.2358
25140W        W43344   1.055   7.371  12.776 -0.2407  0.1234  0.2377
25141W        W43345  10.224   9.241   2.499  0.0083  0.1404  0.0323
25142W        W43346  13.445  12.358   1.198 -0.2227 -0.3066 -0.0173
25143W        W43347   0.666   7.197   2.005  0.0718  0.1299  0.0929
25144W        W43348   3.787   4.959   0.697 -0.0520 -0.1964  0.0347
25145W        W43349   9.001   5.608   2.496  0.0306 -0.3677  0.3796
25146W        W43350   3.515  10.146   5.085 -0.2955  0.1205  0.2183
25147W        W43351   5.785  15.368   3.429  0.4606 -0.2572 -0.0980
25148W        W43352  15.870   3.540   2.363  0.1742  0.0525 -0.0505
25149W        W43353  14.556  10.615   2.393 -0.1623 -0.3899  0.1432
25150W        W43354   5.567   0.310  13.811  0.1330  0.0865  0.1759
25151W        W43355  10.857  15.921   1.151 -0.0089 -0.0713 -0.2643
25152W        W43356   5.092  12.064  16.499  0.2154 -0.3682  0.0208
25153W        W43357  11.451   8.616   4.274 -0.0177 -0.3101 -0.0510
25154W        W43358   2.545  11.894  15.062  0.0076  0.3942  0.0977
25155W        W43359   7.363  13.255   2.827 -0.1575  0.1018  0.1093
25156W        W43360   8.833  11.809   2.731 -0.0665 -0.1250  0.2373
25157W        W43361   9.313   6.510  17.083 -0.4202 -0.1494 -0.0495
25158W        W43362   0.867   3.200   2.888  0.0953  0.0094  0.0142
25159W        W43363   1.896  16.373   1.873 -0.2650  0.0647 -0.0381
25160W        W43364  12.533  14.631  12.846  0.1377  0.1560 -0.1321
25161W        W43365   3.837  15.727  13.179  0.1187 -0.0394 -0.1413
25162W        W43366   2.001   6.428   2.969  0.0730 -0.2223 -0.2103
25163W        W43367   7.532   4.015   3.202  0.3983  0.1286  0.0520
25164W        W43368   5.038  17.504   2.607  0.1918 -0.0818  0.0518
25165W        W43369  10.077   9.025   3.784 -0.0865 -0.0445  0.1672
25166W        W43370   6.782   9.381   0.069 -0.0365 -0.2955 -0.0171
25167W        W43371   6.610   0.282  12.938 -0.0720 -0.3845  0.0704
25168W        W43372   3.379   6.385   0.869  0.0927  0.0406 -0.0238
25169W        W43373   1.482   0.806   2.924  0.1331  0.0560  0.0434
25170W        W43374  16.348   0.626   0.142 -0.2580 -0.1250 -0.1169
25171W        W43375   3.015  10.678  13.341  0.2247 -0.0430 -0.0480
25172W        W43376   5.457  11.078  14.503  0.0916  0.1286 -0.1387
25173W        W43377  15.702  17.216  12.850 -0.2648 -0.1567 -0.1640
25174W        W43378   8.776  14.114   1.795 -0.0355 -0.1314 -0.3261
25175W        W43379   5.123   2.499  15.724  0.0851  0.0643 -0.2058
25176W        W43380  13.784  15.000  14.667 -0.2767 -0.1617 -0.0967
25177W        W43381   8.259   5.351  15.283  0.0142 -0.0671 -0.3347
25178W        W43382  12.195   3.788  13.887 -0.1070  0.2668 -0.1080
25179W        W43383   2.349   0.925   1.862  0.1787  0.0481 -0.2388
25180W        W43384   1.440  10.603   0.300 -0.0443 -0.3897  0.0653
25181W        W43385   5.755  16.980   3.577  0.1814 -0.2038 -0.0303
25182W        W43386  13.422  13.696   5.114 -0.0720  0.0064 -0.1161
25183W        W43387   0.078   5.408   0.109 -0.0109  0.1230  0.0360
25184W        W43388  13.897   9.330   4.784 -0.1162  0.0174 -0.0593
25185W        W43389   0.019   7.219   3.976 -0.1447 -0.2265 -0.0086
25186W        W43390   1.607   8.995  13.205  0.2106  0.0761 -0.1882
25187W        W43391  14.230   6.694   3.895  0.1422  0.0630  0.0595
25188W        W43392  10.889   2.272   3.997  0.0435  0.0304  0.4769
25189W        W43393   0.780   5.694   5.572 -0.3578  0.0184  0.0143
25190W        W43394  12.632  16.722  15.788 -0.2433 -0.0895 -0.1955
25191W        W43395   8.154  16.269  15.315  0.2390  0.1252  0.1226
25192W        W43396   3.807  14.868  13.336 -0.2785  0.1296 -0.0556
25193W        W43397  12.888  14.139   2.200 -0.2177 -0.0397 -0.0241
25194W        W43398   6.238   5.926  14.695 -0.0253  0.0407  0.0543
25195W        W43399  13.721  11.235  15.475 -0.3841 -0.1315  0.2574
25196W        W43400  13.974   4.609  15.824  0.0326 -0.2288  0.0587
25197W        W43401   7.117   1.157  12.934  0.2866 -0.1083  0.0292
25198W        W43402   3.413  14.039  16.603 -0.0908 -0.0380 -0.1535
25199W        W43403   4.338   5.287  14.825 -0.1858  0.2436  0.0252
25200W        W43404   4.775  13.049  15.488  0.3584  0.4238  0.2030
25201W        W43405   2.428   3.860  13.220  0.0479 -0.0694 -0.2416
25202W        W43406  10.805   8.432  12.617  0.4210  0.0590  0.2666
25203W        W43407  14.341  10.585   5.413  0.0837 -0.1271 -0.0448
25204W        W43408   7.650   5.089   2.574 -0.2027 -0.1367  0.3265
25205W        W43409  16.655  16.791   2.661 -0.2624  0.0812  0.0472
25206W        W43410   1.884  13.755  16.649 -0.0601  0.0193  0.2079
25207W        W43411  17.299  12.655   2.045  0.0947 -0.0389  0.0342
25208W        W43412   9.611   6.377  16.640  0.0272 -0.1795 -0.1005
25209W        W43413  11.406  15.115   5.573 -0.1128 -0.1024  0.0441
25210W        W43414   1.067   0.661   1.141 -0.1345 -0.1739 -0.1924
25211W        W43415   9.467  13.990  14.835  0.3018 -0.2799 -0.2654
25212W        W43416  16.812  13.467   0.242  0.2046 -0.4232 -0.1171
25213W        W43417   7.311   9.336   0.756  0.0722  0.0916  0.0717
25214W        W43418   1.376   1.760   3.172 -0.1808 -0.0265 -0.1070
25215W        W43419  10.021   8.235  13.257 -0.2047 -0.2040 -0.2965
25216W        W43420   6.126  10.949   0.691 -0.1020  0.1206 -0.0245
25217W        W43421   3.260   5.891  15.296 -0.2143 -0.0761  0.1452
25218W        W43422   8.158  13.625  13.539  0.0441 -0.1293  0.1805
25219W        W43423   9.568  12.085  14.238 -0.0824 -0.1986 -0.0863
25220W        W43424  11.960  10.944   3.288 -0.2551  0.2364 -0.0697
25221W        W43425   2.902   5.540   0.311  0.2475  0.0472  0.1090
25222W        W43426  11.343   9.065   4.427 -0.0442 -0.1787 -0.0476
25223W        W43427  11.907   3.032   2.724  0.2561 -0.1353  0.2413
25224W        W43428   0.733  11.728   2.992  0.0022 -0.0752  0.2447
25225W        W43429  12.461   3.807   2.788  0.2003 -0.2978 -0.0385
25226W        W43430   8.237   7.567  13.972 -0.4323 -0.1175  0.0595
25227W        W43431   9.137   2.155  12.260 -0.1214 -0.0553  0.0302
25228W        W43432  12.286   9.847  13.020  0.2790 -0.1249 -0.0053
25229W        W43433  11.109   7.627   1.283  0.1758  0.1162 -0.2499
25230W        W43434   6.332   2.637   4.550  0.3099  0.2026 -0.5050
25231W        W43435   9.592  16.148  15.092  0.0398 -0.2819 -0.3270
25232W        W43436  16.202  11.417  12.656 -0.0435 -0.0915 -0.0246
25233W        W43437  15.994   0.884  15.698  0.1098  0.0816 -0.4902
25234W        W43438   5.811  10.802  12.111  0.0091 -0.0729 -0.0986
25235W        W43439   5.715   7.411   4.836 -0.2896  0.0102  0.1947
25236W        W43440   7.835  12.024   2.240  0.1076  0.0245 -0.0120
25237W        W43441  17.229   6.122   1.636  0.0686  0.1477 -0.1509
25238W        W43442   0.187   4.698   2.521  0.0710 -0.1115 -0.2434
25239W        W43443  15.913  11.671  15.573  0.0884 -0.1396 -0.1597
25240W        W43444   8.384  12.324   3.934 -0.1328 -0.0662  0.1867
25241W        W43445   0.512   4.523   0.273 -0.4477 -0.4224  0.2252
25242W        W43446   3.601   4.535   0.363 -0.1421 -0.2923  0.1061
25243W        W43447   3.963   3.118  12.250 -0.1334 -0.1735  0.0792
25244W        W43448   5.498   1.602   4.818  0.1276  0.2340 -0.0210
25245W        W43449  13.425   6.473  16.863  0.2292 -0.0023  0.0359
25246W        W43450  13.300   1.160   4.293 -0.0549  0.2223 -0.1039
25247W        W43451  14.882   7.615  15.034 -0.1819 -0.1566  0.2314
25248W        W43452   7.229  14.009   3.483 -0.2215  0.1398 -0.0344
25249W        W43453  15.494   3.246  12.120  0.2223 -0.2339  0.5342
25250W        W43454   6.428   8.872   0.524  0.2134 -0.2831  0.1606
25251W        W43455  15.949   1.594   3.231  0.0689 -0.0789 -0.0510
25252W        W43456   7.650  12.856   0.172 -0.3519 -0.0422 -0.1383
25253W        W43457  10.989  12.399   1.057  0.1711  0.1945 -0.1950
25254W        W43458  14.024   1.826   4.082  0.1107  0.1944  0.1038
25255W        W43459   3.562  16.260   2.729 -0.1352 -0.0947 -0.3678
25256W        W43460   2.801   6.760   1.312  0.0796  0.1538  0.1662
25257W        W43461   2.211   7.195  14.443  0.1546  0.1504  0.0684
25258W        W43462  10.261  17.405  17.151  0.1987  0.0748  0.0511
25259W        W43463   3.304   9.325   4.444  0.0015  0.0339  0.1280
25260W        W43464   1.586   9.771  11.462 -0.3183  0.3976 -0.0379
25261W        W43465   6.923  15.063  13.365 -0.1837  0.0522 -0.2146
25262W        W43466  16.513  10.849  15.058  0.5285 -0.0504 -0.1179
25263W        W43467  10.599   1.563  14.257 -0.2653  0.1079  0.0167
25264W        W43468  10.738   8.399  17.123 -0.2035  0.0134  0.2435
25265W        W43469  13.464   4.101  12.172 -0.0266  0.2421 -0.0134
25266W        W43470  17.398   2.491   3.575 -0.3442  0.0233 -0.1538
25267W        W43471  14.490  13.620   2.541  0.0536 -0.0036 -0.0061
25268W        W43472   7.285   8.146  13.365 -0.0145 -0.0265 -0.3338
25269W        W43473  10.199   6.536   0.746 -0.0598 -0.0217 -0.0080
25270W        W43474  15.559   2.509   5.561 -0.0754  0.2416 -0.1722
25271W        W43475   1.177  15.403  17.182  0.0994 -0.2975 -0.1484
25272W        W43476   8.399  16.389  16.693 -0.0664  0.2365  0.1604
25273W        W43477   3.143  16.651   4.897 -0.1039  0.1409 -0.2242
25274W        W43478  16.525   5.511  13.703  0.0165 -0.2083 -0.0436
25275W        W43479   7.423  10.731  11.535 -0.2022  0.0104  0.1498
25276W        W43480   4.965  15.683  15.168 -0.0468 -0.3531 -0.0806
25277W        W43481   7.696  13.191   3.673 -0.0186 -0.2053  0.1243
25278W        W43482   9.896  16.437   3.041  0.0206 -0.1079  0.3367
25279W        W43483   0.838  16.271  12.817 -0.0910  0.4176  0.1946
25280W        W43484  12.067   4.497  14.753 -0.1801  0.1861  0.0730
25281W        W43485   5.140  11.277   1.260 -0.0967 -0.1096 -0.0608
25282W        W43486   6.889  16.751   2.110  0.0132  0.1470  0.0806
25283W        W43487  10.729   7.311   1.082 -0.2853  0.1433  0.0736
25284W        W43488   5.583   8.800  16.692 -0.0793 -0.1636  0.0735
25285W        W43489   0.860  12.720  16.279 -0.1128 -0.2372 -0.0305
25286W        W43490  10.183   4.669   4.640  0.1171  0.4058  0.0777
25287W        W43491   8.708   9.469  14.938 -0.0843 -0.1599 -0.0820
25288W        W43492   1.656  14.827   3.065 -0.0250 -0.0145 -0.1566
25289W        W43493  15.942  13.723   4.956  0.1931  0.0290  0.0152
25290W        W43494   0.614   4.703  16.481 -0.0152  0.0451 -0.0977
25291W        W43495  11.392  11.464  17.013  0.1714 -0.0991  0.4029
25292W        W43496   4.883  10.838   4.281  0.0325  0.2718  0.0853
25293W        W43497   7.560  15.155   0.335 -0.0772 -0.0162  0.1317
25294W        W43498   1.330  13.303  12.461 -0.1846  0.0254  0.2343
25295W        W43499   3.240  14.259   3.094 -0.1261  0.0947 -0.0789
25296W        W43500  13.110   0.197  13.964 -0.1003  0.2388  0.0539
25297W        W43501  15.563   6.612   5.172 -0.1573  0.1786 -0.3193
25298W        W43502  12.799  14.620   4.333  0.1733  0.1030 -0.0279
25299W        W43503  11.588   9.167   1.817  0.2376 -0.1010  0.3376
25300W        W43504  12.563  14.337   1.390 -0.1141  0.1566  0.1029
25301W        W43505   9.925  10.515  10.721 -0.0329 -0.3751  0.0682
25302W        W43506  13.041  16.460  12.500  0.0040  0.0202 -0.1566
25303W        W43507   8.464   9.044  15.119 -0.0805  0.1374  0.1064
25304W        W43508   7.590   5.463   1.641  0.2057  0.0319 -0.0772
25305W        W43509  14.929  15.576   4.930  0.2970 -0.0698 -0.0304
25306W        W43510   5.848   7.688   4.260 -0.2138 -0.1388  0.2311
25307W        W43511  14.716   4.365   3.999  0.0491  0.1393  0.2243
25308W        W43512  10.735   7.321   0.485  0.0675 -0.2061  0.0168
25309W        W43513   5.628  15.530   4.201  0.1158 -0.2124  0.1110
25310W        W43514   0.058  11.251   3.217  0.0538  0.3458  0.0016
25311W        W43515  16.303   1.989  13.515 -0.0090 -0.0310  0.1180
25312W        W43516   7.051   7.438   3.299  0.0740  0.0693 -0.0870
25313W        W43517  12.211  13.673  17.094 -0.2094  0.1413  0.0566
25314W        W43518  16.469   0.963  14.818 -0.0349  0.1169 -0.0969
25315W        W43519   8.621  15.624   4.339 -0.1640  0.0017  0.1487
25316W        W43520  10.083   1.001   1.262  0.3086  0.2013  0.0081
25317W        W43521  16.320   1.469   0.348 -0.0471  0.2915 -0.1582
25318W        W43522  15.857  10.586   1.121  0.0212  0.1490 -0.2089
25319W        W43523  13.908   7.559  15.924 -0.2837 -0.3810 -0.2249
25320W        W43524  11.795   8.314   0.958 -0.0392 -0.0461 -0.1331
25321W        W43525   2.277  12.430  13.243 -0.2771 -0.0806 -0.2095
25322W        W43526  13.749   1.267   5.002 -0.2157  0.0714  0.2536
25323W        W43527   3.695   0.523  14.173  0.2010  0.1113 -0.0693
25324W        W43528   7.646   6.180   3.748 -0.1746 -0.0668  0.0249
25325W        W43529   1.909   8.871   3.407 -0.0436  0.1713 -0.0114
25326W        W43530  10.133   7.761  14.982 -0.1501  0.1380 -0.1024
25327W        W43531  12.920   9.133  15.530  0.1013 -0.3355  0.0095
25328W        W43532   2.381   5.392   0.884 -0.2819  0.0433  0.1244
25329W        W43533   4.086  16.361   2.011 -0.2543 -0.1008  0.0333
25330W        W43534  14.105  11.299   0.569 -0.1790  0.1101  0.0856
25331W        W43535  12.715   6.340   5.031 -0.1690 -0.2539  0.2471
25332W        W43536   1.466   0.888  14.134 -0.0220  0.0288 -0.0744
25333W        W43537  11.448   9.848   4.130  0.0271 -0.1355 -0.0430
25334W        W43538   6.529   2.522   0.543 -0.1534  0.1491  0.0731
25335W        W43539  12.222  13.834   4.309  0.0144  0.2110  0.2129
25336W        W43540   3.807   8.673  13.918  0.0394  0.0518  0.0357
25337W        W43541  12.260   8.642   4.690  0.1783 -0.0345 -0.4122
25338W        W43542   0.781  13.132   2.022  0.0053 -0.0541 -0.0928
25339W        W43543   7.307   6.084   2.405  0.1637 -0.1136  0.1552
25340W        W43544  13.315   3.753   2.520  0.0907 -0.1657  0.3285
25341W        W43545  16.602  13.853   0.037  0.2769 -0.0573  0.0791
25342W        W43546  15.381   3.959   2.181  0.1222 -0.3301  0.0674
25343W        W43547   5.861  15.523   1.196 -0.1185 -0.0100  0.1581
25344W        W43548  17.078  13.264   3.583 -0.2631 -0.2345  0.2449
25345W        W43549   1.370  16.492   0.482 -0.0887 -0.0809  0.0719
25346W        W43550   6.995  11.425  15.324  0.0025 -0.1939  0.2395
25347W        W43551   3.878  12.170  16.465  0.1335 -0.1460  0.0186
25348W        W43552   5.690   3.588   4.176  0.0484 -0.0595  0.1612
25349W        W43553  16.736  13.278  17.015 -0.2881 -0.0638 -0.0015
25350W        W43554   4.162   9.774  16.522 -0.3060  0.2007  0.2322
25351W        W43555   7.451   9.796   0.955 -0.1024  0.0008  0.0782
25352W        W43556   4.343   9.869  14.776  0.0521 -0.0780  0.3785
25353W        W43557  14.628   5.603  15.754  0.1123  0.1709  0.1446
25354W        W43558  16.110   2.712  13.571  0.1636 -0.0669  0.1889
25355W        W43559   3.188  15.804   2.733  0.0222  0.0301  0.1420
25356W        W43560  13.023  16.481   2.322 -0.1188 -0.3720 -0.1950
25357W        W43561   9.844   1.867  15.351  0.0716 -0.1924  0.0924
25358W        W43562   5.254  12.517   1.549 -0.1592 -0.3844 -0.0972
25359W        W43563  12.387   4.265   5.578  0.2169 -0.3855  0.0031
25360W        W43564   0.653  11.285  16.621  0.1936  0.0098  0.0322
25361W        W43565  16.803  13.455   1.846 -0.2702  0.0549 -0.3081
25362W        W43566   5.291  16.307   0.783  0.0048 -0.0096 -0.2295
25363W        W43567   2.053  13.570   1.772 -0.0707  0.0724  0.0857
25364W        W43568  15.482   5.861   2.474  0.1251 -0.2391  0.1734
25365W        W43569  10.492   7.776  13.646  0.0821  0.1253  0.0193
25366W        W43570  14.922   0.580   1.648  0.1219  0.1118 -0.2050
25367W        W43571   1.745   2.981  12.756 -0.1779  0.2478  0.4908
25368W        W43572   8.959  15.909  12.440 -0.1108  0.1973 -0.0124
25369W        W43573   4.057   5.214  14.005 -0.0362  0.0181  0.1866
25370W        W43574   8.521   8.485   5.577  0.0343  0.2412  0.0610
25371W        W43575  15.686  14.279   4.770  0.2757  0.1068  0.0325
25372W        W43576   9.663   4.211  16.434  0.1582  0.0797 -0.1605
25373W        W43577   2.406   7.468  13.715  0.2666  0.3218 -0.2670
25374W        W43578   2.570  11.090   0.761  0.0720 -0.1970  0.1117
25375W        W43579   7.386   7.994   2.346  0.0941 -0.2466  0.0489
25376W        W43580  16.025  12.635   1.713  0.0293 -0.0418  0.0734
25377W        W43581  14.138   6.753   3.429  0.3074  0.1943  0.0993
25378W        W43582  11.933  15.256  12.092 -0.0142  0.0076  0.0872
25379W        W43583  16.582   9.017  12.226  0.1283  0.0411 -0.2512
25380W        W43584  12.985  14.760  14.009 -0.1350  0.4855 -0.1946
25381W        W43585  14.476  17.240   2.756  0.0390  0.2298 -0.1828
25382W        W43586   4.976   3.540   4.836  0.3575  0.1590 -0.1234
25383W        W43587   7.885   6.935  17.026  0.0220 -0.4740 -0.1043
25384W        W43588   7.796  16.907  13.930  0.0619  0.0814  0.4890
25385W        W43589   8.001   4.781   0.623 -0.0223 -0.1376 -0.1914
25386W        W43590   5.341  16.533  12.250  0.2557  0.2297  0.2517
25387W        W43591  13.791   5.686  14.269  0.0032  0.5584 -0.1371
25388W        W43592   3.955  13.072   3.933 -0.0200 -0.1904  0.1331
25389W        W43593  10.246   1.741   4.340  0.0615 -0.0959 -0.1110
25390W        W43594   2.681   1.865   0.965  0.2358 -0.0958  0.1508
25391W        W43595   5.038   1.772  16.485  0.2635  0.2086  0.0836
25392W        W43596   2.359   9.536  16.312 -0.3768  0.0970 -0.0589
25393W        W43597   5.723   9.350   5.117  0.1886 -0.1097 -0.2364
25394W        W43598  15.050   0.155   0.423 -0.0098  0.0834 -0.3108
25395W        W43599   3.374   9.263  13.461 -0.1296 -0.4518 -0.1560
25396W        W43600  11.251  14.533  15.005  0.4025  0.3190 -0.3088
25397W        W43601   4.984   6.586  17.063 -0.0015 -0.1901 -0.0137
25398W        W43602   1.167   8.770  15.701 -0.0312 -0.1266 -0.0313
25399W        W43603   4.731   8.106   0.987  0.2796 -0.2423 -0.0957
25400W        W43604   3.660   6.879  13.630 -0.0239  0.1681  0.2042
25401W        W43605   6.400   1.634  15.849  0.3936 -0.1795 -0.0812
25402W        W43606   8.578   3.482   1.741  0.0355  0.1642  0.0468
25403W        W43607  12.142  16.268  11.919  0.2674 -0.2019 -0.4408
25404W        W43608   1.928  11.347  15.812  0.0893 -0.1647  0.1417
25405W        W43609  16.555  16.554  16.568  0.1374  0.0605 -0.0100
25406W        W43610   1.919  15.988   2.979 -0.1478  0.0110  0.1793
25407W        W43611   6.790   6.500   4.389  0.0682  0.0358 -0.0315
25408W        W43612   0.137   0.323   1.802 -0.2588 -0.2763 -0.1058
25409W        W43613   4.346  16.928   3.151 -0.0582 -0.4170  0.2804
25410W        W43614   4.649   6.249  13.476  0.0996  0.0113  0.1058
25411W        W43615  16.448   1.253  16.795  0.2856 -0.1236  0.1365
25412W        W43616  15.908   6.766   3.862 -0.2283 -0.3195  0.0551
25413W        W43617   2.818  11.119   4.218  0.0632 -0.2169  0.0498
25414W        W43618  13.133   6.623   4.926  0.2263  0.0351 -0.0512
25415W        W43619   1.733   5.172   0.175 -0.0450 -0.0531  0.0360
25416W        W43620   7.989   9.279  12.818  0.2692  0.1919 -0.3786
25417W        W43621  14.906   8.140   4.654 -0.1379 -0.0458 -0.2216
25418W        W43622   2.917   5.853  13.155  0.3480 -0.1495 -0.0687
25419W        W43623  13.189  14.362  14.871  0.0978 -0.2670 -0.1683
25420W        W43624   4.402  14.894   0.254 -0.0028 -0.1326  0.3070
25421W        W43625  11.231   8.746   6.014 -0.0634 -0.1787  0.2087
25422W        W43626  16.736  10.940   2.234  0.2921  0.0315  0.1315
25423W        W43627  14.908  13.934   0.062  0.2029  0.0059 -0.0957
25424W        W43628  14.377   5.840  14.828 -0.0640  0.0073  0.0774
25425W        W43629   3.596   8.615   3.167  0.0318  0.0868  0.3653
25426W        W43630  15.489   9.572  16.573  0.3564  0.1322  0.0500
25427W        W43631  12.151   2.434  15.761 -0.0195  0.0456  0.0519
25428W        W43632  14.065  12.857   3.456 -0.4145 -0.1340 -0.0389
25429W        W43633   0.438   9.246  15.850 -0.1457 -0.1884 -0.0163
25430W        W43634   8.306   4.816   2.929  0.0087  0.2734  0.2662
25431W        W43635  12.287   7.150   0.695  0.0854 -0.5460  0.1307
25432W        W43636  10.148  13.377   1.172  0.1018 -0.0901 -0.1112
25433W        W43637   0.699   4.660  13.182  0.0707  0.2454  0.0030
25434W        W43638   6.934  13.422  16.054 -0.0007  0.3177 -0.1999
25435W        W43639  13.002   3.576   4.737 -0.0126  0.1820  0.0296
25436W        W43640  13.495   9.164  17.053  0.1287  0.1074 -0.0626
25437W        W43641   3.878   8.130   4.931 -0.0583  0.0664  0.0335
25438W        W43642   8.170  12.863  13.012  0.0836  0.3690  0.1621
25439W        W43643  13.174  10.148  11.020  0.3666  0.0286 -0.0905
25440W        W43644   2.917  10.947  16.825 -0.3732  0.0999 -0.0082
25441W        W43645  15.373   1.698  12.565 -0.2398 -0.0400  0.1334
25442W        W43646  14.189   9.914   0.475  0.1024 -0.1646  0.0973
25443W        W43647   6.402   0.977   3.728  0.0656  0.1989  0.1510
25444W        W43648  10.061   2.299   3.589  0.1359  0.0758 -0.0869
25445W        W43649   8.877   9.100  14.702 -0.2554  0.0738 -0.0821
25446W        W43650   7.788  15.985   4.886 -0.0114 -0.1009 -0.4190
25447W        W43651  14.918  14.122  15.148  0.2963 -0.3022  0.2270
25448W        W43652  15.161  14.530   4.446  0.1474 -0.0428 -0.3992
25449W        W43653  10.733   3.950   4.196  0.0740 -0.0070 -0.0677
25450W        W43654  11.429   1.288   0.902 -0.2361  0.2609 -0.1552
25451W        W43655   2.396  16.336   4.606 -0.1759 -0.0155 -0.1044
25452W        W43656  15.011   1.893  12.283  0.1177 -0.0415 -0.1212
25453W        W43657  13.032   1.552  13.060 -0.3486 -0.0046 -0.0302
25454W        W43658  16.712  12.105   0.093 -0.1638  0.1411  0.2005
25455W        W43659   1.772  10.954   2.377 -0.0908 -0.0237  0.0758
25456W        W43660   0.975   2.785  16.297  0.3359 -0.0065  0.1653
25457W        W43661  16.666  11.802  16.288 -0.0589 -0.1489 -0.1248
25458W        W43662   5.434   7.530  14.035 -0.0773 -0.2486 -0.0488
25459W        W43663  17.015   9.246  11.956 -0.1061  0.1019  0.0877
25460W        W43664   6.490   7.739  13.863  0.3065  0.1016  0.0847
25461W        W43665  14.368   2.239   3.274  0.2669 -0.0849 -0.0503
25462W        W43666   7.161   5.336  14.443  0.3367 -0.5127 -0.1164
25463W        W43667   3.719   3.666  15.773  0.2209 -0.0075  0.0855
25464W        W43668   0.075   5.465   3.089 -0.1959  0.0580  0.0638
25465W        W43669   5.455   8.665   4.148 -0.0562 -0.1761 -0.1094
25466W        W43670  15.034   8.619  14.698 -0.1848  0.0815 -0.1084
25467W        W43671   9.523   1.785   3.691  0.0800 -0.0578  0.0558
25468W        W43672   2.645   0.506   4.767  0.4814  0.0133  0.2359
25469W        W43673   5.653  14.559  13.135 -0.2597  0.1444 -0.3250
25470W        W43674  13.136  13.242   1.690  0.3294 -0.0588 -0.2784
25471W        W43675   3.981  13.421   4.389 -0.2508 -0.2134 -0.2589
25472W        W43676   4.287  13.894   5.082 -0.0222 -0.2715  0.0567
25473W        W43677   5.911   8.980   1.331 -0.3297 -0.0912  0.1482
25474W        W43678   4.241  12.466   4.596  0.0172 -0.1095  0.0132
25475W        W43679   0.332   0.836   5.526  0.0117  0.3343  0.0221
25476W        W43680   6.099  15.136  14.745  0.0653 -0.0082  0.1350
25477W        W43681   4.933   7.542  16.699  0.0497 -0.1714  0.5584
25478W        W43682   2.714  11.909  17.046 -0.1122 -0.2922 -0.0304
25479W        W43683  10.638   9.924   3.860 -0.3810  0.1662 -0.0273
25480W        W43684  14.950  16.157   2.576 -0.3443  0.1788  0.0504
25481W        W43685   2.255   3.580  14.531  0.2167  0.1259  0.0985
25482W        W43686  14.122   5.105   3.550  0.3003 -0.0118 -0.0238
25483W        W43687  13.818  16.977  15.216  0.2264 -0.3941 -0.2433
25484W        W43688   1.495  15.633   0.225 -0.0948 -0.0024 -0.2135
25485W        W43689  15.357  11.336  15.827 -0.0138 -0.1931  0.1558
25486W        W43690   2.185  12.625  11.003  0.1377 -0.0418  0.1290
25487W        W43691  11.151  14.413   2.668  0.0204 -0.0617  0.0804
25488W        W43692   6.379  10.343   0.742 -0.0390  0.2226 -0.0490
25489W        W43693  13.884   8.658  15.428  0.0348 -0.0951 -0.0364
25490W        W43694  16.896   4.188   2.167 -0.3685 -0.1952  0.1287
25491W        W43695  11.460  14.530   2.263 -0.1745 -0.0497  0.1311
25492W        W43696   4.883   6.752  16.223  0.0444  0.1372 -0.0970
25493W        W43697   0.575   7.814  14.609  0.0617  0.2981  0.1276
25494W        W43698   0.285   4.309  14.599  0.1418 -0.0839 -0.2312
25495W        W43699   6.813  10.698  16.104 -0.1800  0.0408  0.0464
25496W        W43700   8.675  12.249  15.294 -0.0179  0.0443 -0.3976
25497W        W43701   7.953  11.542   3.989  0.1666 -0.0998 -0.1894
25498W        W43702  13.782   4.216   0.850  0.1325  0.1892 -0.0949
25499W        W43703   1.800  14.912  12.492 -0.0892 -0.1473  0.0546
25500W        W43704   1.766   2.182  14.183  0.0748  0.2243  0.2252
25501W        W43705   8.890  16.732   4.487  0.0530  0.1847  0.1082
25502W        W43706  10.335   9.033   3.385 -0.1601 -0.1641 -0.0119
25503W        W43707  12.172   4.598   2.289 -0.4063 -0.0254  0.0309
25504W        W43708  14.435  12.398   2.419  0.1606 -0.1612 -0.1219
25505W        W43709  11.341   7.257  13.779  0.2923  0.0914 -0.0406
25506W        W43710  14.474  14.084  13.085 -0.0456  0.2448  0.2272
25507W        W43711   6.142   4.452   6.141 -0.1375 -0.1341 -0.2039
25508W        W43712   2.071   5.628   5.040  0.2995 -0.2388 -0.1914
25509W        W43713   7.219   7.847   2.886 -0.2627 -0.2049  0.0645
25510W        W43714   7.206  15.703   1.195 -0.1933 -0.0235 -0.2782
25511W        W43715   3.412   6.416   2.471  0.1238 -0.2567  0.1580
25512W        W43716   0.874  11.563  16.987 -0.1029  0.2387  0.0408
25513W        W43717   8.427  11.399  13.537 -0.1511  0.3405  0.1808
25514W        W43718  12.187   2.427  13.721  0.0600  0.0979  0.0029
25515W        W43719  16.325  10.587  14.413 -0.2444 -0.2485 -0.4374
25516W        W43720   8.303  15.719   3.979 -0.1095 -0.3426  0.2260
25517W        W43721   5.289   9.295  13.823  0.3244 -0.2227  0.1001
25518W        W43722   9.063   0.165   4.860  0.1119 -0.1340 -0.0681
25519W        W43723   8.114  15.252   2.218  0.0005 -0.1161  0.2031
25520W        W43724   8.509   9.595   2.917  0.0786  0.4509 -0.0724
25521W        W43725   7.183   2.606   3.665 -0.1423 -0.0724 -0.2275
25522W        W43726   7.043   0.460   3.593  0.2232 -0.1247  0.1559
25523W        W43727  15.229   3.063  14.057  0.0823  0.1530  0.1406
25524W        W43728  17.472  12.902  14.777 -0.0520 -0.1135  0.0623
25525W        W43729   4.270   2.237   1.113 -0.1701  0.0242  0.2045
25526W        W43730  14.605   1.057  15.947 -0.0185 -0.1802 -0.4067
25527W        W43731  17.359   4.866   1.140 -0.0000 -0.0943 -0.0619
25528W        W43732  11.257   0.462  15.009 -0.0398  0.2654  0.2246
25529W        W43733   9.978   1.131  14.244  0.0224 -0.1621  0.2406
25530W        W43734  12.525  15.163  12.737  0.0386  0.1069  0.2913
25531W        W43735  10.011  17.077  12.715 -0.2131  0.0147 -0.0826
25532W        W43736   5.608  12.324   4.272  0.1630 -0.2140  0.0239
25533W        W43737  12.326  12.262  16.515  0.1294 -0.2333 -0.1349
25534W        W43738   3.887   9.415   0.291  0.1278  0.3407 -0.3546
25535W        W43739   3.517   4.256  14.745 -0.3765 -0.0214 -0.1026
25536W        W43740  17.385   5.377  12.728  0.1390 -0.2250 -0.0495
25537W        W43741   9.151  14.619   2.444 -0.1270  0.1042  0.2560
25538W        W43742   3.498   9.829   4.557 -0.1015  0.0896 -0.4329
25539W        W43743   1.223   2.562   1.206  0.1631  0.0591 -0.1392
25540W        W43744   2.177  11.060   2.655 -0.2590  0.1644 -0.0394
25541W        W43745  15.177  15.928   4.031  0.0078  0.1696 -0.1090
25542W        W43746   8.527  11.189  15.383  0.0040 -0.1170  0.1725
25543W        W43747   7.005  10.917  16.933  0.0309  0.2110  0.2017
25544W        W43748  15.696  14.361  14.223  0.0771  0.0321 -0.0315
25545W        W43749  10.373   9.428  14.620  0.0475  0.2935 -0.0993
25546W        W43750   9.572  11.224  12.746 -0.2344 -0.3208 -0.0012
25547W        W43751   6.363   8.381  12.317 -0.0857 -0.3442  0.1515
25548W        W43752   0.730   6.632   2.353 -0.0269  0.0176  0.2249
25549W        W43753  12.640   4.008  12.608  0.3062 -0.1149  0.0810
25550W        W43754   9.180  10.710  12.145  0.3640  0.1327  0.0060
25551W        W43755   1.282   6.728   0.064 -0.1616  0.0951  0.1690
25552W        W43756   8.449   2.734  15.171  0.3265 -0.0203 -0.1052
25553W        W43757  13.454   2.149  14.452 -0.0319 -0.0150  0.0597
25554W        W43758  15.900   6.161  16.414 -0.4653  0.1046  0.3017
25555W        W43759  10.486  10.247   1.760 -0.1237  0.1744  0.2985
25556W        W43760   7.396   3.306   0.088  0.0116 -0.1738 -0.1838
25557W        W43761   9.013   7.648  13.881  0.3146 -0.1343 -0.1587
25558W        W43762   5.485  15.884  15.058 -0.0232  0.2956 -0.0181
25559W        W43763  10.231  15.144  17.163 -0.0019  0.3148 -0.0340
25560W        W43764   8.218  14.184  14.388 -0.0450 -0.0241 -0.3855
25561W        W43765   0.906   9.203   4.372 -0.4302  0.1862 -0.3018
25562W        W43766  14.086   1.288   3.704  0.0387 -0.0228  0.2505
25563W        W43767   9.223  12.019   2.065 -0.2795  0.0792  0.2948
25564W        W43768   9.068   9.018   2.221 -0.0491 -0.1842  0.2485
25565W        W43769   7.011   9.067   3.164 -0.2173 -0.2298  0.1383
25566W        W43770   4.268  14.858   2.341  0.0679  0.0297 -0.0772
25567W        W43771   3.492  12.804  16.072 -0.0230  0.3288  0.1437
25568W        W43772  13.720  11.873  15.482 -0.1350  0.1605  0.2389
25569W        W43773   3.785   3.868  13.781 -0.0555  0.0603  0.3730
25570W        W43774   6.214   5.799  12.845 -0.1507  0.3248  0.1132
25571W        W43775   4.702  13.921  13.455  0.2099 -0.1784  0.2598
25572W        W43776   0.314   4.454  17.114  0.1737 -0.2074  0.3186
25573W        W43777  14.846   2.044  16.004 -0.2235 -0.0380  0.1463
25574W        W43778  14.917   2.989   1.776 -0.1193  0.0749 -0.1493
25575W        W43779   5.202   0.542   4.440  0.3486 -0.0125 -0.1975
25576W        W43780   4.910   9.937  12.725 -0.0073  0.1093  0.1678
25577W        W43781  12.809   2.857  12.762  0.1657  0.1939  0.0498
25578W        W43782   3.627   6.018  12.331  0.0872  0.1620 -0.1540
25579W        W43783   4.264  11.827  13.858  0.1389 -0.1101 -0.1497
25580W        W43784  10.234  10.537  14.365 -0.1690 -0.2681 -0.0710
25581W        W43785   0.222   6.849  14.576  0.0150 -0.1460 -0.3381
25582W        W43786   7.085   9.092  14.179  0.0702  0.1352  0.0852
25583W        W43787   4.831  15.909   1.948 -0.0483 -0.1318  0.3093
25584W        W43788   7.395   4.107  12.257 -0.1709 -0.1447 -0.0216
25585W        W43789  14.101  14.518   2.777  0.2033  0.1343 -0.0721
25586W        W43790   7.406   4.796   2.278 -0.0350  0.0435  0.1584
25587W        W43791   9.522  17.018   1.486 -0.1247  0.0857 -0.1397
25588W        W43792  13.736  11.269  14.594  0.0766 -0.1312  0.1581
25589W        W43793   2.922  13.293   4.501 -0.0242  0.3620 -0.1180
25590W        W43794   0.346   1.738   1.549  0.0310 -0.0618  0.1851
25591W        W43795  10.123  10.414  12.528  0.1730  0.1953 -0.3096
25592W        W43796   6.979  10.736   5.131  0.1124  0.1163 -0.0029
25593W        W43797   2.964  13.444  16.029  0.0655  0.0865  0.0374
25594W        W43798  17.480   1.591  13.459 -0.1867  0.1113 -0.1396
25595W        W43799   2.145   1.108  12.930  0.2844 -0.0931 -0.0262
25596W        W43800  15.064   6.963   2.669  0.3347 -0.2674 -0.0009
25597W        W43801   3.756  12.852   1.504 -0.0192  0.1545 -0.3682
25598W        W43802   4.001  12.475   2.542  0.1334  0.1027  0.1498
25599W        W43803   3.026   2.957   0.646 -0.1910 -0.0108 -0.1673
25600W        W43804   2.726  11.663  12.749 -0.2641  0.1858 -0.2698
25601W        W43805   8.157   3.470   3.467  0.1213  0.0988 -0.0424
25602W        W43806   1.504  13.551   1.763  0.1701  0.0311  0.1931
25603W        W43807   8.109  12.882  16.293  0.2407 -0.1180 -0.2117
25604W        W43808   2.384  11.187  13.803  0.0155  0.1033 -0.2350
25605W        W43809  17.335   5.035   0.191 -0.1108  0.2439 -0.0533
25606W        W43810   9.956  17.238  14.783 -0.0304 -0.0126 -0.1196
25607W        W43811   9.322   1.763   1.832 -0.3522  0.0270 -0.0620
25608W        W43812   5.005   9.935   1.161 -0.2772 -0.1420 -0.1281
25609W        W43813   0.545   5.166   4.153  0.0792  0.1006  0.0706
25610W        W43814  13.482   6.000  16.806  0.0210  0.2664 -0.0514
25611W        W43815   5.114  16.448  15.591 -0.2081  0.0620 -0.0332
25612W        W43816  14.883  11.009  12.179 -0.0120 -0.2115 -0.1800
25613W        W43817   9.365  12.905  15.351  0.0771  0.0342 -0.1769
25614W        W43818  16.736  17.013  15.809 -0.0112  0.0785  0.0352
25615W        W43819   4.814   6.918   1.408 -0.0604  0.3487  0.2368
25616W        W43820  14.572  16.430   4.306  0.0898 -0.0306 -0.1106
25617W        W43821  12.433  12.709   0.302  0.1061  0.2073 -0.0688
25618W        W43822   1.121  15.340   1.812 -0.1398  0.2463  0.0018
25619W        W43823   0.929  14.090   2.238  0.0223  0.0716 -0.1077
25620W        W43824   4.660   5.835  13.180  0.1105 -0.0005 -0.3998
25621W        W43825   5.867  13.451   1.065 -0.1974 -0.1117 -0.0534
25622W        W43826  16.290   1.796   0.772 -0.0091  0.0447 -0.2400
25623W        W43827   7.356  10.810   4.841  0.0934  0.3198  0.0093
25624W        W43828  12.358   3.589  14.342  0.0662  0.1161 -0.1314
25625W        W43829   6.639   1.310   3.435 -0.1583  0.2389 -0.2499
25626W        W43830   3.625  13.468   3.828  0.0709 -0.1893  0.3220
25627W        W43831   0.863  17.412  15.564  0.1526  0.0733 -0.2300
25628W        W43832  14.558   2.314   2.830 -0.0358  0.1380 -0.1674
25629W        W43833  17.377   4.161   3.383 -0.3451 -0.1772  0.0407
25630W        W43834  11.136   8.051   1.051  0.0958  0.0145  0.0230
25631W        W43835  12.296  10.004  14.767  0.1656 -0.0956  0.0466
25632W        W43836  14.591  13.655  11.711 -0.1108 -0.2833  0.3119
25633W        W43837  13.041   4.743   1.808 -0.0620 -0.1177  0.0575
25634W        W43838  11.216   8.924  14.439  0.1061  0.1759  0.1120
25635W        W43839  11.097   1.320  16.695 -0.1243  0.1622  0.2015
25636W        W43840  10.667  15.847  15.529 -0.0658  0.0083  0.1222
25637W        W43841   5.317  13.456   0.479  0.1500  0.0401  0.0092
25638W        W43842   4.736   3.752   3.843 -0.1617 -0.3454  0.1191
25639W        W43843   0.416  11.848   0.519 -0.0954 -0.1010  0.1869
25640W        W43844   5.775   3.644  13.750 -0.0271  0.3022 -0.2132
25641W        W43845   7.966  11.387   3.013 -0.0338 -0.0146 -0.1388
25642W        W43846  10.716  10.625   1.260  0.1359  0.0404 -0.1550
25643W        W43847   8.084  13.591   1.711 -0.0693 -0.0496  0.2395
25644W        W43848  12.332  17.400   1.962  0.0738  0.0455  0.2190
25645W        W43849  16.029   0.060   4.354  0.0559 -0.0351  0.2669
25646W        W43850   7.694  14.520  14.845  0.1196 -0.1382 -0.0615
25647W        W43851  11.762   6.911  12.314  0.0693  0.0557  0.0848
25648W        W43852  12.848  16.624   1.451  0.1686 -0.2218 -0.1655
25649W        W43853   7.914  16.699  16.673  0.1250  0.3492 -0.0283
25650W        W43854   2.740   8.364   2.688  0.3991  0.1653 -0.1512
25651W        W43855   7.302  16.970  12.828 -0.0224  0.0835 -0.0134
25652W        W43856   8.431  13.388  15.658 -0.3825 -0.0215  0.1725
25653W        W43857   1.709  15.589  12.205 -0.0999 -0.4223  0.1575
25654W        W43858   7.430  13.314  12.828 -0.1932 -0.0743 -0.2954
25655W        W43859  11.039   6.494  13.368 -0.2692 -0.1431  0.2713
25656W        W43860  14.942   9.682  14.779 -0.0536 -0.3075  0.0413
25657W        W43861  16.477   2.313  15.546  0.0581  0.3063  0.0784
25658W        W43862   4.924  10.094  16.206 -0.2731  0.1167  0.1204
25659W        W43863  17.007  13.411  16.614 -0.0777  0.1997 -0.0005
25660W        W43864  10.805  13.117  12.124 -0.0759 -0.0555 -0.0592
25661W        W43865   4.855  17.186  16.552 -0.1095 -0.1218 -0.1850
25662W        W43866  16.785  10.602  15.694 -0.1715 -0.2003  0.0076
25663W        W43867  15.925  13.603  13.036 -0.1496 -0.0102 -0.0197
25664W        W43868  10.861   5.477   0.670  0.0842  0.2176  0.0602
25665W        W43869   8.485   3.814  16.996 -0.0863  0.0048  0.0095
25666W        W43870   9.602   8.717   2.934 -0.1228 -0.2404  0.1120
25667W        W43871   9.493   4.192   0.705  0.2724  0.0274 -0.1821
25668W        W43872  10.833   8.061  12.258  0.1810  0.2107  0.1157
25669W        W43873  11.442   1.112  14.044  0.1830  0.1777 -0.0385
25670W        W43874   8.362  11.559   4.288  0.2673  0.2182 -0.2434
25671W        W43875  12.984   2.071  15.437  0.0778 -0.1853 -0.0657
25672W        W43876  14.971   0.105  14.871 -0.2354 -0.1762  0.0481
25673W        W43877  15.033   5.954   0.066 -0.0300 -0.3339 -0.1190
25674W        W43878   0.410  15.424  15.144 -0.1875 -0.0016  0.0694
25675W        W43879  11.037   3.233   2.589  0.0283  0.0713  0.0417
25676W        W43880   7.976  10.236   2.338 -0.1539  0.2190  0.0807
25677W        W43881  14.140  11.654  12.435  0.0726  0.0701 -0.2153
25678W        W43882   2.196   1.750  16.085 -0.0227 -0.0463  0.0239
25679W        W43883  10.583  16.290   2.670  0.0935  0.0695 -0.0993
25680W        W43884   4.555   8.207  11.507  0.0703 -0.4133  0.0008
25681W        W43885   9.171   3.433   0.494  0.4246 -0.2804 -0.3038
25682W        W43886   5.738  10.211   2.999  0.0176  0.1585  0.1320
25683W        W43887  14.816  12.610  15.368  0.1170  0.1979  0.0127
25684W        W43888   4.719  16.573   1.373  0.2465 -0.1756  0.0115
25685W        W43889  13.112  10.731   5.553  0.4786  0.0779  0.1414
25686W        W43890  14.064   2.563   0.295  0.1870 -0.3546  0.0293
25687W        W43891   8.606  10.271  17.213 -0.1076 -0.1334 -0.1128
25688W        W43892   3.178  16.695  16.653  0.0286  0.0756 -0.0092
25689W        W43893  15.859  14.865  14.292  0.0028 -0.1312 -0.1305
25690W        W43894   5.639   7.810  16.710  0.0633 -0.0481  0.1072
25691W        W43895  15.429  14.491  15.639 -0.0054  0.0577 -0.3641
25692W        W43896  15.516   4.884   0.536  0.2276  0.1603 -0.0005
25693W        W43897  11.522   3.037   3.759  0.0798  0.2444 -0.4733
25694W        W43898   5.452   7.079   1.228  0.3264  0.4195 -0.1284
25695W        W43899   0.446  14.301   1.374 -0.4097  0.3409 -0.0609
25696W        W43900   0.154  13.265   0.039  0.3534 -0.1066 -0.2214
25697W        W43901  11.809   5.096  16.868  0.0155 -0.0576 -0.0796
25698W        W43902   1.759   5.834   1.932 -0.2844  0.1920  0.0325
25699W        W43903  11.767  10.197  16.409  0.3682 -0.0054  0.4450
25700W        W43904  12.415  16.732   0.418  0.3375 -0.0427  0.0227
25701W        W43905   7.452  11.478   2.854 -0.0698 -0.2798  0.0655
25702W        W43906   5.229  12.898   0.609 -0.0431  0.1248  0.0922
25703W        W43907  15.200  13.132   1.551 -0.1636 -0.3200 -0.5731
25704W        W43908   8.433   6.520   1.686  0.1451  0.0658  0.1270
25705W        W43909  16.521  12.579  16.035  0.0462  0.1941 -0.4059
25706W        W43910   1.856   7.984  12.946 -0.2176 -0.1357 -0.0217
25707W        W43911  17.321   0.503  13.139 -0.0852  0.1297  0.2699
25708W        W43912  12.349   2.923  15.178 -0.0174  0.0445  0.0470
25709W        W43913   4.563  14.780  13.836 -0.1431 -0.0512  0.2053
25710W        W43914   7.681   9.417   1.165 -0.3928  0.3296 -0.1650
25711W        W43915   0.682   6.510   0.714  0.1109 -0.0481  0.0775
25712W        W43916  16.358  12.602   4.422 -0.1682  0.0856 -0.1150
25713W        W43917  14.877  10.138  15.166 -0.3008  0.1792  0.1501
25714W        W43918  14.563  10.310  16.481  0.0780  0.0015  0.3306
25715W        W43919   6.916   9.493   0.995  0.0671 -0.1165 -0.1207
25716W        W43920  11.561   1.534  16.519  0.4990  0.0715  0.1504
25717W        W43921  16.667  14.964  15.152  0.0352  0.2145  0.1611
25718W        W43922  14.870   7.910   4.140  0.0718  0.3740  0.2153
25719W        W43923  13.417  16.760   1.265  0.2485 -0.0403  0.2829
25720W        W43924   2.799   4.236  15.637  0.0808  0.0042  0.0278
25721W        W43925   8.451  14.523  12.229  0.1466 -0.0944 -0.1892
25722W        W43926  11.224   6.930   1.130  0.0692  0.0494  0.0284
25723W        W43927   1.649   6.144   0.705 -0.0508  0.1678 -0.1724
25724W        W43928   6.831  14.889   4.257  0.2783  0.1984  0.0283
25725W        W43929  10.421  13.506   3.250 -0.1205 -0.1496  0.1669
25726W        W43930  11.659  16.219  12.345 -0.1318  0.1195  0.2232
25727W        W43931  11.735   8.151   2.877 -0.3056 -0.1925  0.0864
25728W        W43932  10.120  13.937  13.062 -0.0154  0.2111 -0.1168
25729W        W43933   8.170  10.803   0.678  0.1543 -0.3114  0.0095
25730W        W43934   1.896   3.842   2.208 -0.2532 -0.0349 -0.1179
25731W        W43935   7.542   0.533   4.337  0.0145  0.0537  0.1459
25732W        W43936   9.857   1.436   3.513  0.0205  0.2223  0.0600
25733W        W43937  17.410   8.116  14.955 -0.1460 -0.0964  0.1109
25734W        W43938   7.583   4.587   2.785 -0.0821 -0.1218  0.0635
25735W        W43939   3.150   3.224   5.191 -0.1579 -0.0565 -0.0989
25736W        W43940   6.707   8.937  16.138  0.1083  0.0574 -0.0535
25737W        W43941   6.464  16.041  14.905 -0.1038 -0.0033  0.0803
25738W        W43942   7.999  13.429  13.097  0.1985  0.3567 -0.2901
25739W        W43943   3.080   3.257  16.129  0.0388  0.0682 -0.1447
25740W        W43944  13.498  13.923  14.885 -0.0117  0.0415 -0.2799
25741W        W43945  11.641   3.703   4.523 -0.0572 -0.2630 -0.2086
25742W        W43946  10.765   2.712   5.104 -0.0959 -0.1916  0.2175
25743W        W43947   0.331   4.084   4.698  0.0085  0.1778  0.0849
25744W        W43948  10.348  15.106   1.841 -0.1570 -0.1881  0.4046
25745W        W43949  15.139   8.575   4.724  0.1003  0.1108  0.0836
25746W        W43950  10.460  13.996  14.962  0.0795 -0.0683  0.0066
25747W        W43951  14.599   5.135   1.413  0.0876  0.3708  0.0816
25748W        W43952   5.414   8.947   3.055  0.0134  0.4083 -0.0729
25749W        W43953  10.430   0.960   3.050  0.1687  0.0128 -0.4900
25750W        W43954   6.134   1.284   4.078  0.4961  0.3374 -0.0778
25751W        W43955  15.372   9.511  17.078  0.2065 -0.0283 -0.0447
25752W        W43956   1.451  15.268   1.413 -0.1324  0.1819  0.1253
25753W        W43957   9.779   1.293  15.198  0.1303  0.0808 -0.0486
25754W        W43958  12.982  17.409  17.242  0.0880  0.2975 -0.0178
25755W        W43959   4.275  14.235   1.687  0.0355  0.2111  0.0269
25756W        W43960  10.750   9.053  12.334 -0.3252 -0.4097 -0.0259
25757W        W43961  14.400  14.188   4.029  0.2595 -0.0109 -0.0703
25758W        W43962   7.081   6.608   4.024  0.2891 -0.3719 -0.2966
25759W        W43963  11.254  12.346   4.086 -0.0697 -0.0013  0.2847
25760W        W43964   3.067   1.463  17.100 -0.0195 -0.0857 -0.0598
25761W        W43965   2.998  17.509   1.824 -0.0123  0.1053 -0.2555
25762W        W43966  13.332   9.105  14.680 -0.0278 -0.1138  0.1643
25763W        W43967   8.380   4.973   2.443 -0.2348  0.4002  0.2455
25764W        W43968  13.483  17.440   3.436  0.0794  0.0842 -0.2741
25765W        W43969  14.714   1.431   5.434 -0.0161  0.1187  0.2394
25766W        W43970  14.989   8.233  12.351 -0.3975 -0.1014 -0.3901
25767W        W43971   5.470   5.306   5.325  0.0528  0.1906 -0.1382
25768W        W43972  11.080   7.707  13.674  0.0744 -0.0452  0.2700
25769W        W43973   0.300  13.510  15.278 -0.0310  0.3276 -0.3549
25770W        W43974   5.062  17.471  12.156 -0.1061  0.1057  0.1269
25771W        W43975  16.196  15.501  15.884 -0.1995 -0.1046  0.2581
25772W        W43976  16.952  12.457   4.236  0.0449  0.3252  0.0318
25773W        W43977  12.949  15.921   3.651  0.1024  0.0638 -0.0192
25774W        W43978  15.371  16.460  12.200  0.1601  0.1433  0.0230
25775W        W43979  17.366   8.470  16.250 -0.2344 -0.1147 -0.2062
25776W        W43980   7.548   7.155  15.477 -0.0098 -0.0922  0.1139
25777W        W43981   4.640   3.959   3.177  0.0459 -0.1308 -0.5069
25778W        W43982  12.069   8.932  11.799  0.3752 -0.1446  0.2737
25779W        W43983  10.817  13.665   0.772 -0.2388 -0.0472  0.1768
25780W        W43984   7.381  14.250   1.946 -0.5174  0.2736 -0.1052
25781W        W43985   8.700  16.266  15.189 -0.0334  0.0322 -0.0308
25782W        W43986  17.442   0.987  16.509 -0.1969 -0.3114 -0.1316
25783W        W43987   0.050  14.083   4.370 -0.0042  0.0153 -0.4096
25784W        W43988  15.199  16.913  14.048  0.0034  0.2317  0.2247
25785W        W43989  10.649   4.783   3.735  0.0452  0.1712  0.2324
25786W        W43990   5.975  14.747   4.507  0.0806  0.0402  0.1291
25787W        W43991   2.178  15.177   3.309 -0.1928  0.1581  0.1119
25788W        W43992  16.516  13.304   4.612  0.3292  0.1214 -0.1474
25789W        W43993   2.999   6.328  16.161 -0.0146 -0.0548  0.0392
25790W        W43994   4.112   6.224  15.119 -0.0481  0.3567  0.0070
25791W        W43995  11.989  15.227  14.824 -0.1055 -0.1111  0.4565
25792W        W43996  13.330   5.603  13.996 -0.0547 -0.2342  0.4099
25793W        W43997   1.987  16.130   5.624 -0.1463  0.2713  0.1694
25794W        W43998   6.615   0.453  13.427 -0.0667  0.2903  0.3500
25795W        W43999   8.346  11.405  12.009 -0.1361  0.1397  0.0518
25796W        W44000  13.119  17.086  16.518  0.0560  0.2221 -0.1099
25797W        W44001   1.311  13.265  13.724 -0.4381 -0.1157  0.2605
25798W        W44002  10.465   8.786  13.112  0.3563 -0.0465 -0.0920
25799W        W44003  10.443   9.418   4.704  0.1645 -0.0305 -0.0264
25800W        W44004  17.285   4.980  15.159 -0.0934  0.0694 -0.3262
25801W        W44005  13.361   0.098  14.943 -0.2599 -0.1832 -0.0416
25802W        W44006  11.059  13.940  15.967  0.2701 -0.1525  0.3933
25803W        W44007   8.005  14.909  13.134  0.1200 -0.2710 -0.1491
25804W        W44008   1.335  15.595   5.257  0.1669 -0.0291  0.0130
25805W        W44009  16.116   3.410   4.143 -0.0410 -0.2226 -0.4652
25806W        W44010   5.253  16.184   0.155 -0.1645 -0.0937 -0.1427
25807W        W44011   6.145  11.393   2.525  0.0194 -0.2444  0.1239
25808W        W44012  13.481  17.218   4.281 -0.0558  0.1250  0.0993
25809W        W44013   5.005   6.671   3.794 -0.3395  0.3585  0.2403
25810W        W44014  14.545  14.320   1.369 -0.3162 -0.0866 -0.1688
25811W        W44015   5.886   4.312  12.390 -0.0183 -0.0896 -0.2087
25812W        W44016   5.697   0.270   3.238  0.0584  0.3298  0.2084
25813W        W44017   6.750   0.513   2.456 -0.0846  0.0344  0.0110
25814W        W44018   7.186   4.001  13.206  0.1740 -0.2886  0.2522
25815W        W44019  17.306   3.666  16.254  0.1127  0.0500 -0.2233
25816W        W44020  14.358  16.191   3.322 -0.0554 -0.0481  0.0837
25817W        W44021   0.355  15.669   1.761 -0.0547  0.0527 -0.0691
25818W        W44022   5.624  15.122  17.096  0.2004  0.4004  0.0484
25819W        W44023   4.730   0.448   0.099 -0.0573  0.0260 -0.1026
25820W        W44024  13.979  15.350  12.251  0.0892 -0.1404 -0.3515
25821W        W44025   7.035   2.139   1.803 -0.2886  0.1493  0.1689
25822W        W44026   8.305   4.292   0.343 -0.2843 -0.3177  0.0900
25823W        W44027   8.971  17.424  14.121  0.0800 -0.2700 -0.1442
25824W        W44028  10.031  15.793  14.949 -0.0378 -0.1752  0.1921
25825W        W44029  17.465   3.476  14.424 -0.1476  0.1628 -0.3538
25826W        W44030   9.071  11.525  14.283 -0.0774  0.1606  0.1808
25827W        W44031   3.054   8.911  15.495  0.1911  0.2749 -0.2113
25828W        W44032   3.628   6.630   0.403  0.0094 -0.0639 -0.2524
25829W        W44033   8.254  10.728   2.323  0.3837 -0.0426  0.0054
25830W        W44034   7.790   4.177   0.317 -0.0313 -0.0628  0.2830
25831W        W44035   6.703  15.168  12.954  0.1175  0.3752  0.1569
25832W        W44036  16.605   1.041  14.380 -0.0404  0.1364 -0.1192
25833W        W44037   8.760  12.759  15.038  0.0871 -0.2507 -0.1030
25834W        W44038   6.174  14.896  12.759 -0.4131 -0.0278 -0.0913
25835W        W44039   5.651   5.550  15.261  0.1418 -0.1448  0.0021
25836W        W44040  16.884   4.435   3.581  0.0364  0.0287 -0.0783
25837W        W44041  11.233  16.782  13.089  0.0041  0.1315  0.1181
25838W        W44042  16.860  12.230  14.967  0.0972 -0.0769  0.0645
25839W        W44043  13.292   7.685   2.011  0.1546  0.0190 -0.1162
25840W        W44044  14.649   9.686  14.152 -0.3213 -0.3505 -0.1818
25841W        W44045   3.092  11.691   1.898 -0.0977 -0.2754  0.2191
25842W        W44046  13.076  10.190  16.314  0.3349 -0.1218 -0.0762
25843W        W44047  11.673   6.840  15.664  0.0378  0.0620 -0.0828
25844W        W44048   7.588  12.455  13.382 -0.3027 -0.3669  0.4715
25845W        W44049   2.986  17.424  12.322  0.1254  0.1023  0.3234
25846W        W44050  10.837   1.168   3.322  0.0383 -0.0165 -0.0651
25847W        W44051   0.226   5.914   4.545 -0.0907  0.2177  0.0045
25848W        W44052   6.329  14.548  12.349 -0.1016  0.1943 -0.1202
25849W        W44053   8.480  17.520  13.298  0.1600 -0.2346  0.0112
25850W        W44054   5.781   2.121  16.081 -0.2409 -0.1592 -0.0612
25851W        W44055  13.458   5.917  12.551 -0.3151  0.0812  0.1017
25852W        W44056  10.731   3.403   0.069 -0.2397 -0.0684 -0.3119
25853W        W44057   9.088  12.015  16.591  0.0944 -0.2940 -0.1076
25854W        W44058  16.630  10.124  12.343 -0.0582  0.2424  0.0240
25855W        W44059   7.621  10.309  14.651  0.1914 -0.0054 -0.0008
25856W        W44060   7.973  14.338  11.827  0.2379  0.0457 -0.0258
25857W        W44061   3.063  14.614   0.658  0.1281  0.2810 -0.0266
25858W        W44062  12.371   9.519  14.628 -0.0181 -0.0653 -0.1460
25859W        W44063   8.642  11.347  14.121 -0.1004  0.2728  0.0324
25860W        W44064   8.769   1.988   4.226  0.1539 -0.1589  0.3957
25861W        W44065   3.596   1.693  15.013  0.0658 -0.0717 -0.2037
25862W        W44066  10.138  10.057   2.806  0.1671  0.0601 -0.1173
25863W        W44067  15.288   8.457  13.894  0.1639 -0.1751  0.1910
25864W        W44068   1.099   0.093   0.465 -0.0095 -0.0046  0.1235
25865W        W44069   4.267   3.459   2.859 -0.0425  0.2134  0.0617
25866W        W44070  10.714  15.184   2.464  0.0993  0.1080 -0.4589
25867W        W44071   2.388  17.456  15.459 -0.0126 -0.0573  0.3188
25868W        W44072   1.970  13.175   4.824 -0.1269  0.0600  0.2155
25869W        W44073  17.089   9.416  16.237 -0.2437  0.0294  0.0326
25870W        W44074  12.041  10.938   2.651  0.0424  0.1888  0.0830
25871W        W44075  12.969   3.704   1.027 -0.3055  0.1068 -0.2098
25872W        W44076  12.980  15.650  16.817  0.1283 -0.3783  0.2756
25873W        W44077   3.284   6.850   1.086 -0.4117  0.1264 -0.1976
25874W        W44078  13.099   6.637  11.421  0.0581  0.2662  0.5282
25875W        W44079   8.937   1.979   1.173  0.2965 -0.1749 -0.0036
25876W        W44080   2.219  13.857  16.323 -0.1076  0.1586 -0.3151
25877W        W44081   2.065  14.262  15.922  0.0717 -0.0196  0.1297
25878W        W44082  15.041  11.900  16.410 -0.1235  0.4065 -0.1041
25879W        W44083   7.166   2.617  14.405 -0.0140 -0.2111 -0.2218
25880W        W44084  14.205   5.790   4.638  0.0434  0.1951 -0.0809
25881W        W44085  10.661   3.452   4.842  0.1842  0.2242  0.0536
25882W        W44086  11.623   8.302   2.360  0.1658 -0.0262 -0.0275
25883W        W44087   5.462   3.907   6.169 -0.1399 -0.1018 -0.0066
25884W        W44088  12.890  10.092   4.782 -0.1610  0.0544  0.2490
25885W        W44089   8.693   2.406  12.410 -0.1379  0.1217  0.0939
25886W        W44090  13.551  12.672   3.348 -0.0523 -0.0101 -0.0747
25887W        W44091  12.469   5.767   1.352  0.1215 -0.1949  0.0164
25888W        W44092  13.727   9.713   2.328  0.1020  0.1488 -0.1603
25889W        W44093  16.535   9.455  13.230 -0.1072 -0.1348 -0.2530
25890W        W44094   4.156   9.810   3.915  0.3876  0.3094  0.0282
25891W        W44095   5.702  13.843  14.227 -0.3232  0.2134  0.1637
25892W        W44096  10.780   2.918  12.905  0.1744  0.0659  0.0201
25893W        W44097  13.070  16.338   3.906  0.1338  0.2390  0.1697
25894W        W44098   4.894   7.148   3.511 -0.1494 -0.3762  0.1818
25895W        W44099  17.036  10.137   4.944  0.0584  0.1424 -0.0630
25896W        W44100  15.959   6.582   2.804 -0.4196  0.0851  0.1104
25897W        W44101  13.873   3.190   0.782  0.1824  0.0988 -0.0698
25898W        W44102  14.440   3.791  15.521 -0.2469 -0.4225 -0.0374
25899W        W44103   8.417  13.123  15.223 -0.1220 -0.2737  0.3831
25900W        W44104   1.105   1.099   4.692 -0.2506  0.2792 -0.1225
25901W        W44105   6.940   8.905  13.740 -0.0226 -0.1543  0.1137
25902W        W44106   3.701  11.567  13.185  0.0647  0.0433  0.1619
25903W        W44107   7.460  10.121   2.341  0.0038  0.0631  0.1346
25904W        W44108  11.629  15.311  16.976 -0.3201 -0.1972  0.0737
25905W        W44109  12.315   7.758  12.359  0.0156 -0.0742 -0.1153
25906W        W44110  11.310  14.937  17.071 -0.1554  0.0508 -0.0485
25907W        W44111  14.285  11.043   4.869 -0.1154  0.0355 -0.0471
25908W        W44112   8.149   2.530  13.766  0.0558 -0.2115 -0.2342
25909W        W44113   5.444  16.707  16.108 -0.3579 -0.1314 -0.1219
25910W        W44114  12.528   3.440  12.942  0.0479  0.0704  0.0455
25911W        W44115   8.202   2.059   1.785  0.3112 -0.0970  0.0766
25912W        W44116   4.231  16.797  15.629  0.0599  0.2033 -0.2307
25913W        W44117   9.526   8.099   2.393  0.1012  0.4987 -0.0608
25914W        W44118  12.533   3.742   3.967 -0.0509  0.1591 -0.2136
25915W        W44119   8.653   0.726  16.722  0.4635 -0.0893 -0.0850
25916W        W44120  11.492   1.864   4.670  0.2975 -0.0280 -0.4325
25917W        W44121   7.202  15.696  15.687 -0.0525  0.1651  0.1929
25918W        W44122  13.689   2.123   1.471  0.0940  0.0135  0.2803
25919W        W44123   3.986  16.586  12.373 -0.0944 -0.1865 -0.0656
25920W        W44124  12.960  14.349  12.999 -0.0470 -0.0700  0.0842
25921W        W44125  12.460   0.677   0.932 -0.0839 -0.1484 -0.1524
25922W        W44126  12.380   5.226   3.090 -0.0717  0.2324  0.1100
25923W        W44127   9.605  14.104  13.386  0.3020  0.3835  0.1550
25924W        W44128   8.724   5.567  15.433  0.1023  0.2964 -0.2300
25925W        W44129  15.349  14.227  13.827  0.0254 -0.1258  0.0209
25926W        W44130   1.731   1.757  13.863  0.2903  0.3005 -0.1038
25927W        W44131   2.560  16.936  11.700  0.1022 -0.0621 -0.0099
25928W        W44132  15.221  10.841   5.033 -0.0160 -0.0481 -0.0422
25929W        W44133  12.731  15.419   3.482  0.0902 -0.2939 -0.2984
25930W        W44134  17.177  11.485  12.079 -0.0599 -0.1380 -0.2676
25931W        W44135  16.908   3.704  17.206 -0.3988 -0.2025  0.4088
25932W        W44136  15.312  11.052  14.212  0.0578 -0.1302 -0.2267
25933W        W44137   3.772   5.747  11.886  0.1189  0.0619 -0.1827
25934W        W44138   0.731  13.153  15.536  0.3985 -0.2488  0.1762
25935W        W44139   9.474  15.074  17.053  0.2784 -0.0134  0.4099
25936W        W44140  14.693  16.234   4.749  0.2958  0.2400 -0.0900
25937W        W44141  17.284   6.785   4.170 -0.4444  0.3568 -0.1532
25938W        W44142  12.508   7.466   2.690  0.0940  0.2256  0.3079
25939W        W44143   8.801   5.713  15.959 -0.0165  0.1403  0.1435
25940W        W44144   0.953  10.106  13.864  0.1997 -0.2803 -0.2589
25941W        W44145  10.858   1.700  15.897 -0.3067 -0.1867  0.0369
25942W        W44146  17.366  11.414  14.715  0.0981  0.0331 -0.0904
25943W        W44147   8.662   0.930   1.922  0.0122  0.2187 -0.0792
25944W        W44148  12.061  13.883  14.336 -0.3053  0.0320 -0.1613
25945W        W44149  10.607   3.808  13.416 -0.0070 -0.1952  0.1592
25946W        W44150   0.916  12.725  11.779 -0.0006 -0.0939 -0.2701
25947W        W44151  11.950  12.742  11.485 -0.0713 -0.3912  0.2084
25948W        W44152   0.622  13.482   4.752  0.0315  0.2216  0.2247
25949W        W44153  12.125   2.604   5.357 -0.1234  0.1437 -0.1449
25950W        W44154  11.986  10.847  12.192 -0.1504  0.2188  0.0165
25951W        W44155   2.481  11.305   3.311  0.0560  0.2357  0.0720
25952W        W44156  16.804  13.182   5.156  0.0005  0.2666 -0.2772
25953W        W44157   0.724  15.402   3.272  0.0772  0.0768 -0.1711
25954W        W44158   2.105  10.411  15.104  0.2039 -0.1947 -0.0475
25955W        W44159  14.193  14.821  12.852 -0.1001 -0.2477  0.1034
25956W        W44160  17.371   5.433   4.805  0.1439 -0.1281 -0.1295
25957W        W44161   5.944   5.925   3.693  0.0377  0.1343 -0.1919
25958W        W44162   2.193  16.050   5.046  0.1061 -0.1388  0.0021
25959W        W44163   6.651   0.076   2.773 -0.0523 -0.1789 -0.2378
25960W        W44164   1.965   3.001   4.672 -0.0425 -0.0405 -0.0969
25961W        W44165   2.639   9.113   0.606 -0.3957 -0.0879  0.1471
25962W        W44166   9.263   7.265  15.775 -0.1866 -0.1132 -0.2408
25963W        W44167   9.721  10.382  17.056  0.4189  0.1110  0.1551
25964W        W44168   6.883   2.437  16.686  0.0968 -0.1725 -0.0822
25965W        W44169   4.011  14.765   2.887  0.2649 -0.1756 -0.4028
25966W        W44170  10.166  15.466   3.291  0.5273 -0.1449  0.1901
25967W        W44171   5.993  11.564  13.218 -0.0045 -0.1842  0.0520
25968W        W44172   9.293   0.230  15.880 -0.2107 -0.0887  0.0613
25969W        W44173  14.248   3.489   4.431 -0.2024  0.3354 -0.3340
25970W        W44174  14.698  12.159  16.645  0.0094 -0.0432  0.1603
25971W        W44175  17.286  11.482   2.850  0.3041 -0.3025  0.0999
25972W        W44176   9.238  16.480   3.138 -0.3089  0.1909  0.0565
25973W        W44177   4.845   8.060   3.197 -0.0506  0.0734 -0.2998
25974W        W44178   6.265   4.829   4.992  0.1805 -0.0756  0.0578
25975W        W44179   3.164  11.700   4.900  0.2485 -0.1806 -0.3018
25976W        W44180   5.924   0.950   4.403 -0.1602  0.0088 -0.2377
25977W        W44181   7.501   1.679  12.382 -0.0996 -0.2052 -0.2609
25978W        W44182   8.401  11.165   0.968 -0.0656 -0.1827  0.0143
25979W        W44183   4.552   9.845  13.725 -0.0341  0.1813  0.0793
25980W        W44184   8.390   1.231   4.137 -0.0418  0.1659  0.2457
25981W        W44185  10.240  16.450   5.305  0.0736 -0.0668 -0.0440
25982W        W44186  11.583   2.976   4.732  0.0377 -0.1793  0.0202
25983W        W44187  12.333   9.161  16.884  0.2918 -0.0489 -0.1612
25984W        W44188   3.535  15.548   3.492  0.1916 -0.2565 -0.1310
25985W        W44189   7.062   2.931   6.109 -0.1131  0.0135  0.1551
25986W        W44190   8.985  13.189  12.859 -0.1647 -0.0856 -0.0962
25987W        W44191   5.077   7.220   1.889 -0.1309  0.0722  0.1358
25988W        W44192   7.698  15.050  14.143  0.1986  0.1183 -0.0531
25989W        W44193   8.259  14.787   0.871 -0.0146 -0.2698  0.1410
25990W        W44194  10.499   8.260  15.291  0.0527 -0.2504 -0.2222
25991W        W44195  11.886  12.712   4.974  0.2161  0.2336  0.0474
25992W        W44196   2.948   1.955   3.872 -0.1836 -0.1549 -0.3140
25993W        W44197   2.610   3.475   3.110  0.2336 -0.0123  0.1426
25994W        W44198   2.220   4.301   4.114 -0.0332  0.0306 -0.3771
25995W        W44199  12.716   2.249  14.505  0.0632  0.0508  0.2899
25996W        W44200   0.877   6.872   0.449  0.1059 -0.4696 -0.0949
25997W        W44201   0.670   6.292   4.643 -0.0672 -0.0582  0.1901
25998W        W44202   1.618   5.689   4.738 -0.1375 -0.3289 -0.1242
25999W        W44203  12.832   3.975   4.429  0.2320 -0.3254 -0.1126
26000W        W44204   9.384  14.330   1.018 -0.0692 -0.0785 -0.1122
26001W        W44205   1.508   5.199  14.416  0.0861  0.0264  0.0845
26002W        W44206  14.583  11.513  13.485 -0.0026  0.0055 -0.2830
26003W        W44207  10.062   4.949  16.205  0.1963 -0.0479  0.1450
26004W        W44208  17.263   0.795  17.011 -0.0432 -0.0345  0.1603
26005W        W44209  13.567   8.487   0.451  0.0851  0.2422 -0.1579
26006W        W44210   1.974   5.938   2.875 -0.0688  0.2009 -0.1916
26007W        W44211   0.624   8.330  12.209 -0.0470 -0.1608 -0.1332
26008W        W44212   1.979   3.524   1.149  0.0422 -0.0617 -0.2178
26009W        W44213   5.704  10.735  14.161 -0.0919 -0.3347  0.0389
26010W        W44214   9.255   9.442   1.152  0.0827 -0.0809  0.1079
26011W        W44215  14.758  16.606  16.549 -0.0409 -0.2416 -0.1924
26012W        W44216   2.527  11.934  12.413 -0.1383  0.0702 -0.1700
26013W        W44217  16.717   9.245  17.213 -0.0978  0.0763 -0.1898
26014W        W44218   3.706   8.859  13.434  0.0585  0.1090 -0.0919
26015W        W44219  10.990   8.254  14.939  0.1762  0.1967  0.0031
26016W        W44220   2.362   8.900   5.392 -0.1627 -0.0181  0.3171
26017W        W44221   3.163  15.328  17.227 -0.1061 -0.4269 -0.3063
26018W        W44222   3.087  15.335  12.344 -0.1175 -0.0408  0.1335
26019W        W44223   4.708  10.353  14.006  0.1285 -0.1929 -0.2742
26020W        W44224   7.852   0.862  15.338  0.1168 -0.1344 -0.0937
26021W        W44225  12.203   3.263  13.980  0.2503  0.1636  0.1928
26022W        W44226  17.107   3.411  12.702  0.0716 -0.0805  0.0004
26023W        W44227   7.113  14.631  16.931  0.1824  0.2350  0.4242
26024W        W44228   1.031  11.509  12.268 -0.1779 -0.0947 -0.1020
26025W        W44229  13.935   6.753   2.848 -0.0752  0.0115  0.1892
26026W        W44230  15.228   1.987   0.514 -0.1904  0.0305  0.0539
26027W        W44231  17.425   5.446   1.111 -0.1812 -0.0962  0.0069
26028W        W44232   9.184   5.036   1.353  0.1039 -0.0676 -0.2254
26029W        W44233  13.971   3.217   5.230 -0.2558 -0.1540  0.0657
26030W        W44234  11.400   9.571   2.681  0.1145 -0.0776 -0.0121
26031W        W44235  12.848  11.404   4.100 -0.2830 -0.1740  0.4061
26032W        W44236   7.776  15.721  16.868  0.5439 -0.1525 -0.1045
26033W        W44237   5.189   0.164   4.030 -0.1073 -0.0102 -0.1576
26034W        W44238  15.059   2.528  15.977  0.0892 -0.1983 -0.2923
26035W        W44239   1.597   3.925   3.124 -0.1716 -0.3783 -0.1944
26036W        W44240   9.003   7.456   2.357  0.1141  0.1841  0.0614
26037W        W44241   6.968  12.184   4.399  0.2505 -0.1394  0.1781
26038W        W44242   9.993  13.773   4.705 -0.0859 -0.2157 -0.4433
26039W        W44243   3.606  15.080   3.679  0.2708  0.0961 -0.0106
26040W        W44244   6.799  14.742   0.631  0.1764  0.0997  0.3993
26041W        W44245  15.883   1.416   1.548 -0.1325 -0.1133  0.1704
26042W        W44246  13.901   7.837  13.237 -0.0555  0.4815  0.3403
26043W        W44247   0.565  11.711   1.580 -0.1189  0.1684 -0.0174
26044W        W44248   0.476   1.212  13.103  0.2149  0.3766  0.0574
26045W        W44249  15.877   8.929   0.468  0.0628  0.0115  0.0050
26046W        W44250   1.706   8.452  14.371  0.2191  0.0358 -0.0575
26047W        W44251   8.727   9.504   4.358  0.3780 -0.1830  0.1167
26048W        W44252  15.077   5.371  16.618  0.0857  0.0158 -0.0993
26049W        W44253   2.069   4.957   1.160  0.0825 -0.2448 -0.0953
26050W        W44254   7.677   5.748   5.105 -0.1389 -0.1151  0.1470
26051W        W44255  12.044  14.588   2.689 -0.1562  0.1316 -0.0231
26052W        W44256   7.277  14.546  13.970 -0.0233 -0.1002  0.0915
26053W        W44257  12.565  14.212   3.990 -0.2626 -0.1070 -0.3078
26054W        W44258   3.598   0.993  13.065 -0.1445  0.1049 -0.2716
26055W        W44259   7.271  10.467  12.479 -0.3546  0.0316  0.1068
26056W        W44260  12.867   0.625   3.045  0.1157  0.1397  0.0457
26057W        W44261  14.944  16.058  13.673  0.1403  0.0003  0.0664
26058W        W44262  17.310   6.201   2.566 -0.1429 -0.3316  0.0279
26059W        W44263   7.380   5.789   3.674 -0.0619 -0.1597  0.0566
26060W        W44264   4.087  14.234   0.397  0.1331 -0.0103  0.2225
26061W        W44265  13.692   1.851   5.683 -0.2345  0.0455  0.0481
26062W        W44266  11.939  17.255  15.631  0.4060  0.0765 -0.4508
26063W        W44267   0.284  15.585   3.289  0.0060 -0.1383 -0.0136
26064W        W44268   2.008  13.269   1.410 -0.0745  0.1627  0.2349
26065W        W44269   0.134  11.497   0.295 -0.1455 -0.3804 -0.1504
26066W        W44270  13.191  14.065   3.133  0.4235  0.1879 -0.1220
26067W        W44271   8.772  11.495   0.787  0.0656 -0.0443 -0.0172
26068W        W44272  11.070   4.296  12.258  0.0260 -0.1230 -0.0551
26069W        W44273   0.977  15.483  16.687  0.0600 -0.1336 -0.3541
26070W        W44274  13.818  16.503  15.997  0.1381  0.1453  0.2172
26071W        W44275  14.376   5.181  17.116  0.0343  0.1624  0.2006
26072W        W44276   1.554  10.924  15.819 -0.3593 -0.2434 -0.1922
26073W        W44277   8.355  14.285  17.123  0.1746  0.0151 -0.1018
26074W        W44278  10.118   4.146   4.980  0.2971  0.1144 -0.1285
26075W        W44279   5.632  16.973  15.261  0.1769  0.2689 -0.2726
26076W        W44280   5.266   8.167   3.427 -0.0397  0.0099  0.2298
26077W        W44281   4.931  10.918  11.849  0.2495 -0.2066  0.0413
26078W        W44282   9.625   6.814   2.250 -0.0112  0.0212 -0.0227
26079W        W44283   5.332  16.988  14.893  0.2191  0.1717  0.2024
26080W        W44284   0.079  11.769  16.113  0.2931  0.0082  0.2947
26081W        W44285   7.664   0.625   5.829 -0.1052 -0.0515  0.0453
26082W        W44286  17.041  15.020   2.477  0.1504  0.0392 -0.1529
26083W        W44287   2.726   2.695  17.101 -0.0319  0.0301  0.0027
26084W        W44288   9.316   4.194   4.655  0.4507  0.0946 -0.0262
26085W        W44289   7.490  11.457  12.277  0.1703 -0.0695 -0.0694
26086W        W44290   4.667  12.736   4.741  0.0785 -0.0103 -0.2011
26087W        W44291  12.683  17.297  12.350 -0.0529 -0.3066  0.0173
26088W        W44292   8.866  14.651  11.577 -0.1619  0.1624  0.0998
26089W        W44293  11.930  13.247  15.940  0.0411  0.3897  0.0489
26090W        W44294  14.125   9.436   3.009  0.0769 -0.1118 -0.2709
26091W        W44295   1.614   7.226   5.056 -0.0595  0.2580  0.2023
26092W        W44296  13.588  16.194  13.396 -0.2074  0.0208  0.0143
26093W        W44297   2.176   6.209  17.276 -0.0532 -0.0675  0.0764
26094W        W44298  13.533  13.168   1.005  0.2250  0.0208 -0.2445
26095W        W44299   3.441   7.470  16.601  0.2505 -0.1228  0.0056
26096W        W44300  13.422   2.547  12.225 -0.0275 -0.1256 -0.2492
26097W        W44301   5.097   6.452  15.605  0.0891 -0.1844  0.5287
26098W        W44302  10.268   0.388   1.632 -0.1527  0.0022 -0.0724
26099W        W44303   4.861   6.196   4.047 -0.2933  0.0953  0.1781
26100W        W44304  10.746   8.443   1.571 -0.1131 -0.0880 -0.0101
26101W        W44305  16.376  14.999   5.135 -0.0489  0.1581 -0.0337
26102W        W44306  14.094   8.315   0.497 -0.0901 -0.2391  0.0617
26103W        W44307  13.930   7.796  16.757  0.1662  0.1679 -0.1051
26104W        W44308  10.993  12.830  14.958 -0.0290 -0.2997  0.0328
26105W        W44309   7.077   9.476  12.855  0.1724  0.0944  0.3910
26106W        W44310  10.965  14.609  13.984  0.3313 -0.0777 -0.3263
26107W        W44311  15.368  11.658   1.782 -0.3279  0.3195  0.1920
26108W        W44312   4.480  10.719  13.181 -0.1834  0.1821  0.1711
26109W        W44313   2.358   6.860   2.731 -0.1830 -0.0104 -0.0981
26110W        W44314   7.512   0.678   3.827  0.0970  0.0801  0.0729
26111W        W44315   7.221   6.745  12.457  0.0593 -0.1090 -0.0501
26112W        W44316  14.851  12.098   4.470  0.2683 -0.0335  0.3122
26113W        W44317  16.035  10.954  12.884  0.0875 -0.1294  0.2129
26114W        W44318   1.830   3.577  14.264 -0.3701  0.2269 -0.0097
26115W        W44319  10.526  12.381  14.456  0.1728  0.1070  0.0912
26116W        W44320   7.331   2.189   1.379 -0.0945  0.2856 -0.0104
26117W        W44321   6.750  11.578   0.138  0.0044 -0.0111 -0.1424
26118W        W44322   2.581   6.170   2.132  0.4492 -0.0903 -0.0041
26119W        W44323   6.209   3.218  14.880  0.1304  0.1953 -0.1127
26120W        W44324   3.529   7.175   4.534  0.0968 -0.2479  0.1064
26121W        W44325   1.719  12.370  16.440  0.1792  0.1164  0.0736
26122W        W44326   5.461   6.004   0.122 -0.0555 -0.2394 -0.2019
26123W        W44327  10.572  15.717   3.988  0.1379  0.1658  0.2933
26124W        W44328  14.083   0.565  16.323 -0.0704  0.3224 -0.1536
26125W        W44329   5.812   4.597   2.082 -0.1791  0.1038 -0.0353
26126W        W44330  16.350   3.435   1.653  0.3134 -0.0630  0.1588
26127W        W44331  14.612   0.814  12.851 -0.0868 -0.3662  0.0742
26128W        W44332  15.709  11.012  15.973 -0.2104 -0.1415 -0.1675
26129W        W44333  16.555  10.920  16.506 -0.1684  0.2363 -0.1479
26130W        W44334  16.178  11.123   1.903 -0.1407  0.1085 -0.1847
26131W        W44335   2.066  11.647   5.137  0.0558  0.2404 -0.0603
26132W        W44336   9.385   3.833  14.207 -0.3249  0.2702 -0.0300
26133W        W44337   0.626  15.569  17.140  0.2338  0.1701  0.1331
26134W        W44338   4.835   5.138  15.954  0.2524 -0.0965  0.0939
26135W        W44339   7.839  12.136   3.523  0.0033  0.0834 -0.1723
26136W        W44340  12.621  16.910   0.966 -0.1003  0.2160 -0.2745
26137W        W44341  10.063  10.442   0.663  0.2810  0.2886 -0.0350
26138W        W44342  11.137  13.379   3.514  0.4771  0.1047 -0.0460
26139W        W44343   9.661   6.898  13.075  0.2477 -0.0909  0.1666
26140W        W44344  14.947  13.292   1.111 -0.1163 -0.0042  0.3395
26141W        W44345  13.774   2.818  17.274  0.3136 -0.0428 -0.0731
26142W        W44346   8.258   2.598   5.159 -0.3213 -0.5229  0.1626
26143W        W44347   2.780   6.448  15.682  0.0396 -0.2410 -0.2055
26144W        W44348   3.474  15.484  16.026  0.1455  0.1253  0.0742
26145W        W44349  14.333   4.648  15.322 -0.1002  0.2003 -0.3518
26146W        W44350   7.091  11.348   2.106 -0.1074 -0.1098  0.2850
26147W        W44351   2.868  16.507  13.218 -0.0159 -0.1708  0.1124
26148W        W44352  16.746  15.263  11.989 -0.3087  0.1967  0.1176
26149W        W44353   9.244   5.976   2.109 -0.0696 -0.0680  0.1053
26150W        W44354  17.448   3.222   1.503  0.0293 -0.0109 -0.1521
26151W        W44355  15.225   7.954  15.900  0.1549  0.2643  0.1406
26152W        W44356  14.927   4.316  17.184  0.1679 -0.0867 -0.1326
26153W        W44357  12.115  14.462  14.042 -0.1213  0.2701 -0.1539
26154W        W44358   3.898   5.791   2.452  0.1063 -0.0177 -0.2033
26155W        W44359   6.395   1.100  16.607 -0.0525 -0.0490 -0.1761
26156W        W44360   3.427   3.923  15.152 -0.0946  0.0576  0.0996
26157W        W44361  16.705  12.269   4.687 -0.1180  0.2390 -0.1634
26158W        W44362   0.273   6.964  15.506  0.3040  0.0417 -0.2227
26159W        W44363   1.521  12.570  13.051  0.3095 -0.0044 -0.2240
26160W        W44364  16.030   9.195  14.502  0.0550  0.2765  0.0234
26161W        W44365  13.564  14.189   5.142 -0.2851  0.0250 -0.0829
26162W        W44366   0.325  12.010   3.664  0.0675  0.4947 -0.1860
26163W        W44367  15.556  11.893  14.091  0.0388 -0.2235 -0.3926
26164W        W44368   5.607   3.120  17.002 -0.0598  0.1898 -0.0307
26165W        W44369  13.384   1.125  15.977 -0.0735  0.1176 -0.0991
26166W        W44370   2.670   1.514   3.872  0.2092  0.0927  0.0856
26167W        W44371   6.455  15.284   3.950 -0.1129  0.0430 -0.3990
26168W        W44372   4.207   3.489   0.009 -0.0642  0.1794  0.1673
26169W        W44373   7.447  11.067  11.937 -0.1036 -0.2049  0.3821
26170W        W44374   5.147   5.527   4.113  0.1426 -0.0553 -0.0831
26171W        W44375  13.110   7.927   2.667 -0.1989 -0.3792  0.0777
26172W        W44376  10.923  10.161   2.133  0.0056 -0.2587  0.0633
26173W        W44377  16.289  11.306  13.720 -0.2685  0.1875 -0.0568
26174W        W44378  16.630  15.955   4.858 -0.1093  0.3127 -0.2995
26175W        W44379   1.500   6.237   3.152  0.1017  0.0521  0.1746
26176W        W44380   0.536   6.953  12.375  0.0265  0.1276 -0.1903
26177W        W44381   8.154   8.627   4.482 -0.3461 -0.0084 -0.1617
26178W        W44382   5.530   6.325  17.044 -0.0286  0.0489  0.5007
26179W        W44383  10.654  15.215   3.076 -0.1275 -0.1046  0.1589
26180W        W44384   6.268   0.636  13.031  0.1638 -0.0963 -0.0932
26181W        W44385   7.921  16.873   1.253 -0.3726  0.0940 -0.1821
26182W        W44386  10.897   6.877   2.424 -0.2473  0.2296  0.0650
26183W        W44387  15.408  11.328   3.108  0.3115 -0.0841 -0.0475
26184W        W44388   1.172   2.317  15.286  0.0544 -0.0550 -0.1713
26185W        W44389   0.206   6.652  12.667 -0.2295  0.0341  0.1697
26186W        W44390   0.909   6.785  14.942  0.2251 -0.0764  0.0821
26187W        W44391   1.763   5.670  14.273  0.0088  0.1845  0.2193
26188W        W44392   4.148   3.690   0.908  0.3709  0.0568  0.0640
26189W        W44393   1.496   7.004   1.831 -0.0154 -0.0557 -0.1699
26190W        W44394   9.584  10.427  12.342  0.1472 -0.0476  0.0904
26191W        W44395  17.178  15.324   3.231  0.1116  0.1313  0.1039
26192W        W44396  10.281   9.264   1.380  0.1037 -0.0420 -0.0235
26193W        W44397  17.128  15.664   4.200 -0.1890 -0.0187  0.0997
26194W        W44398   9.964  14.643   3.500 -0.3535  0.5071  0.0201
26195W        W44399   2.467   2.017  14.783 -0.2449  0.1399 -0.2037
26196W        W44400  12.207   9.345  12.179  0.2998 -0.0785  0.0294
26197W        W44401   4.103  11.941   1.137  0.1513 -0.0348  0.2436
26198W        W44402  16.070   2.578  15.098 -0.0766  0.0201 -0.1177
26199W        W44403   6.386  10.932   1.814 -0.0277  0.0516  0.4222
26200W        W44404   4.248   8.749  15.582  0.0475  0.3757 -0.0235
26201W        W44405   2.360   0.199   2.874 -0.2280  0.2819 -0.0631
26202W        W44406   9.385   4.222   4.056  0.0203 -0.0323 -0.0593
26203W        W44407   5.880  16.597   3.263 -0.1352  0.0255 -0.1378
26204W        W44408  14.449  16.304  12.437 -0.0807 -0.0735 -0.0385
26205W        W44409   3.913  16.063   2.343 -0.2224  0.4408  0.1881
26206W        W44410  11.056   4.863   4.894  0.1522  0.1855  0.2909
26207W        W44411   5.113   8.948  12.900  0.3225  0.1073  0.2106
26208W        W44412   3.917   8.443   1.020  0.0311 -0.0674 -0.0937
26209W        W44413   5.577   4.859   0.251 -0.0441  0.3872 -0.0821
26210W        W44414  11.603  11.568   0.108  0.0176 -0.1079 -0.0005
26211W        W44415   6.813  15.669  12.752  0.0212 -0.0793 -0.0037
26212W        W44416   6.726   2.961   1.735 -0.0182  0.0386  0.0300
26213W        W44417  17.523   0.860  12.179 -0.1730  0.1150 -0.3120
26214W        W44418  14.089  10.310  15.322  0.2611  0.0433 -0.2999
26215W        W44419  15.280  12.120   3.770  0.2383 -0.0102  0.1289
26216W        W44420   7.137   2.915  16.590 -0.0498  0.1821  0.1006
26217W        W44421   2.549  16.921  16.013  0.1234 -0.0684 -0.1166
26218W        W44422  15.603  11.645   5.116 -0.0061 -0.0607 -0.2493
26219W        W44423   2.190   2.945   5.092 -0.0627  0.2435 -0.1093
26220W        W44424  14.921  10.654   3.548 -0.1372  0.2586 -0.0058
26221W        W44425   8.890  15.995   1.691  0.1916  0.2245  0.1438
26222W        W44426   9.020   8.629  14.614  0.0945  0.1573  0.1933
26223W        W44427   4.859   3.857  13.023 -0.3097 -0.1818 -0.2287
26224W        W44428   7.328   3.462  13.263 -0.0508 -0.0446  0.0519
26225W        W44429   2.350  12.832  12.917 -0.0126  0.0743  0.2335
26226W        W44430  16.457   6.060  13.540  0.0149  0.2169  0.1500
26227W        W44431  15.793   6.464   5.996  0.2945 -0.1854 -0.0290
26228W        W44432  15.768   5.676   0.655 -0.0271  0.0199 -0.0035
26229W        W44433   9.600  11.156  16.789 -0.2164 -0.1364  0.0022
26230W        W44434  16.481  10.014  13.204  0.0370 -0.4354 -0.1989
26231W        W44435  15.326   5.678   5.472 -0.0718  0.0361 -0.0572
26232W        W44436   4.716   1.594  13.517  0.0298  0.1064 -0.1145
26233W        W44437  13.614   3.148   0.279  0.0285 -0.2093  0.0663
26234W        W44438   3.009   4.092  16.919  0.1845  0.0355  0.1110
26235W        W44439   8.383   4.909   6.470 -0.3038 -0.1567  0.1075
26236W        W44440   5.586   7.421   3.907 -0.0436 -0.2849 -0.0314
26237W        W44441   2.171  15.525  16.855  0.0365 -0.0393  0.4888
26238W        W44442   8.612   4.293   4.034  0.0012  0.1928  0.1078
26239W        W44443   9.763   4.609   0.658  0.0029 -0.3316 -0.2594
26240W        W44444   6.136   2.788   1.536 -0.0129  0.1514 -0.0903
26241W        W44445   8.551   0.858  12.742 -0.2323  0.0515 -0.0001
26242W        W44446   7.539   9.017  16.571  0.2893 -0.0046  0.2427
26243W        W44447   4.710  12.535  13.787  0.0996 -0.1484  0.0297
26244W        W44448   8.553   8.948  12.163 -0.3638  0.1238 -0.2500
26245W        W44449   9.523   6.499   4.743  0.2375  0.4164  0.1028
26246W        W44450   3.043  12.892   4.224  0.0533 -0.2139  0.0994
26247W        W44451  10.600  16.115   6.135 -0.0316 -0.0177 -0.1827
26248W        W44452   8.391   6.979  14.902  0.0335  0.3320  0.2344
26249W        W44453   6.763  10.844   1.504 -0.6094 -0.0895 -0.0262
26250W        W44454  17.035   9.266  13.444  0.0655 -0.0325 -0.0390
26251W        W44455   7.617  12.432  12.200  0.1760  0.0614  0.1811
26252W        W44456   6.077  15.314  13.908 -0.0551 -0.2322 -0.0485
26253W        W44457   5.148   8.967  15.845  0.0851  0.0206 -0.0583
26254W        W44458  15.968   8.525   1.214 -0.4524 -0.0577 -0.0967
26255W        W44459   3.802  15.835   5.535  0.0976 -0.0746 -0.3115
26256W        W44460  16.449  16.140  14.729  0.3067  0.1041  0.1121
26257W        W44461  11.114  12.937  13.287 -0.0499  0.2771 -0.1970
26258W        W44462   9.286   4.803  17.202  0.0954  0.3326  0.0849
26259W        W44463   6.810   6.119   2.079 -0.2218 -0.1653  0.0253
26260W        W44464   8.209   6.092   1.913 -0.0848 -0.0215 -0.0713
26261W        W44465  13.660   6.338   2.847 -0.0977  0.0007  0.1155
26262W        W44466  15.213  17.321  16.685 -0.2010 -0.0231 -0.1462
26263W        W44467   9.245  12.923  16.469  0.3347  0.4307 -0.2249
26264W        W44468   6.182   6.617   4.336  0.0032 -0.0431  0.1079
26265W        W44469   3.423   2.296   2.483  0.0126  0.1209 -0.1266
26266W        W44470  12.967   6.688   2.400 -0.0047  0.2528 -0.0179
26267W        W44471   2.260  10.002  13.048  0.0431  0.1295 -0.0528
26268W        W44472   4.454  10.335   0.382  0.2198 -0.2576  0.0916
26269W        W44473  10.864   8.753   0.149  0.1201  0.0147 -0.3304
26270W        W44474  12.692  13.376  13.759 -0.0595 -0.1648 -0.5298
26271W        W44475   2.055   9.867   1.540 -0.0007  0.0608 -0.0860
26272W        W44476   2.241   9.360  14.886  0.3486 -0.2216 -0.1829
26273W        W44477  13.312   1.894   1.734  0.2283  0.2598  0.4418
26274W        W44478  12.605   4.810   0.615  0.1916 -0.0784 -0.0630
26275W        W44479   7.289  12.293   1.403 -0.0910  0.1517  0.2869
26276W        W44480   1.345  17.366  15.732 -0.0940 -0.0701 -0.0067
26277W        W44481   6.818   8.769   2.663  0.4472 -0.0030  0.0319
26278W        W44482   5.607  15.412  14.839  0.0440  0.0758 -0.0959
26279W        W44483  16.118  14.101  14.966  0.1762 -0.0260  0.0827
26280W        W44484   9.816  15.872   0.897  0.0147 -0.2564 -0.3493
26281W        W44485   9.349  15.845  13.604 -0.1601  0.0658 -0.0725
26282W        W44486  13.757   4.176  13.983 -0.1663 -0.2681 -0.5468
26283W        W44487   9.883   5.952  14.020  0.1516  0.0251  0.0794
26284W        W44488   1.040  15.636   3.973  0.1674 -0.0362  0.0786
26285W        W44489   0.069  13.712   0.231  0.2202 -0.2411  0.0644
26286W        W44490  17.116   1.756   4.179 -0.2072 -0.2160  0.1375
26287W        W44491   1.252   2.392  17.141  0.0782  0.2951  0.0901
26288W        W44492   4.557   2.710   2.347  0.0368 -0.0276  0.2672
26289W        W44493   6.665   7.609   2.845 -0.0277  0.1436  0.0619
26290W        W44494   9.524   9.279   3.641  0.3088 -0.0078 -0.0285
26291W        W44495   4.996   6.984  16.695 -0.0323 -0.1729  0.0529
26292W        W44496   3.536  12.819  12.987  0.0895 -0.0252  0.0299
26293W        W44497  14.513  15.970  13.366 -0.0716 -0.0952 -0.2010
26294W        W44498   4.346   9.637  14.308  0.2653  0.1103 -0.2311
26295W        W44499  16.054   2.242  13.871  0.2137  0.0434  0.2622
26296W        W44500   5.696   8.120  15.722  0.0554  0.0412 -0.0321
26297W        W44501   1.237  12.804   4.402  0.1396  0.0456  0.1331
26298W        W44502  12.250   9.157   4.569 -0.1002  0.0404 -0.1435
26299W        W44503   2.178   6.806  12.666 -0.1460  0.0096  0.1551
26300W        W44504   0.843   5.131  16.128 -0.2062 -0.0799  0.0583
26301W        W44505   4.248   8.091   3.470 -0.3338 -0.3366 -0.0935
26302W        W44506  15.556  15.292   2.364  0.0663  0.0594  0.0210
26303W        W44507  13.294   3.433   2.905  0.2578 -0.0795  0.2694
26304W        W44508  12.245  10.490  15.018 -0.0775 -0.0213  0.0830
26305W        W44509  16.041  15.885   0.757  0.0627  0.0186 -0.3042
26306W        W44510   7.814  14.478  15.703  0.0164  0.1105 -0.1116
26307W        W44511   6.432   3.593   2.018 -0.1436  0.2072 -0.0780
26308W        W44512  15.889   6.745  14.806 -0.0922  0.0608  0.1027
26309W        W44513   6.108   9.692   3.600  0.1278 -0.1563 -0.0776
26310W        W44514   3.688  13.967   2.906  0.0815 -0.0191 -0.0203
26311W        W44515   6.859   9.181   0.557 -0.1289  0.1400  0.2869
26312W        W44516   3.660   5.649  16.231 -0.2434  0.1239 -0.0442
26313W        W44517   9.986   3.270  13.927  0.0075  0.3963  0.0097
26314W        W44518  14.073  15.386  14.739  0.1015 -0.1009 -0.1803
26315W        W44519   8.204   8.490  16.226  0.2644  0.2634 -0.0929
26316W        W44520   3.734  13.057   3.463 -0.0543  0.0382 -0.0539
26317W        W44521  14.114  17.537  14.212 -0.0311 -0.0436  0.1765
26318W        W44522  11.255  16.567  15.542 -0.5491  0.2430 -0.0902
26319W        W44523   4.111   4.773   4.287  0.1675 -0.0124 -0.0948
26320W        W44524  13.540  16.164   4.941 -0.1055  0.0758  0.2567
26321W        W44525   6.224   0.204  14.220  0.1450  0.0673  0.3869
26322W        W44526   8.390   0.351   0.170  0.1687 -0.0666 -0.0004
26323W        W44527  12.358   4.203  17.165  0.0070  0.0803  0.1265
26324W        W44528   2.841  14.132  15.220 -0.2694 -0.0496  0.1866
26325W        W44529  12.938   7.554   5.505  0.0332  0.2325  0.0353
26326W        W44530  16.978   2.817  13.568 -0.2977  0.2180 -0.1653
26327W        W44531  16.911   1.705   3.719 -0.1823 -0.0897 -0.0299
26328W        W44532   2.895  10.403  16.441 -0.2031 -0.1443  0.1001
26329W        W44533   0.977   5.527   3.497 -0.0073  0.1795 -0.2478
26330W        W44534  14.814  10.374   4.398  0.1529  0.1248 -0.1119
26331W        W44535   4.418   8.320   0.634  0.0581  0.0846 -0.1364
26332W        W44536   1.263  14.005  13.062 -0.0090 -0.2299  0.1245
26333W        W44537   8.019   4.341  17.182  0.3553 -0.1347  0.0401
26334W        W44538   7.551  11.862   4.784 -0.3017 -0.0036  0.1835
26335W        W44539   3.339  10.740  13.780 -0.2853 -0.1441 -0.1920
26336W        W44540   6.344  10.508   2.497 -0.1407 -0.2023 -0.3170
26337W        W44541  12.346  14.668  16.799  0.1584 -0.2442  0.0355
26338W        W44542  14.299   8.442   2.097  0.1432 -0.3583 -0.1423
26339W        W44543   2.814   9.122   2.872 -0.0062 -0.0403 -0.1413
26340W        W44544   4.142   5.275  15.310 -0.0655  0.1028  0.0681
26341W        W44545  10.001  13.642   4.242 -0.1546  0.1469  0.1371
26342W        W44546   9.351   8.333  11.267  0.0605 -0.2561 -0.3201
26343W        W44547  16.962  14.366  13.938 -0.0545  0.2638  0.3094
26344W        W44548   2.541  11.354  15.165 -0.0325  0.2277  0.0405
26345W        W44549   6.153   2.916  14.084  0.0303  0.0122 -0.1504
26346W        W44550  14.901   0.436  12.982  0.2068  0.0228  0.1434
26347W        W44551  11.561   3.020  15.799  0.2284  0.2826 -0.2100
26348W        W44552   6.120  15.178   2.654 -0.1697 -0.0803  0.0610
26349W        W44553  10.687   6.130   1.765  0.1664 -0.2095 -0.1902
26350W        W44554  13.610  12.506  14.088 -0.3018 -0.0905 -0.2292
26351W        W44555  15.341  12.598  13.487  0.4635 -0.0322 -0.0031
26352W        W44556   2.461   7.254   4.024 -0.0244 -0.0692  0.2170
26353W        W44557  13.657  14.531  13.211 -0.1466 -0.0422 -0.0015
26354W        W44558  14.249   6.075  14.409  0.1393  0.0389 -0.0797
26355W        W44559   3.863  10.211   2.383 -0.3018 -0.1320  0.0443
26356W        W44560   6.788   0.239  16.560 -0.2477  0.0188  0.0552
26357W        W44561   9.311  14.287  15.909 -0.0840 -0.0458  0.0935
26358W        W44562   0.140   1.587  14.923  0.1976  0.1541  0.1449
26359W        W44563  10.478  13.224   2.692 -0.1404 -0.0104 -0.1269
26360W        W44564  11.585   2.711   2.472  0.1642  0.1790 -0.0163
26361W        W44565   7.368   2.433   0.568  0.2825 -0.1511  0.0207
26362W        W44566   4.648   7.263  15.930 -0.0761  0.0431  0.0924
26363W        W44567  12.463   7.325  12.212  0.0487 -0.1695 -0.1973
26364W        W44568  10.731  15.429  14.996  0.0298  0.3196  0.0974
26365W        W44569   8.314   5.929  12.382  0.1536 -0.5012  0.0105
26366W        W44570  12.770   5.044   0.128  0.0280  0.1492 -0.1663
26367W        W44571   6.875  13.041  15.588 -0.0447 -0.1532 -0.1082
26368W        W44572  13.512  11.253   2.123 -0.0386  0.1914  0.1747
26369W        W44573   0.469  11.360  15.191 -0.0323 -0.1238  0.0553
26370W        W44574   9.813   0.100   2.457 -0.3635  0.1210  0.1771
26371W        W44575  12.915   4.921  14.557 -0.1742 -0.1995 -0.0214
26372W        W44576  15.806   1.906  13.555 -0.0969  0.0071 -0.0478
26373W        W44577  15.971   4.096  13.381 -0.1626  0.5340  0.0430
26374W        W44578   1.619  11.263  15.424 -0.1400 -0.1303 -0.0198
26375W        W44579  12.850   8.938   1.737 -0.1405 -0.0385  0.2188
26376W        W44580  13.242   5.494   1.627  0.2227 -0.0142  0.2434
26377W        W44581  15.384   6.724  12.086  0.0067  0.5052  0.0331
26378W        W44582   3.005   1.130  13.820  0.1185  0.2572  0.0311
26379W        W44583   8.743  14.245  11.819  0.1946  0.1181  0.0810
26380W        W44584   7.272  16.170   5.196  0.2508 -0.2559  0.0973
26381W        W44585  12.016  13.123  16.929 -0.0183  0.2881  0.0997
26382W        W44586   1.558  11.619   0.417 -0.1480  0.1421  0.2493
26383W        W44587  10.013   8.235  15.047 -0.0703 -0.1777  0.2454
26384W        W44588   6.754   1.872   2.605 -0.2379 -0.2838  0.5121
26385W        W44589  17.492  13.693  13.012 -0.1059  0.1736 -0.0574
26386W        W44590  16.637   4.662   0.397 -0.0562 -0.1841  0.0208
26387W        W44591  10.266  17.414   3.936 -0.1461  0.0581 -0.3626
26388W        W44592  11.731  12.238   5.094  0.1960 -0.3206  0.0828
26389W        W44593   9.990   6.126  13.056  0.0599 -0.0852  0.3050
26390W        W44594  14.568   5.980  14.028  0.0081 -0.4140  0.0137
26391W        W44595   5.105   4.231   0.663 -0.1200 -0.2141  0.1696
26392W        W44596  10.542   1.540   2.981 -0.0540 -0.2538 -0.1873
26393W        W44597  10.852  16.999  14.719 -0.1136 -0.1479 -0.0417
26394W        W44598   2.503   4.117   0.559  0.2581  0.3958  0.0828
26395W        W44599   5.868  16.540   2.761 -0.0159 -0.0783  0.0094
26396W        W44600   2.810   7.231  10.870 -0.1775 -0.0112 -0.1362
26397W        W44601   7.191  10.138   0.019  0.0923 -0.0142 -0.1740
26398W        W44602  10.141   6.319   2.025  0.2385  0.1501  0.0448
26399W        W44603  17.439  10.709   5.767  0.2436  0.1669 -0.0083
26400W        W44604   1.721  17.228   4.309 -0.3992  0.1847  0.0808
26401W        W44605  11.146  17.287  16.653 -0.0727  0.1458  0.1002
26402W        W44606   5.336   0.423  14.579  0.1930 -0.1667 -0.2929
26403W        W44607  16.274  13.906   4.446  0.0166  0.3739  0.1071
26404W        W44608  10.894  13.025  10.710  0.1263  0.2606 -0.1158
26405W        W44609  10.140   8.629   5.071 -0.0015 -0.1106 -0.1723
26406W        W44610   5.030   7.124   2.987 -0.0353 -0.2108 -0.1655
26407W        W44611   9.183  16.993  16.185  0.3420 -0.1708  0.0590
26408W        W44612   8.154   3.131  15.382  0.3572  0.0048  0.2267
26409W        W44613   7.178   6.096   3.983  0.0315 -0.0471  0.5055
26410W        W44614   2.149   3.877   3.192 -0.3494  0.2090 -0.1026
26411W        W44615  15.946  15.119   3.534 -0.1301  0.4155 -0.1739
26412W        W44616   9.886  17.446   5.200  0.0286  0.0324  0.2872
26413W        W44617   9.836  13.263  16.258  0.0412  0.1203 -0.4315
26414W        W44618   8.963  10.821   3.976 -0.2549  0.1184  0.2744
26415W        W44619   3.120   4.144  16.111  0.1277  0.1635  0.0247
26416W        W44620   5.932   2.126  14.904 -0.0739  0.0663 -0.3254
26417W        W44621   6.393  11.622   3.310 -0.0457 -0.1863 -0.0068
26418W        W44622  12.501  13.071  12.588 -0.0929 -0.0634 -0.0861
26419W        W44623   6.803   3.106  15.649 -0.0274  0.1236 -0.1548
26420W        W44624  13.240  10.369  15.407 -0.0160  0.0648  0.2311
26421W        W44625  11.431   1.652   0.591  0.1449 -0.1841  0.0408
26422W        W44626   0.860   9.240   0.406  0.1579  0.3104 -0.4540
26423W        W44627  13.924  11.000  13.440 -0.2724  0.0458 -0.0344
26424W        W44628  12.652   9.762  14.941 -0.0146 -0.1661 -0.1378
26425W        W44629  15.402  17.333  13.943  0.2186 -0.0637 -0.0103
26426W        W44630  16.344   8.476   6.245 -0.1148  0.0451  0.2128
26427W        W44631   3.396  11.271  14.289  0.1708 -0.1418  0.0119
26428W        W44632   4.549   3.240   2.530  0.1379 -0.0799  0.3921
26429W        W44633   1.622  13.120   5.243  0.0674  0.1414  0.2819
26430W        W44634   9.155   6.328   4.403  0.0676  0.1252 -0.1352
26431W        W44635   9.214  15.707  14.923 -0.1368 -0.1434 -0.0535
26432W        W44636   2.994  14.680  11.710  0.2042  0.0346 -0.3860
26433W        W44637   0.007  16.404  12.678 -0.0298 -0.0720 -0.0067
26434W        W44638   8.120  11.114   4.196  0.0896 -0.2057 -0.1595
26435W        W44639   3.865  11.625  14.102  0.1806  0.0459 -0.2178
26436W        W44640   5.041  15.831  12.976 -0.1467 -0.0143  0.3413
26437W        W44641   0.121  11.097   0.535  0.3838 -0.1593  0.0855
26438W        W44642   4.547  14.856  16.938 -0.1378 -0.0306 -0.1054
26439W        W44643   7.405  11.317  14.453  0.0304 -0.0769 -0.1048
26440W        W44644  11.383   0.859   1.172 -0.5605  0.0367  0.1994
26441W        W44645   0.061  13.657   4.760 -0.2622 -0.1944  0.1218
26442W        W44646   9.324  14.813  15.068 -0.1012  0.4052 -0.0989
26443W        W44647   6.505   3.620   4.638 -0.0246  0.0281 -0.2663
26444W        W44648  12.518   9.311   1.528 -0.0748  0.0858  0.2369
26445W        W44649   5.069  11.725   5.148  0.2994 -0.2159 -0.0343
26446W        W44650   1.561  12.642  11.948  0.1732  0.1157  0.0025
26447W        W44651   9.942  12.049  11.143 -0.1642 -0.4628  0.0792
26448W        W44652   4.491  11.301   1.197 -0.0048  0.0790  0.3250
26449W        W44653   1.356   2.311   0.743 -0.0954 -0.2046 -0.1630
26450W        W44654   1.114  12.306  12.946  0.0055 -0.1115 -0.1966
26451W        W44655   3.682   9.331   1.920  0.1950  0.1185  0.2063
26452W        W44656  10.826  15.207   4.916  0.4405  0.0338  0.1642
26453W        W44657   5.713  12.640   1.281  0.0358 -0.2430  0.2081
26454W        W44658   7.358   8.075  16.694 -0.1027  0.2291  0.0582
26455W        W44659   9.718   1.574  14.222 -0.0945 -0.0660  0.0588
26456W        W44660  13.209  14.920  16.452 -0.2280  0.1782 -0.2816
26457W        W44661  13.439  14.596   0.916  0.1743  0.2397 -0.3771
26458W        W44662  16.583  13.302   2.655 -0.1060  0.0223  0.1550
26459W        W44663  17.227   3.906  12.787 -0.1728 -0.0082 -0.0041
26460W        W44664   7.607   2.874  17.134 -0.0590  0.0931  0.2983
26461W        W44665  11.460   6.838   2.347 -0.1538  0.0857 -0.2354
26462W        W44666  17.474   5.226  15.876 -0.0562  0.1456 -0.1535
26463W        W44667   1.053   7.597  11.985 -0.0688 -0.0312  0.0560
26464W        W44668  10.719  10.278  12.743  0.1780 -0.0389  0.3513
26465W        W44669   7.628   9.938   0.110 -0.1943  0.0615 -0.3852
26466W        W44670   3.179   4.731  12.499  0.1436  0.2592 -0.0948
26467W        W44671   2.454   8.511  12.652  0.2689 -0.1943  0.1702
26468W        W44672   8.110   3.687  14.663 -0.1049 -0.1117  0.0064
26469W        W44673   9.286  11.272  12.293  0.0536 -0.0061  0.0137
26470W        W44674   4.363  13.156  12.580 -0.0248  0.0380 -0.1105
26471W        W44675  16.419   1.508   3.617  0.0363  0.1610  0.1412
26472W        W44676  12.338  12.368  15.702  0.2436 -0.1116  0.1467
26473W        W44677  13.059  15.110   4.759  0.3103  0.0732 -0.3384
26474W        W44678  16.480  13.204  12.806 -0.0171 -0.2178  0.2078
26475W        W44679  15.328   9.751  13.713  0.1943  0.0089  0.1490
26476W        W44680  11.066  12.832  12.452  0.4178 -0.1986  0.0125
26477W        W44681   1.622   5.009   1.802 -0.1692  0.1375 -0.0128
26478W        W44682  16.836   3.415   4.509 -0.2185 -0.1003 -0.4291
26479W        W44683   2.450   3.435  12.362  0.0354  0.1647 -0.2158
26480W        W44684   6.856   0.798   1.131  0.0281 -0.0915 -0.0990
26481W        W44685  15.329  14.245  16.472  0.1169 -0.1889  0.1398
26482W        W44686  16.632   5.640   0.556  0.2091 -0.1224 -0.0701
26483W        W44687  11.853  13.903  13.893 -0.1779  0.0536 -0.1554
26484W        W44688   9.853  17.225   3.554  0.1929  0.4094 -0.0605
26485W        W44689  12.888  11.460   2.582 -0.0997  0.1282 -0.1291
26486W        W44690   8.113  17.406  14.034  0.0211 -0.1614  0.1590
26487W        W44691   4.068  10.388  13.368  0.1779  0.1772  0.0924
26488W        W44692  11.171  11.529   1.731 -0.0504 -0.1934  0.1113
26489W        W44693   3.054  13.384   1.683 -0.1405  0.2109 -0.0415
26490W        W44694  13.546   1.820  14.858 -0.0330  0.1472  0.2208
26491W        W44695   4.632   4.044  16.691  0.1066 -0.3000  0.3398
26492W        W44696   9.035   1.651   2.966  0.0658 -0.0787  0.3186
26493W        W44697  14.678   4.712  14.202  0.1090 -0.2629  0.3605
26494W        W44698  13.392  16.743  12.951 -0.0076 -0.3900 -0.2569
26495W        W44699  14.375  10.500   1.021 -0.1472 -0.0015 -0.0049
26496W        W44700  11.430  16.420   0.088 -0.1200 -0.2125  0.0583
26497W        W44701   4.038   3.996  17.209 -0.1097  0.0701  0.1291
26498W        W44702   2.817   0.311  12.606 -0.0152  0.1074  0.3886
26499W        W44703   7.792   6.487   1.761  0.1221 -0.1983  0.0726
26500W        W44704  12.165  14.947  13.013  0.2241 -0.1930 -0.0283
26501W        W44705  10.292   2.802  14.531 -0.1042 -0.1485  0.0816
26502W        W44706   7.364   7.150  16.947  0.1507  0.1221 -0.0773
26503W        W44707   1.940   5.979  14.717  0.0789  0.1047 -0.1096
26504W        W44708  15.836   3.633   0.695  0.0381  0.1434  0.1528
26505W        W44709   7.573  17.026   4.134 -0.0534  0.1490 -0.2365
26506W        W44710   2.152   3.992   4.660 -0.0461 -0.3713  0.0630
26507W        W44711   1.929  12.358   1.717 -0.1160  0.2392 -0.0701
26508W        W44712  15.015  16.600  17.040  0.1150  0.0875 -0.0170
26509W        W44713   3.591   6.466  12.750  0.1886  0.0186 -0.2130
26510W        W44714   3.980  11.563   1.912  0.0794 -0.0614  0.2952
26511W        W44715  15.556   3.564   1.973 -0.0659 -0.1941  0.0552
26512W        W44716   2.660  13.010  15.576 -0.0134 -0.1256  0.0238
26513W        W44717   9.989   3.749  13.025 -0.0254  0.0889  0.0061
26514W        W44718   4.444   9.288  13.948 -0.2273  0.4102 -0.1044
26515W        W44719  10.598  13.285  13.947 -0.1170 -0.5124  0.0630
26516W        W44720   8.954  14.950  14.789 -0.0385 -0.1763  0.1806
26517W        W44721   6.316   1.076  12.413  0.0421 -0.0121 -0.1382
26518W        W44722  15.262  17.541   2.916 -0.1113 -0.0496  0.1165
26519W        W44723  16.644  14.148  12.930 -0.1367  0.2979 -0.2547
26520W        W44724   1.396   5.866  15.490  0.0878  0.1793  0.0545
26521W        W44725   2.147   0.208   5.211 -0.1030  0.0773  0.2061
26522W        W44726   7.539  14.103   0.262 -0.0616  0.2696 -0.1260
26523W        W44727  11.403   4.148   5.357 -0.0577  0.0955 -0.0431
26524W        W44728   6.501   4.249   1.103  0.1169 -0.1607  0.2045
26525W        W44729   3.725   3.341  12.983  0.2553  0.1091  0.1881
26526W        W44730  17.212  10.047  12.317  0.0752 -0.1054 -0.1086
26527W        W44731  13.001  10.741   1.185 -0.0097  0.1243  0.1461
26528W        W44732  11.434  15.731   3.045 -0.4900  0.1833 -0.2797
26529W        W44733   1.602  12.076   3.243  0.0027 -0.0904  0.5904
26530W        W44734   5.533  14.977   3.318  0.0288 -0.0365 -0.1833
26531W        W44735  16.151   6.866  15.262  0.1626 -0.1554 -0.0521
26532W        W44736   6.854   7.932  13.558  0.2123  0.1496 -0.1472
26533W        W44737  13.333   8.341   0.871  0.0665 -0.3404  0.2314
26534W        W44738  11.239   1.903   5.133  0.3957 -0.0154 -0.0478
26535W        W44739  17.258   3.943   2.408  0.0328 -0.0808  0.2759
26536W        W44740   9.700  10.637   1.072 -0.1414  0.0455 -0.0303
26537W        W44741   0.228   3.426   1.973  0.2950  0.0846  0.0767
26538W        W44742  12.826  17.310  14.704  0.1375  0.2488 -0.3506
26539W        W44743  16.665  17.424  12.799  0.2704 -0.0073 -0.1336
26540W        W44744   7.440   0.842  14.028 -0.0101  0.0421 -0.2816
26541W        W44745  12.505  11.774  14.491 -0.2747 -0.2369  0.0221
26542W        W44746   6.675   8.765  12.228  0.0039  0.1423 -0.1833
26543W        W44747   2.034   2.395  14.908 -0.0146  0.3075 -0.1533
26544W        W44748  15.672   1.711   4.107 -0.0487  0.2507 -0.2132
26545W        W44749   1.685  10.513   3.785  0.1331  0.1906 -0.1864
26546W        W44750  13.049   3.760   0.067 -0.2192 -0.1791  0.0507
26547W        W44751   0.551   9.004  16.369  0.1621 -0.0367 -0.0557
26548W        W44752   3.220   8.447  15.076  0.1189  0.0462 -0.2818
26549W        W44753   2.687   7.883  14.347 -0.3036 -0.5646  0.3822
26550W        W44754   4.941  13.354   4.064 -0.0684  0.0400  0.1392
26551W        W44755  13.229   0.642   4.769  0.0400  0.1316 -0.1011
26552W        W44756   4.366   2.282   2.151  0.0102  0.2830  0.0205
26553W        W44757   5.859   7.044   1.535 -0.2916  0.0909  0.1283
26554W        W44758   6.797   2.554   2.002  0.0159 -0.1750  0.2371
26555W        W44759   1.618  12.887   2.459 -0.4762  0.4207 -0.2903
26556W        W44760   1.594   2.027  16.711 -0.2358 -0.0456 -0.0183
26557W        W44761   4.005  15.564   3.654 -0.0596  0.3089 -0.0681
26558W        W44762   8.801  15.310   5.286 -0.1622  0.1988  0.1932
26559W        W44763  10.155   5.545  14.255 -0.0680  0.1726 -0.0327
26560W        W44764   9.078   0.324  12.215  0.5074 -0.0389 -0.0539
26561W        W44765   3.477  17.350  15.158 -0.1896 -0.0043 -0.1976
26562W        W44766   0.460  10.444  12.063 -0.1101 -0.0797  0.1050
26563W        W44767   4.977   1.471   4.777 -0.0352 -0.2383  0.1384
26564W        W44768  13.603  10.383  16.232  0.0984 -0.2478  0.2670
26565W        W44769  11.548  13.847   4.866  0.1780  0.0756 -0.1824
26566W        W44770   3.499   9.070  16.423 -0.4295  0.1735 -0.0523
26567W        W44771   8.962   1.706  12.952  0.0206 -0.0256  0.2822
26568W        W44772  12.347  17.329   3.350  0.2793  0.0486  0.3018
26569W        W44773  14.607  12.414   0.620  0.0439 -0.0664  0.0167
26570W        W44774  10.303   3.088  16.837  0.0244  0.2108  0.0145
26571W        W44775   2.929  13.666   2.419 -0.3188  0.2051 -0.3022
26572W        W44776   7.219   4.217   0.574 -0.0183 -0.1430  0.0815
26573W        W44777   3.207   1.557   0.326  0.2824  0.4588  0.2120
26574W        W44778   7.222   1.295  12.451  0.1659  0.0558  0.1984
26575W        W44779   5.233   3.407  15.702 -0.0196  0.1312  0.1982
26576W        W44780  16.348  16.147   2.065 -0.0176  0.0683 -0.3584
26577W        W44781   1.351  15.913  16.648 -0.2463 -0.1093 -0.0172
26578W        W44782   9.048  14.466   1.460 -0.2399 -0.0510  0.0161
26579W        W44783   3.244  10.599  17.031 -0.3445  0.1936 -0.1887
26580W        W44784  11.110   7.992  16.073  0.1502 -0.1901  0.0362
26581W        W44785  17.005   6.930  15.659  0.1918 -0.0997  0.2624
26582W        W44786  15.269   7.044  16.288  0.1263  0.0296  0.0427
26583W        W44787  17.246  15.462   3.707  0.1823  0.2920  0.0635
26584W        W44788   8.745  13.725   0.715  0.2241  0.0433  0.1872
26585W        W44789  14.274  16.040   4.561  0.0796 -0.0211  0.0619
26586W        W44790   3.218  11.245  12.003 -0.0135 -0.0907  0.0107
26587W        W44791   3.033  12.909  15.983 -0.3088  0.2291 -0.0744
26588W        W44792   2.928   3.366  12.184  0.1865 -0.0993  0.2677
26589W        W44793   4.300  11.488  15.131  0.3308 -0.2471 -0.0583
26590W        W44794  17.489   3.075   2.320  0.1755 -0.3411 -0.1204
26591W        W44795  10.017   6.694   4.682 -0.2111  0.2948  0.3478
26592W        W44796  12.673   1.405   3.321  0.0757  0.0411  0.4461
26593W        W44797   7.598  14.624   4.016 -0.0020  0.2154 -0.0084
26594W        W44798   1.301  10.078  15.502  0.0308  0.3154 -0.0191
26595W        W44799   6.817  11.710  14.817  0.0369 -0.3860 -0.0684
26596W        W44800  15.238   5.088  14.290  0.1210  0.1547 -0.1079
26597W        W44801  10.833   2.583   3.124 -0.4296  0.1220  0.2919
26598W        W44802   1.527   6.228   3.724 -0.1272 -0.1681 -0.2165
26599W        W44803  15.639   2.351   1.803  0.1704 -0.2258  0.0908
26600W        W44804   9.183  17.136   4.534 -0.1192 -0.0493  0.2411
26601W        W44805  10.159   4.879   6.143 -0.3758  0.3318  0.0984
26602W        W44806  11.665  13.417   0.957  0.1419 -0.1441 -0.1421
26603W        W44807   9.735  12.314  11.956 -0.1281 -0.1787 -0.0793
26604W        W44808  13.714   5.408   4.817  0.1230  0.0812  0.1805
26605W        W44809  12.983  10.671  12.094  0.0146  0.0039 -0.1763
26606W        W44810   6.722  12.310  12.083  0.0576  0.0128  0.3322
26607W        W44811   6.336   6.759   2.901 -0.0489 -0.0705  0.1735
26608W        W44812   2.410   0.644  15.400  0.1004  0.0704 -0.0519
26609W        W44813  10.675   1.679  13.158  0.0317 -0.0534 -0.1806
26610W        W44814  16.887   3.412  12.276  0.1318 -0.1794 -0.0950
26611W        W44815   8.979  11.771  14.689  0.0022  0.2215  0.1984
26612W        W44816   1.244  10.081   0.913 -0.0512 -0.0717 -0.1359
26613W        W44817   6.752  17.122   3.574 -0.1338  0.1101 -0.2630
26614W        W44818  10.751  11.226  14.354  0.1541  0.3467  0.0664
26615W        W44819   5.216  11.259  16.941 -0.2390 -0.0916  0.3502
26616W        W44820  15.844  15.278   1.897  0.1787  0.1838 -0.1526
26617W        W44821  14.113   8.741  14.970 -0.1178  0.3094 -0.2690
26618W        W44822  14.465   4.632  14.829 -0.1274 -0.1644 -0.0942
26619W        W44823   1.276   1.561   4.637  0.2280 -0.2608 -0.3020
26620W        W44824  13.359  11.099   2.604  0.1824 -0.2069  0.0858
26621W        W44825   2.367   2.092   1.692 -0.0523  0.0719 -0.2801
26622W        W44826  17.314  13.304  12.101  0.0897 -0.1730  0.0475
26623W        W44827   2.562   4.787   3.158  0.1831  0.3936 -0.1808
26624W        W44828   7.264  17.204   0.003 -0.0741  0.0590  0.1359
26625W        W44829   9.218   0.908  17.035 -0.1398  0.4750 -0.2910
26626W        W44830   4.551  12.654   2.485 -0.0741  0.1723  0.0877
26627W        W44831   1.795  12.582  16.005  0.1058 -0.1620  0.3522
26628W        W44832   0.238  14.070   6.177  0.1971  0.0837 -0.1974
26629W        W44833  12.106   4.354   2.770 -0.0040 -0.2023 -0.0719
26630W        W44834   6.244   2.783   2.571 -0.1849  0.0540  0.2247
26631W        W44835   1.953  10.823  14.138  0.1501 -0.1996  0.3591
26632W        W44836  15.170  16.911  15.706 -0.0264 -0.1593  0.1173
26633W        W44837   8.979   8.297  17.249 -0.1179 -0.1550 -0.1187
26634W        W44838   7.470   3.624  12.383 -0.0634  0.1823  0.2253
26635W        W44839  11.903  13.844   5.301 -0.1765 -0.1606 -0.0217
26636W        W44840   5.045  10.204   4.344  0.0865 -0.1917 -0.0849
26637W        W44841   6.218  13.344   2.222 -0.0695 -0.1720  0.0789
26638W        W44842  11.687   0.105   3.539  0.1618  0.3816 -0.3081
26639W        W44843  10.493  12.905   0.382 -0.1390 -0.1826  0.1161
26640W        W44844  11.433   1.313   1.430  0.4593  0.1406  0.1612
26641W        W44845   8.596  17.495  12.342  0.4183  0.0310  0.3167
26642W        W44846   9.548   7.590   5.121 -0.2510  0.1817 -0.1189
26643W        W44847   7.824   7.586  15.989  0.2416  0.0457  0.1844
26644W        W44848   0.421  17.359   5.233 -0.0768 -0.0241  0.2284
26645W        W44849  12.347  11.732  12.385 -0.0109  0.0570  0.0000
26646W        W44850   8.566   8.854   1.573 -0.0550 -0.0061 -0.0669
26647W        W44851   4.190   2.530  13.575 -0.0442  0.1642  0.0262
26648W        W44852  16.727   5.695   4.981 -0.2284 -0.0340 -0.5161
26649W        W44853  11.599   2.464  12.522 -0.1623 -0.1654 -0.0073
26650W        W44854   0.304   9.560  13.911 -0.4232 -0.3230  0.1978
26651W        W44855   6.474   9.830   4.209  0.0632  0.1061  0.3114
26652W        W44856   9.596  16.129   3.334  0.0175  0.1346 -0.3359
26653W        W44857   4.028   5.793   1.920 -0.0383  0.0926  0.2444
26654W        W44858   7.844   0.724  12.395 -0.2852  0.1044  0.1376
26655W        W44859   1.777  11.698  12.971 -0.1654 -0.1989 -0.0205
26656W        W44860  15.444   4.252  17.198  0.2127 -0.1063  0.1216
26657W        W44861  12.845  13.154   0.548  0.3925  0.1257  0.3284
26658W        W44862   4.279   5.295  13.499  0.1154  0.0150  0.1641
26659W        W44863  15.031   1.176  16.896  0.0313 -0.0733  0.3276
26660W        W44864  14.315   5.599   0.340 -0.0837  0.3298  0.1146
26661W        W44865   5.495   5.080   2.049 -0.0978  0.2022  0.1694
26662W        W44866  16.414   6.213  14.460  0.0368 -0.0719 -0.0730
26663W        W44867  14.992   8.982   4.257 -0.2578 -0.0006 -0.1907
26664W        W44868  15.436  16.320  14.432  0.2685 -0.0047  0.2020
26665W        W44869   8.510   2.440  16.067  0.0309 -0.0429 -0.1594
26666W        W44870   9.046  11.144   5.037 -0.2081  0.0651 -0.0227
26667W        W44871   6.812   9.980   4.837 -0.2216  0.0141 -0.5363
26668W        W44872  12.405   1.084   4.205 -0.0289 -0.0551  0.5900
26669W        W44873  16.797   2.510  13.196 -0.3272  0.2640  0.2624
26670W        W44874  11.447   5.014   1.810 -0.0247 -0.0374  0.1044
26671W        W44875  15.586   4.455   4.732  0.2712  0.0093  0.1438
26672W        W44876  12.649   1.151  15.591  0.2751  0.1512  0.2119
26673W        W44877   2.554   0.171   1.568  0.2089 -0.2140  0.0748
26674W        W44878   6.992   8.636   4.746 -0.1595  0.0070 -0.0275
26675W        W44879  14.527  16.601  14.311  0.1017 -0.0279 -0.0860
26676W        W44880  13.691   7.142  12.332  0.2555  0.0401  0.1887
26677W        W44881  14.312  14.907   0.628  0.1122  0.2270  0.3741
26678W        W44882   3.466   2.237  15.038  0.0873 -0.2616 -0.3054
26679W        W44883  16.176  15.635  14.853  0.0383  0.1256  0.1056
26680W        W44884   2.741  11.628   4.011  0.0271 -0.1487 -0.2823
26681W        W44885  14.170   7.441  10.996 -0.0188 -0.4952  0.0069
26682W        W44886   0.823  10.787  16.676  0.4816  0.0443 -0.3356
26683W        W44887  10.377   6.062  17.238 -0.1825  0.1635 -0.3385
26684W        W44888  15.437   6.938  17.248  0.0550  0.0644  0.2604
26685W        W44889  16.511  10.619   5.280 -0.1502 -0.0756  0.0708
26686W        W44890  14.410  12.688   3.846 -0.0841  0.2569  0.0954
26687W        W44891  17.246   1.913   3.361  0.2654  0.5442 -0.1475
26688W        W44892   3.443   4.421  16.822  0.0866 -0.0697  0.0344
26689W        W44893   2.028   2.383  13.579  0.1166  0.0562  0.2794
26690W        W44894  12.722   8.216  16.073  0.0816  0.0558  0.2479
26691W        W44895  13.298  10.800  16.877  0.1641  0.0841  0.0345
26692W        W44896   2.263   2.885  15.835 -0.2263  0.1205  0.0236
26693W        W44897   6.160   8.475  14.392  0.0110 -0.1380 -0.0444
26694W        W44898   8.682   7.004   3.884 -0.0490 -0.0634  0.0884
26695W        W44899   9.335  12.976   0.604  0.1313 -0.5526 -0.1521
26696W        W44900   7.831   6.735   0.846  0.2672  0.1882  0.1223
26697W        W44901  15.552   8.919  12.857 -0.0611  0.0707  0.1931
26698W        W44902   0.383   2.662   1.188  0.0452  0.0900  0.1614
26699W        W44903   2.922   3.696  15.781  0.0295 -0.1944 -0.2243
26700W        W44904  12.974  12.574  12.343  0.0943 -0.1615 -0.1802
26701W        W44905  11.486  10.638  16.345  0.0587  0.1741 -0.0432
26702W        W44906  16.295   7.406  12.507 -0.1759 -0.0510  0.1639
26703W        W44907   6.677  13.707  13.948 -0.0253  0.0204  0.2974
26704W        W44908   3.663  10.726   4.270  0.2744  0.0784 -0.1143
26705W        W44909   4.302  11.028  17.132  0.2244  0.0410 -0.2514
26706W        W44910  17.278   6.623  12.404 -0.1774 -0.1066  0.3014
26707W        W44911   0.256   1.280   4.357  0.1205 -0.1713  0.0096
26708W        W44912  16.204   6.506  16.614  0.2730  0.1801  0.0346
26709W        W44913  15.829  11.787  16.097  0.2502 -0.0012  0.0423
26710W        W44914  10.923   0.892  13.998  0.2729 -0.0089 -0.0322
26711W        W44915  10.566  14.434  16.577 -0.0898 -0.0806  0.0280
26712W        W44916   2.819   7.816   4.844 -0.2940 -0.3965 -0.1811
26713W        W44917  14.072   1.010  14.844  0.0652  0.1249 -0.1495
26714W        W44918   6.549  12.646  13.636  0.1536 -0.2934  0.1630
26715W        W44919   1.142   3.055   4.833 -0.0172 -0.3137 -0.1932
26716W        W44920   5.192   4.126   3.485  0.1858  0.2709 -0.2362
26717W        W44921  13.608   8.150   2.747 -0.2337 -0.3094 -0.0718
26718W        W44922  12.395  14.288   1.902  0.0592  0.2075 -0.1793
26719W        W44923   4.165  14.285   2.941  0.0239 -0.2667  0.0154
26720W        W44924  12.473   2.615   1.864  0.0205  0.0066 -0.1954
26721W        W44925   2.489  11.535  14.190 -0.0930  0.0167  0.1209
26722W        W44926   3.877   5.713  13.194 -0.1760  0.2131 -0.1964
26723W        W44927  11.517   9.866  15.984 -0.0698 -0.1644  0.4035
26724W        W44928  11.468  16.639  12.464 -0.2102 -0.0190  0.1366
26725W        W44929   7.647   6.770  13.212 -0.0246 -0.2252 -0.1380
26726W        W44930   5.423   7.228  16.713  0.0754 -0.1924  0.1971
26727W        W44931   6.490   5.862  16.164 -0.1571  0.1026  0.2085
26728W        W44932  14.633   4.378   4.577  0.0712 -0.0356 -0.0760
26729W        W44933  10.902   4.341   1.453 -0.3068 -0.3492  0.0546
26730W        W44934  15.517  14.250  12.841 -0.0216  0.0284 -0.2113
26731W        W44935   7.858  14.436  13.135 -0.0303 -0.1063 -0.1188
26732W        W44936  15.118  17.254   5.511 -0.0141 -0.4356 -0.1188
26733W        W44937   3.187   6.183  12.525 -0.0304 -0.0060  0.0773
26734W        W44938  16.351   8.264   2.940 -0.0188  0.0567 -0.2450
26735W        W44939   2.862   4.040   2.452  0.0241  0.0062 -0.1911
26736W        W44940   6.945   0.676  12.630 -0.0738  0.3764  0.0353
26737W        W44941   0.486  13.810   5.545 -0.1256 -0.0778  0.1089
26738W        W44942   3.040  11.675  14.315 -0.0832 -0.0280  0.3796
26739W        W44943  10.042   8.867  17.133 -0.0175 -0.2479 -0.1821
26740W        W44944   2.626   3.752  17.146  0.2753  0.0152  0.1358
26741W        W44945  17.012  15.584  12.606  0.0746 -0.1685 -0.0767
26742W        W44946   3.571   7.865  14.423  0.0548 -0.2732  0.1197
26743W        W44947   6.291   9.655  11.739  0.0007 -0.2080  0.0731
26744W        W44948   0.609   8.763   4.354 -0.0449  0.1333 -0.1637
26745W        W44949  15.668  12.412  16.441  0.1231 -0.3368 -0.3355
26746W        W44950   5.737   6.117  11.886 -0.1742 -0.0858  0.1832
26747W        W44951   7.313  14.058  12.188 -0.3039  0.1459  0.2298
26748W        W44952   9.406   3.009   0.768 -0.3862 -0.0517  0.3538
26749W        W44953   6.498  10.042   1.126  0.1138 -0.1390 -0.0902
26750W        W44954  15.641   7.253   3.506 -0.0685  0.2155 -0.1233
26751W        W44955  13.690  15.692  14.593  0.2897 -0.0013  0.1123
26752W        W44956   7.817  17.399   5.084  0.0875 -0.1138 -0.0159
26753W        W44957  15.590   7.035   2.552 -0.2031  0.0094  0.1692
26754W        W44958  12.553   5.045  11.126  0.1177 -0.3749  0.0180
26755W        W44959   0.173  13.305  13.220 -0.0326  0.0767 -0.1880
26756W        W44960  15.497   9.399   2.316 -0.2268 -0.0013 -0.0486
26757W        W44961   3.781   9.478   3.807  0.0369  0.3780  0.1525
26758W        W44962  11.745  11.769  10.714  0.4698 -0.1927 -0.2678
26759W        W44963  11.015  14.049   0.031  0.1092 -0.1915  0.1073
26760W        W44964  14.390   4.942   1.850 -0.3814 -0.0244  0.1159
26761W        W44965  14.116   1.394   4.276 -0.4770 -0.1165  0.0919
26762W        W44966  11.211   4.432   4.539  0.1794  0.1069  0.0823
26763W        W44967  14.828   4.929  14.637  0.1977  0.1219 -0.0985
26764W        W44968  16.404  15.322  12.398  0.2826 -0.1598 -0.0885
26765W        W44969   6.049   5.778   3.243 -0.3970  0.0459  0.2825
26766W        W44970   0.474  11.457   0.762 -0.2301 -0.0649  0.2850
26767W        W44971  10.618   9.825   2.726  0.0070 -0.0589 -0.2324
26768W        W44972   0.536   0.941  12.665 -0.2600  0.0049 -0.1132
26769W        W44973   4.647   2.508  13.272  0.0536 -0.4163  0.2123
26770W        W44974   2.055  11.456   3.553  0.0222 -0.0299  0.0349
26771W        W44975  11.952   1.721  14.538  0.0126 -0.1366  0.0526
26772W        W44976   2.764   3.059   3.480  0.1441 -0.2663 -0.0110
26773W        W44977  16.512   3.830   3.485 -0.0848 -0.2231 -0.0289
26774W        W44978  12.153  16.407  13.333  0.2383 -0.0860  0.0326
26775W        W44979  15.113  13.823   4.389  0.0580 -0.0416 -0.1409
26776W        W44980  12.662  16.297  11.416 -0.0195  0.1313  0.0209
26777W        W44981  16.623   5.589   1.722 -0.1932  0.0657 -0.0959
26778W        W44982   0.306  13.281   4.384 -0.0408 -0.1468 -0.0423
26779W        W44983   7.504   0.192  17.264  0.2084  0.1589 -0.1300
26780W        W44984  14.598   4.188   2.541 -0.1235 -0.1600  0.0031
26781W        W44985   6.899  15.427   5.151  0.1794  0.2732 -0.1241
26782W        W44986   3.051   4.963   4.860  0.1613  0.1095  0.0252
26783W        W44987   9.560  11.697  14.548  0.0283  0.1282  0.1546
26784W        W44988  14.353   3.050   4.878  0.0253 -0.1421  0.0953
26785W        W44989   2.680   2.257   2.456  0.0802 -0.0016  0.0467
26786W        W44990   6.681   1.729   0.529 -0.0740  0.1233 -0.1386
26787W        W44991  15.143   0.811   3.043  0.0862 -0.2410  0.2755
26788W        W44992  11.207  14.566  14.433  0.1662  0.0139 -0.0921
26789W        W44993  12.514  14.860   1.720 -0.1666  0.0991 -0.1312
26790W        W44994  10.651  16.638  12.268 -0.3905  0.2176 -0.3104
26791W        W44995  15.918   4.197  16.324  0.1182 -0.0105 -0.2268
26792W        W44996   3.941  14.066   3.674 -0.2177  0.2259  0.2353
26793W        W44997   0.635   4.214   2.839 -0.0858 -0.2965  0.0917
26794W        W44998   4.553  15.353  15.165 -0.2882 -0.1809  0.1029
26795W        W44999  14.068   6.201   5.383  0.0087 -0.1838 -0.1730
26796W        W45000  12.291   3.007  13.039 -0.0886 -0.0959  0.2912
26797W        W45001  10.868  17.421   1.107 -0.2361 -0.0015  0.2856
26798W        W45002   4.244   0.383  12.611  0.0208 -0.1182  0.1364
26799W        W45003   3.215  14.700   1.783  0.0773  0.0637  0.3983
26800W        W45004   6.316  15.199   1.348  0.0251 -0.1624  0.1806
26801W        W45005  11.381  16.513   3.226  0.2685  0.1202  0.0739
26802W        W45006  11.392  17.297  12.164 -0.1412  0.1388  0.1562
26803W        W45007  17.340   4.442   2.407  0.2695  0.0118 -0.1240
26804W        W45008   8.042   4.243  16.224  0.0791  0.0850  0.0985
26805W        W45009   4.596   0.428   1.537  0.2460 -0.3587  0.0831
26806W        W45010   7.625   5.815   4.158  0.1959  0.1364  0.2012
26807W        W45011   4.392  15.531   5.146  0.1645  0.3293  0.1577
26808W        W45012  13.174  17.154   5.969 -0.2691  0.0835  0.0586
26809W        W45013  13.193  15.947   3.185 -0.0558  0.5157 -0.0548
26810W        W45014  13.823  16.641   0.994  0.2847  0.0775  0.1129
26811W        W45015   3.660   1.095   0.236 -0.1163 -0.2499  0.0605
26812W        W45016  10.632  10.787  14.139  0.1825 -0.1755 -0.1180
26813W        W45017  14.900   7.025  14.445 -0.1986 -0.2164  0.3027
26814W        W45018  12.551   9.725   2.134 -0.3202  0.1426  0.0517
26815W        W45019   5.077  16.189   2.921 -0.0475 -0.0249  0.1532
26816W        W45020   8.885   1.088   4.050  0.1758 -0.3112 -0.1541
26817W        W45021   8.549  13.548  13.213  0.1695 -0.3551  0.0251
26818W        W45022  13.028  12.900  11.938 -0.1339  0.2987 -0.1436
26819W        W45023  13.939   1.100  15.749  0.0868 -0.0728 -0.0413
26820W        W45024  13.670   0.557  14.938  0.1490  0.0813  0.1111
26821W        W45025   6.654  11.421   4.681  0.1089  0.1613 -0.0647
26822W        W45026  13.137   1.198   1.025 -0.0828  0.3265 -0.1095
26823W        W45027  13.681   8.547   4.163  0.1653  0.4412  0.0341
26824W        W45028   2.226   8.810   4.515 -0.0716  0.1785  0.2029
26825W        W45029  11.786   7.602  14.652  0.0004  0.0366 -0.0823
26826W        W45030  11.962   7.220  11.956 -0.2175  0.1198 -0.0330
26827W        W45031   4.249  15.673  13.976 -0.1276  0.1427  0.2343
26828W        W45032   0.338   5.272  13.633 -0.0893  0.0902  0.0991
26829W        W45033   4.126   9.995  15.370 -0.2034 -0.1863  0.0429
26830W        W45034   9.727  14.893  13.449  0.1470  0.0025 -0.2268
26831W        W45035   5.943   4.579   0.021  0.0918 -0.3336 -0.0232
26832W        W45036   2.061  15.911  16.003 -0.0577  0.0407 -0.0574
26833W        W45037   5.134  12.888  15.954  0.1104  0.0675  0.0314
26834W        W45038   3.454   6.268  15.852 -0.1963 -0.1678  0.0164
26835W        W45039  14.073   4.720  12.068 -0.0879  0.0844  0.0216
26836W        W45040   3.450  10.370  16.124  0.0342  0.1512  0.1015
26837W        W45041   4.175  11.918  14.448  0.0535 -0.2434  0.0658
26838W        W45042  16.455   8.462   0.152 -0.2065 -0.0592 -0.2371
26839W        W45043  17.460  12.128   5.679 -0.2523  0.3177  0.1846
26840W        W45044   4.315  13.122   3.555  0.1269  0.1632 -0.1506
26841W        W45045  15.529   1.690   3.451  0.0753  0.0897  0.1636
26842W        W45046   8.096  11.277   2.485  0.0484  0.1024 -0.0162
26843W        W45047  13.929   1.813   5.102 -0.2573 -0.2740 -0.2098
26844W        W45048  15.634   1.426  11.714  0.1772 -0.0906  0.0520
26845W        W45049  16.791  13.016  15.347  0.2283  0.3815 -0.0381
26846W        W45050   8.555  13.215   2.035 -0.0840 -0.2669  0.0793
26847W        W45051  12.263   2.665  14.656  0.2209  0.0126  0.3001
26848W        W45052   3.142  12.149   1.024 -0.2361 -0.2161 -0.1621
26849W        W45053  10.309  15.817  13.236  0.0375  0.4441 -0.0250
26850W        W45054  13.102  11.012  14.661 -0.2591  0.1521 -0.1406
26851W        W45055   1.450   4.361   3.294 -0.2339  0.2396 -0.2325
26852W        W45056  16.544   7.071   3.670  0.5034 -0.0007  0.2612
26853W        W45057   5.779   0.288  16.803  0.0816 -0.2923 -0.0440
26854W        W45058   7.888   8.680   0.867 -0.0016 -0.2192 -0.0910
26855W        W45059  16.889  10.734  16.193 -0.2023  0.0940  0.4383
26856W        W45060  12.497  17.330   4.502  0.0268 -0.2429 -0.0389
26857W        W45061  13.497   2.354  17.213 -0.0090  0.4160 -0.1152
26858W        W45062   9.545  13.657   2.609  0.5201  0.1559 -0.1287
26859W        W45063  16.203   4.313   1.004 -0.0570 -0.0676  0.0508
26860W        W45064   6.382   2.311   1.875  0.1164  0.0774 -0.3646
26861W        W45065   9.057  17.192  13.160 -0.1676 -0.0522  0.4044
26862W        W45066   8.885  16.695  15.098  0.1975  0.1573  0.0887
26863W        W45067  12.349   6.422  12.932  0.2881 -0.2556  0.0086
26864W        W45068  12.357   6.355   5.382  0.0899 -0.0648  0.1449
26865W        W45069  16.537  13.965   3.204 -0.1882 -0.1144  0.0587
26866W        W45070  14.395   9.516   3.513 -0.0336 -0.1671  0.2343
26867W        W45071   2.771  14.030   1.463  0.3263 -0.1584 -0.2005
26868W        W45072  14.629   4.921   3.414 -0.3470 -0.1301  0.0798
26869W        W45073   2.186  10.731   0.045  0.0771  0.0489  0.1985
26870W        W45074  13.648  10.807   2.877 -0.2301 -0.0355 -0.3949
26871W        W45075  10.706  17.054   2.979 -0.1222 -0.3279  0.1914
26872W        W45076  14.074   4.655  14.006 -0.1059 -0.0917 -0.0277
26873W        W45077   5.539   7.657   3.415  0.0899 -0.2177 -0.2261
26874W        W45078   5.277  15.972  15.497  0.2175  0.1608  0.0959
26875W        W45079   3.514  11.979  12.468  0.2901 -0.0768 -0.0271
26876W        W45080  10.225   0.512  15.851  0.1312  0.2326 -0.0619
26877W        W45081   9.986  13.791  16.218 -0.1184 -0.0801 -0.0359
26878W        W45082  16.311  15.879   5.224 -0.1043 -0.0220  0.1457
26879W        W45083  15.614  15.471   2.931 -0.1674 -0.0900  0.2418
26880W        W45084   9.703   2.891  12.535 -0.0789  0.2719  0.2034
26881W        W45085  16.301  11.686   4.241  0.2402  0.1506 -0.0633
26882W        W45086   7.330   6.371   1.479 -0.0415  0.2891 -0.1494
26883W        W45087   9.893  10.996  14.064  0.2032  0.0761  0.0758
26884W        W45088   9.732   3.374  13.338  0.2285  0.0674 -0.1909
26885W        W45089   4.076   8.961  16.093  0.0563 -0.0218  0.1196
26886W        W45090   4.745   3.950   1.586  0.0244  0.1651 -0.0433
26887W        W45091  13.950   6.550   0.380  0.1657  0.0960 -0.0410
26888W        W45092   3.141   9.205  17.242  0.1340  0.0258  0.1899
26889W        W45093   5.336   7.410   5.212  0.0710  0.2322  0.0720
26890W        W45094  11.757   8.676   1.282 -0.0701 -0.0783  0.3084
26891W        W45095   3.156   5.773   2.983  0.3073  0.1992 -0.2494
26892W        W45096  13.992   5.274  14.637  0.0645  0.2129 -0.1538
26893W        W45097  15.631  16.308   5.630  0.3603 -0.2067  0.0732
26894W        W45098  15.559   7.727   0.833  0.5532 -0.0013  0.1155
26895W        W45099  12.444   6.354   4.556  0.1153 -0.0515  0.0341
26896W        W45100  12.423   3.899   0.915 -0.1655 -0.1096 -0.1072
26897W        W45101  14.337  14.220   5.661 -0.1413 -0.4069 -0.0577
26898W        W45102   2.763  11.855  13.220  0.2795  0.0402  0.1973
26899W        W45103   2.518   7.271  16.082 -0.0990  0.3411 -0.2172
26900W        W45104  14.043   1.697  12.579  0.2655 -0.1422 -0.2033
26901W        W45105   7.357  13.714   1.932  0.0434  0.1930 -0.0006
26902W        W45106   7.889  13.510  15.494  0.3910 -0.1440  0.1726
26903W        W45107  16.290  16.616   2.348  0.0170 -0.0794 -0.3794
26904W        W45108   8.988   4.039   4.339 -0.0787 -0.1776 -0.1009
26905W        W45109   0.825   5.421  14.796 -0.1102 -0.1348  0.1284
26906W        W45110  16.838   8.270   4.728  0.1641  0.1352 -0.3013
26907W        W45111   3.904   7.887   2.835  0.2124 -0.1793 -0.0895
26908W        W45112   3.032  15.049   5.260 -0.0257  0.0259 -0.2193
26909W        W45113  13.588  11.024  12.758  0.1400 -0.1777 -0.1536
26910W        W45114   9.792   6.370  13.805  0.3688  0.3707  0.1035
26911W        W45115  10.825  14.466   4.407  0.2980 -0.2403 -0.0451
26912W        W45116   1.233   3.374  17.027  0.0739 -0.1377  0.2633
26913W        W45117   2.230  12.359   1.302 -0.1789  0.0807 -0.1672
26914W        W45118   8.994   2.266  12.764 -0.1953  0.2537 -0.0697
26915W        W45119   8.645   1.543   4.861  0.0935 -0.0527 -0.1963
26916W        W45120  11.863   6.877   2.857  0.1832  0.3658  0.0801
26917W        W45121  10.330   8.592   0.143 -0.2878 -0.0677  0.2079
26918W        W45122   0.591   2.662  14.184 -0.0458  0.4143 -0.3085
26919W        W45123  15.716  14.011  13.229 -0.2050 -0.2152  0.0418
26920W        W45124   2.044  16.199  14.088  0.2006 -0.2837  0.1661
26921W        W45125   8.530  13.421  13.852  0.1701 -0.1230 -0.2554
26922W        W45126  13.659  17.140   2.599 -0.1141 -0.0013  0.1454
26923W        W45127   8.466   5.654  14.951  0.0585 -0.1481 -0.2827
26924W        W45128  11.368  15.887   1.976 -0.0692  0.2617 -0.1208
26925W        W45129  15.104  10.896   0.645  0.1798  0.0507  0.0920
26926W        W45130  14.681   2.655  12.962 -0.0200  0.0964  0.1590
26927W        W45131   0.500  10.685   0.327  0.0648  0.1479 -0.2392
26928W        W45132   7.142   7.225   5.165  0.0940  0.0619  0.1235
26929W        W45133   9.457   2.469  12.770  0.0142 -0.4759 -0.2644
26930W        W45134  15.424  10.292   2.685 -0.0706 -0.5159 -0.2444
26931W        W45135   2.616   6.224  12.335  0.0215 -0.1143  0.5607
26932W        W45136   8.400   0.205   4.165 -0.1312  0.0713 -0.2900
26933W        W45137   9.943   1.608  16.260 -0.0746 -0.1417  0.2163
26934W        W45138  15.422   2.943   0.202  0.0515 -0.0264 -0.0152
26935W        W45139  15.328   5.377   0.680  0.2845 -0.2444 -0.0817
26936W        W45140   0.406   6.793   3.324  0.0987 -0.2130  0.0621
26937W        W45141   3.438   7.113   3.121 -0.1264  0.1157 -0.1052
26938W        W45142  17.357  15.917   3.802 -0.3182  0.2581  0.3702
26939W        W45143   8.472   1.618   4.410  0.0029  0.0791  0.0619
26940W        W45144   2.192   4.746   2.500  0.3138  0.4806  0.0852
26941W        W45145  14.180   0.728  16.908 -0.5206  0.0428 -0.0517
26942W        W45146  10.689  15.360  16.981  0.2174 -0.2314 -0.0370
26943W        W45147  14.707   1.542  16.796  0.1060 -0.2193 -0.0737
26944W        W45148   6.170  11.173   4.668  0.0319 -0.0279  0.0548
26945W        W45149  16.123   9.103   3.468 -0.4227  0.1848 -0.1412
26946W        W45150  10.706  14.350  16.035  0.2913 -0.1265 -0.0397
26947W        W45151  17.324   8.746  15.715  0.0348  0.3650  0.3041
26948W        W45152   3.311   1.326  14.715  0.0728 -0.1840  0.0795
26949W        W45153   4.540   6.827  16.963 -0.3387  0.0757  0.1501
26950W        W45154   1.174   3.210   3.689  0.1085  0.0181 -0.2049
26951W        W45155  13.883  17.097  17.002 -0.0778 -0.0167 -0.0468
26952W        W45156  10.916  13.356   2.231 -0.0633 -0.0852 -0.0632
26953W        W45157  13.173   8.499   4.050 -0.1282  0.0670  0.2116
26954W        W45158   2.387  13.130  11.248  0.0088  0.0906 -0.1732
26955W        W45159   9.445   0.801  14.616  0.1867  0.2884 -0.2811
26956W        W45160  13.431  12.987   4.213 -0.0713  0.1887 -0.2591
26957W        W45161  12.870   8.353   1.829  0.1338  0.1313 -0.0566
26958W        W45162  15.945   8.729  15.144  0.0998  0.1380 -0.3951
26959W        W45163   6.587   0.498   5.094  0.3355  0.1636  0.0399
26960W        W45164   4.632   7.147  12.452 -0.2061  0.2068 -0.1565
26961W        W45165   7.471   2.073  15.465 -0.0440  0.1024  0.0763
26962W        W45166   1.533   9.348  11.152 -0.0627 -0.2374 -0.0457
26963W        W45167   9.053   1.162  13.116 -0.0741  0.2002  0.1816
26964W        W45168  10.894   9.440  14.603  0.2483  0.1708 -0.0614
26965W        W45169  11.701   3.646   0.404  0.2120 -0.0531  0.1721
26966W        W45170  13.605  11.735   1.966  0.0613 -0.1797 -0.1044
26967W        W45171  11.740   3.078   1.308  0.0152 -0.1656 -0.0314
26968W        W45172  13.018   8.746  12.154 -0.0261  0.3909 -0.0601
26969W        W45173   2.132  12.374   4.663  0.1830 -0.2138 -0.1671
26970W        W45174   2.549   4.637  13.561  0.0331  0.3778 -0.2713
26971W        W45175  12.762  12.786  17.085  0.0073 -0.0846  0.1520
26972W        W45176  17.063  17.080   2.386  0.0805 -0.3872 -0.2467
26973W        W45177   5.116   3.348   2.916 -0.2412 -0.2255  0.0774
26974W        W45178   1.059  15.222   5.459 -0.0840  0.2478  0.1919
26975W        W45179  16.075   4.563   2.974 -0.0308 -0.1268 -0.2744
26976W        W45180  10.627  11.573   4.542 -0.2100 -0.0167 -0.1803
26977W        W45181   7.656   8.425   4.635 -0.1293  0.3997  0.0806
26978W        W45182   0.697   6.480   1.746 -0.1807 -0.0670 -0.3568
26979W        W45183  15.573   2.135   3.746 -0.1091 -0.1189 -0.2056
26980W        W45184   6.699  13.576   4.955  0.0934 -0.1323 -0.0635
26981W        W45185   1.920  11.184   3.149 -0.2210 -0.0390 -0.1357
26982W        W45186   1.516  16.931   0.708  0.1396  0.0773  0.0435
26983W        W45187   8.219  17.080  16.429  0.2365  0.0869  0.2329
26984W        W45188   6.029  11.155  15.022 -0.2352 -0.1951 -0.0097
26985W        W45189   9.710   9.946  16.410 -0.0465  0.2315 -0.0681
26986W        W45190   9.482  15.023   2.129  0.0979 -0.0786 -0.1952
26987W        W45191  16.021   2.479  15.633  0.1167 -0.2259 -0.0738
26988W        W45192  15.847  17.183   2.241  0.0167  0.0647  0.1556
26989W        W45193   9.929   9.537   3.995  0.2358 -0.3376  0.3344
26990W        W45194   3.361  14.290  14.004 -0.1746 -0.0536  0.0016
26991W        W45195  14.846   8.244  16.095  0.2121  0.0904 -0.2546
26992W        W45196   1.651   0.148   4.046 -0.0607 -0.0272  0.2061
26993W        W45197   7.667   0.002   3.273  0.0551  0.1570 -0.0809
26994W        W45198  12.432  13.380  11.092 -0.1303  0.1251 -0.0324
26995W        W45199  13.797   5.001  15.002  0.0813 -0.1243 -0.0382
26996W        W45200   5.958   8.480  12.628 -0.0434 -0.0922  0.1477
26997W        W45201  11.038   4.084  16.148  0.4626  0.0005 -0.0461
26998W        W45202  12.017   7.500   2.381  0.2036  0.1778 -0.1812
26999W        W45203  16.936   4.782  14.820 -0.1517  0.0432  0.0647
27000W        W45204   5.739   4.188   1.794  0.1350  0.3891  0.1359
27001W        W45205  15.405   6.953  14.834  0.0209 -0.0737  0.1622
27002W        W45206   2.301   3.936  14.161  0.1418 -0.0570 -0.2463
27003W        W45207   9.568   8.634  14.036  0.2860 -0.1079  0.1411
27004W        W45208   9.272   9.797   3.223  0.0487 -0.0630 -0.2597
27005W        W45209   7.899   0.745   3.035  0.0654  0.4459 -0.0077
27006W        W45210  11.797   2.035   0.656  0.0065 -0.0568 -0.2701
27007W        W45211  12.853  12.938  14.042  0.1000  0.3429  0.1322
27008W        W45212  14.136  12.504  11.072  0.0498  0.0677 -0.2035
27009W        W45213  17.054  12.610   3.743  0.1450 -0.1230  0.0531
27010W        W45214   9.785   4.925   3.501  0.1021  0.3273 -0.0374
27011W        W45215   6.403   5.974  15.161 -0.0310 -0.1565  0.1021
27012W        W45216  14.903   1.936  14.795 -0.1082  0.0569  0.3166
27013W        W45217  16.123  10.948   5.313 -0.0743  0.1162 -0.0086
27014W        W45218   2.192   9.870  14.830  0.3343 -0.0710 -0.0342
27015W        W45219   6.280  15.637  13.619 -0.2938  0.0057 -0.1113
27016W        W45220   5.124   7.780   1.800  0.0491 -0.0754 -0.1727
27017W        W45221   2.619   3.883   4.006 -0.2686  0.1493 -0.0411
27018W        W45222   7.977   1.787  13.452  0.0444 -0.0819  0.1754
27019W        W45223  14.087   0.409   1.004  0.1308 -0.5946  0.1451
27020W        W45224   1.518  16.060  12.261 -0.0824 -0.1127 -0.1166
27021W        W45225   2.817   4.572  13.066  0.0062  0.1040 -0.0019
27022W        W45226  17.492   9.502   2.468 -0.0720  0.0713  0.0285
27023W        W45227   2.822   8.068  12.571 -0.1886 -0.2293  0.1408
27024W        W45228  14.180  11.591  16.357 -0.0390  0.1784 -0.1199
27025W        W45229   8.451   8.746  14.684  0.2808  0.0237  0.1714
27026W        W45230   5.344   6.916  14.804 -0.0605  0.0553  0.1994
27027W        W45231   3.989   9.913   5.135  0.2239 -0.2607 -0.1005
27028W        W45232  17.477   1.317  13.973 -0.1220  0.2866 -0.0198
27029W        W45233  17.106   8.593   4.969  0.2877 -0.3744  0.0249
27030W        W45234   4.901  16.999   3.420  0.1267 -0.1374  0.1023
27031W        W45235   3.388   5.795   0.135  0.1324 -0.4799  0.2600
27032W        W45236   3.161   6.689  12.717 -0.1209 -0.1934  0.0078
27033W        W45237  16.319   4.552  17.172  0.1838 -0.1248  0.0870
27034W        W45238   6.121   8.037  13.505 -0.2152 -0.2521  0.0326
27035W        W45239   3.874   5.293   2.491 -0.0648  0.1124 -0.1603
27036W        W45240   2.119   9.078   2.928  0.0029  0.0587  0.0153
27037W        W45241  17.203  14.714   3.758  0.1757  0.0728  0.0890
27038W        W45242   0.174   1.031   1.456  0.2272 -0.0924 -0.1083
27039W        W45243  16.789  16.255  15.732 -0.5526  0.1687  0.0964
27040W        W45244   5.673   6.640  12.946 -0.1549 -0.0416  0.0194
27041W        W45245  12.919   9.619   5.095  0.0744  0.1894 -0.3837
27042W        W45246  15.978  17.405   1.190 -0.0119 -0.1552 -0.0995
27043W        W45247   9.970  11.302   4.006  0.3030  0.1714 -0.2495
27044W        W45248   2.662   2.380   3.557 -0.1772  0.2154 -0.0325
27045W        W45249   7.546  14.619  11.793  0.0724  0.0735  0.1808
27046W        W45250   5.682   4.832   3.832  0.3405 -0.0022 -0.1397
27047W        W45251   9.016  14.746   4.220 -0.0885  0.2214 -0.2091
27048W        W45252  14.574   9.641   2.747 -0.0034 -0.0921 -0.0950
27049W        W45253   6.524  14.180   1.702  0.0209  0.1416 -0.2065
27050W        W45254   1.684   2.249   3.509 -0.1123  0.1434  0.0755
27051W        W45255   1.102   7.680  14.666 -0.2293  0.0233 -0.1950
27052W        W45256   8.946   9.403   3.067 -0.1947 -0.0001 -0.0291
27053W        W45257   2.641   1.707  15.201 -0.3493 -0.0039 -0.2049
27054W        W45258  14.588  13.752   4.168  0.0670 -0.1492  0.1879
27055W        W45259   0.261   1.583   3.403  0.1862 -0.1123 -0.1296
27056W        W45260   6.828   7.918   3.185 -0.3175  0.1925 -0.3495
27057W        W45261  16.312  17.160   2.120  0.0548 -0.0735 -0.3109
27058W        W45262  14.373  14.452  17.009  0.2365 -0.1048 -0.5422
27059W        W45263  16.411   0.505   2.506  0.0529 -0.0775  0.2019
27060W        W45264   0.616   9.534  14.649 -0.0501  0.2535  0.3564
27061W        W45265   7.118  11.135  15.726  0.0915 -0.0055 -0.0701
27062W        W45266  14.273   0.055   1.272 -0.1147 -0.1020  0.0788
27063W        W45267  10.559   5.002   4.721  0.0195  0.2516 -0.3596
27064W        W45268   5.295  11.547   2.035 -0.0312 -0.2125  0.4050
27065W        W45269  15.129  12.963   2.076 -0.1095  0.1334 -0.0342
27066W        W45270   3.384  15.602  15.490  0.0068 -0.0032  0.0400
27067W        W45271  12.680   5.466  16.164 -0.2966  0.0387  0.3202
27068W        W45272  12.572   3.829  15.245 -0.0094  0.0762  0.1719
27069W        W45273  15.280  10.147  12.505 -0.1477  0.0204 -0.2434
27070W        W45274  13.504  15.879   4.537  0.0593  0.0828  0.0943
27071W        W45275   3.657  12.734   5.094  0.0624  0.0047  0.2840
27072W        W45276   1.353   8.082  13.445 -0.0282 -0.1626 -0.1534
27073W        W45277  12.045   1.527   1.375 -0.2389 -0.2781  0.3384
27074W        W45278  15.568  14.525  11.664 -0.1728 -0.1150 -0.1960
27075W        W45279  16.968   7.227  12.741  0.0773  0.2953  0.1001
27076W        W45280   3.594  16.342   3.975  0.0543  0.0281  0.1701
27077W        W45281   8.196   1.438   3.250 -0.2514 -0.1972 -0.1340
27078W        W45282   4.786   7.617  12.649 -0.2346 -0.0699 -0.2725
27079W        W45283  16.622   2.906   3.578 -0.2348 -0.0723  0.2386
27080W        W45284  16.448   4.843   5.163  0.2701 -0.0777  0.3031
27081W        W45285  13.879   0.073  17.014 -0.1890 -0.1435  0.0211
27082W        W45286   4.612  11.083  16.124  0.2224 -0.2328 -0.0036
27083W        W45287  16.887  17.062   0.544  0.1956 -0.0300  0.0840
27084W        W45288   3.315   8.501   2.180  0.1608 -0.4163 -0.2053
27085W        W45289   0.946  16.745  15.022 -0.1703  0.0665  0.3300
27086W        W45290  16.266  12.184   1.775 -0.3594 -0.1250  0.0966
27087W        W45291   6.940  14.286  16.172 -0.2684  0.1738  0.2250
27088W        W45292   3.095   4.677   2.145  0.1994  0.2757  0.0026
27089W        W45293   8.752   0.576   4.764 -0.2609 -0.0278  0.0626
27090W        W45294  14.601  16.928   5.436  0.1844  0.3853  0.3259
27091W        W45295  16.083   0.677   3.416  0.0574 -0.1497 -0.0268
27092W        W45296  16.713  12.346  12.207  0.0754 -0.0306 -0.3771
27093W        W45297  12.018   1.076   3.216  0.2035 -0.0293 -0.0012
27094W        W45298   4.996   0.885  16.432  0.0145 -0.0269 -0.0022
27095W        W45299  13.280   5.412   4.411  0.3871  0.2463 -0.2654
27096W        W45300   1.356  12.373  13.488 -0.0901  0.0825  0.3906
27097W        W45301  14.748  13.063  17.176 -0.0753  0.0128 -0.0123
27098W        W45302   8.975   1.753  13.518  0.0474  0.0890 -0.0889
27099W        W45303   2.446  16.770   2.791  0.2426 -0.0670 -0.0784
27100W        W45304  11.294   5.992   2.825  0.2251  0.0029 -0.2840
27101W        W45305   7.949   5.375  15.722  0.0576 -0.0175  0.0321
27102W        W45306   3.979   6.450   4.111 -0.0080  0.1557 -0.1342
27103W        W45307  13.320  12.852  13.863  0.1890  0.1838  0.1543
27104W        W45308   6.490  12.407  17.028 -0.1597  0.0050  0.1108
27105W        W45309   2.697  13.075   0.666  0.0387 -0.2177 -0.1721
27106W        W45310  15.300   4.849   4.922 -0.1280  0.2192 -0.0909
27107W        W45311   3.794   8.762   1.595  0.2598  0.1787 -0.0921
27108W        W45312   8.042  16.915   0.202  0.0756  0.1411 -0.1522
27109W        W45313  13.191   4.386   1.476  0.3173  0.1011  0.1851
27110W        W45314   8.619   0.209   1.029  0.1714  0.1025  0.1097
27111W        W45315  12.844   8.973   3.940 -0.0779  0.2524  0.0032
27112W        W45316   6.253   6.904   1.842  0.1038  0.1793  0.0202
27113W        W45317   6.263   6.258   1.596  0.0503  0.1329  0.1520
27114W        W45318  12.967  12.774  12.824 -0.1387 -0.0534 -0.1368
27115W        W45319   8.971   9.908   0.009  0.0069 -0.0936  0.0913
27116W        W45320   8.470   4.836  15.208  0.0403 -0.3181 -0.0451
27117W        W45321   1.308   3.828  14.600  0.0315  0.2279  0.3508
27118W        W45322  14.725  15.560   5.369  0.1759 -0.1705 -0.0683
27119W        W45323  16.392   9.907   6.645 -0.2408  0.1226 -0.0273
27120W        W45324  11.005  16.838   0.303 -0.5601  0.2413  0.4315
27121W        W45325  13.000  13.791  14.147 -0.2244  0.1812  0.0313
27122W        W45326   2.813  11.606   0.808 -0.0813  0.2140  0.0339
27123W        W45327   1.342  14.945  15.463  0.1776 -0.0145 -0.0794
27124W        W45328  11.765  10.732  14.793 -0.1932  0.3069  0.0879
27125W        W45329   9.604   8.059  15.232 -0.1544  0.0568 -0.1691
27126W        W45330  16.573   7.387  17.128  0.1344  0.0425  0.1992
27127W        W45331  14.979   2.185  13.119  0.0372 -0.4099 -0.2977
27128W        W45332  11.834  10.822   4.156  0.1857  0.0285  0.0468
27129W        W45333  14.958   4.554   3.106 -0.0029 -0.0888 -0.2544
27130W        W45334  14.308  16.642  16.167 -0.0184  0.0279  0.0769
27131W        W45335  11.999   3.493   5.905  0.1652 -0.1822  0.1687
27132W        W45336   6.064  10.536   1.925 -0.0542 -0.4157  0.0245
27133W        W45337  16.732   8.286   1.876  0.4557  0.0272 -0.0278
27134W        W45338   4.837   0.798   0.439 -0.1785 -0.1069  0.3375
27135W        W45339  10.460   7.471  12.901 -0.2706 -0.0792  0.1798
27136W        W45340  11.638   2.506  15.576 -0.3411 -0.0609  0.2386
27137W        W45341   1.126   0.561   0.633  0.0195 -0.0175  0.1624
27138W        W45342   5.697   8.529  17.154 -0.2335 -0.0681  0.3572
27139W        W45343  15.218  16.246  15.162 -0.0239 -0.1516 -0.3651
27140W        W45344   5.025   7.506  15.693 -0.3288  0.1396  0.0299
27141W        W45345  15.608   8.821   4.088  0.6278 -0.0851  0.4352
27142W        W45346   7.277   7.802  13.879  0.1468  0.0323 -0.0870
27143W        W45347  15.047   4.650   4.529  0.0378  0.3260 -0.1096
27144W        W45348  13.925   7.377   0.697  0.0067  0.0221 -0.0751
27145W        W45349  10.954  16.841   2.229 -0.1439  0.0799  0.1973
27146W        W45350  14.186  16.581   1.290  0.0716 -0.2406 -0.0352
27147W        W45351   7.285  12.289   4.776 -0.1779 -0.3161 -0.3591
27148W        W45352  17.399  12.397   2.971  0.1712 -0.3247 -0.1549
27149W        W45353  16.548  12.695   4.986  0.1364  0.0239  0.2560
27150W        W45354   3.644  17.255  14.709  0.0331 -0.0652  0.0744
27151W        W45355   3.766  14.327  15.638  0.1538  0.0551  0.0916
27152W        W45356   5.977  12.101  11.997 -0.0094  0.2221 -0.2136
27153W        W45357  13.163   7.443   6.346 -0.2154  0.0545 -0.0698
27154W        W45358  17.267   0.891   4.743 -0.4514  0.1997 -0.2770
27155W        W45359   6.178   9.274   2.317 -0.0270  0.1417  0.2504
27156W        W45360   4.787  10.219  16.914  0.0540  0.3662  0.1814
27157W        W45361   8.392   6.518  16.241 -0.1505 -0.4025 -0.0398
27158W        W45362   0.309   0.743  13.954  0.3513 -0.0369  0.4609
27159W        W45363   1.842  11.758  16.959 -0.1013  0.1475 -0.1716
27160W        W45364  11.352   2.737  14.189  0.1318 -0.1111 -0.0085
27161W        W45365   0.597  14.360   1.916 -0.1358 -0.0894  0.1705
27162W        W45366  15.159  14.346   1.446 -0.1284  0.0912  0.1354
27163W        W45367  15.873   1.989  12.723 -0.0162  0.0936  0.0750
27164W        W45368   2.010   8.670  13.121  0.0078  0.1745  0.1563
27165W        W45369   2.163   2.596   2.923  0.2241  0.0383 -0.3326
27166W        W45370  12.079   7.918   0.698 -0.2018 -0.3922  0.1637
27167W        W45371   9.716  11.470  11.822 -0.3765 -0.1627  0.1186
27168W        W45372   6.969   5.987  16.918  0.0909 -0.0118  0.2250
27169W        W45373  13.391   5.464   2.129 -0.0272  0.0427  0.3279
27170W        W45374   7.162  12.097   0.204 -0.1965 -0.3602 -0.0423
27171W        W45375   1.882   1.435  14.774 -0.0363  0.2142  0.1052
27172W        W45376   5.227  13.797  16.423 -0.0439  0.0934 -0.1696
27173W        W45377   3.845  10.463  14.302  0.0909  0.0912  0.3149
27174W        W45378   5.872   3.614  16.448  0.0220  0.2039  0.3800
27175W        W45379  11.093   9.687   2.304  0.0056  0.1157 -0.2347
27176W        W45380  12.483   3.837  13.443  0.1252 -0.0539 -0.1685
27177W        W45381  13.380   5.397  12.982 -0.1118  0.2510 -0.0531
27178W        W45382  14.256  15.035   0.134 -0.0856 -0.0379 -0.1433
27179W        W45383  15.265  14.968  14.929 -0.0297  0.1171  0.0392
27180W        W45384  10.818   4.298   0.647 -0.2714 -0.4376 -0.0729
27181W        W45385  13.050  15.939   4.824 -0.3281 -0.0818 -0.0480
27182W        W45386  13.153   7.802  16.196  0.3100 -0.0654 -0.1092
27183W        W45387  15.462  13.264  16.459 -0.1093 -0.2748 -0.4375
27184W        W45388   0.201  14.098   3.572  0.3765 -0.0303 -0.0943
27185W        W45389  12.681  16.469  17.001  0.1072  0.3269 -0.0907
27186W        W45390   2.402  13.274  12.694 -0.0697 -0.1998 -0.1796
27187W        W45391   0.015   7.357   1.870 -0.1830 -0.4572 -0.2739
27188W        W45392  13.786   6.622   4.794 -0.0521  0.1536  0.0102
27189W        W45393  10.657   1.202   0.389  0.2373  0.1104  0.0633
27190W        W45394  14.843   4.337  16.209  0.2272 -0.0914 -0.0449
27191W        W45395  14.729  13.887   3.187 -0.4780 -0.3519  0.0882
27192W        W45396  11.698   3.070   5.222 -0.0648 -0.0183 -0.0359
27193W        W45397  13.312  15.385   1.737 -0.0080  0.1069 -0.0627
27194W        W45398   0.723  16.856   3.451  0.0957  0.0426  0.1097
27195W        W45399   4.240   3.755  16.745  0.1813  0.6716 -0.0947
27196W        W45400   5.525  10.182  12.118 -0.3543  0.1762  0.0808
27197W        W45401   6.216  12.291   3.074 -0.0839  0.0414 -0.0253
27198W        W45402  11.668  16.395  14.159 -0.1122 -0.3164  0.2296
27199W        W45403   0.863   9.159  16.744  0.0548  0.0478 -0.1022
27200W        W45404   7.767  16.420   4.521  0.1108  0.3185 -0.1877
27201W        W45405   3.687  16.698  15.566  0.0377 -0.2010 -0.0434
27202W        W45406  11.442   9.803  13.343  0.3302 -0.1414 -0.0235
27203W        W45407   7.744   2.761   2.676 -0.0494  0.0841  0.2081
27204W        W45408  16.074   6.179   1.608 -0.2549  0.0870 -0.1352
27205W        W45409   0.015   5.432   0.590 -0.1607  0.3664 -0.1221
27206W        W45410   1.743  11.248  16.268  0.0550 -0.1920  0.2839
27207W        W45411   1.358   8.499  14.736 -0.0399 -0.5083 -0.0278
27208W        W45412   9.424  10.384   4.271  0.0165 -0.0792  0.2199
27209W        W45413   4.146   0.453  15.233  0.2663 -0.2192 -0.1298
27210W        W45414   5.549   2.006   1.180 -0.1829  0.0585  0.3049
27211W        W45415  15.509  13.007  12.387 -0.2267 -0.1163  0.0897
27212W        W45416   5.330  17.067  16.588  0.1222  0.0873 -0.0380
27213W        W45417  14.767   6.734   1.322 -0.2083  0.0441  0.0115
27214W        W45418   4.514   6.479   0.209  0.2733  0.0630 -0.3002
27215W        W45419  13.183  11.298  16.210 -0.1493 -0.2299  0.3491
27216W        W45420  16.818   9.231  14.427 -0.0464 -0.1241 -0.0269
27217W        W45421   2.923   6.689  12.199  0.1431 -0.2403 -0.0698
27218W        W45422  13.018   4.487   4.477 -0.1387 -0.2170  0.1454
27219W        W45423   8.714  14.778  13.830  0.0414 -0.2524 -0.1594
27220W        W45424  15.395   4.545  15.292  0.2331 -0.1255 -0.0382
27221W        W45425   4.612  14.683   4.097 -0.3073  0.1926  0.0949
27222W        W45426  10.443  11.491   2.570 -0.3536  0.1183  0.1270
27223W        W45427  14.848   4.319  15.344  0.0667 -0.0138  0.3705
27224W        W45428   5.139   8.631   1.880 -0.1057  0.0950  0.2363
27225W        W45429   7.248  16.433   2.501 -0.1465  0.1407 -0.1308
27226W        W45430  15.964  15.249   5.734  0.2300  0.2147  0.1878
27227W        W45431  17.514   4.519   0.203 -0.1298 -0.1049  0.3896
27228W        W45432  12.525   6.139  13.341 -0.0876 -0.0804 -0.3599
27229W        W45433   5.295  14.161   2.422 -0.1424  0.1917  0.3517
27230W        W45434   5.275   1.126  12.572  0.1427 -0.1311 -0.1946
27231W        W45435  11.044   5.719  13.731 -0.0644  0.3358 -0.0110
27232W        W45436  16.903  11.106   1.086  0.0851  0.0827 -0.3353
27233W        W45437  16.716  16.342  14.376  0.1461  0.3677  0.1000
27234W        W45438   2.940   7.920   3.611  0.1504  0.0756  0.2193
27235W        W45439   9.549  16.996   0.144 -0.1126  0.1450 -0.2127
27236W        W45440   1.610   6.760  12.456  0.2804  0.0219 -0.0626
27237W        W45441  12.451  14.710   3.975  0.1098 -0.0725 -0.1110
27238W        W45442  16.802  13.698   5.879 -0.0338  0.0676  0.3366
27239W        W45443   3.714  15.756   2.688  0.2668  0.1784 -0.2258
27240W        W45444   6.156   7.382   5.136  0.0346 -0.0855 -0.1053
27241W        W45445   3.757   6.372  16.377 -0.0073 -0.3148  0.1831
27242W        W45446  14.364   9.440   0.106  0.0656 -0.0994  0.2890
27243W        W45447   0.485  13.561  16.675  0.0355 -0.0848 -0.3071
27244W        W45448   9.637  13.916   0.215 -0.1485  0.1248 -0.0719
27245W        W45449  16.048  10.311   0.394  0.2578 -0.0133  0.1775
27246W        W45450   0.864  12.672  15.626  0.2359  0.0370 -0.2455
27247W        W45451  16.724  15.501   3.363 -0.2586 -0.2761 -0.1527
27248W        W45452   7.948   9.124   3.385  0.0117  0.1435 -0.0826
27249W        W45453   5.529  11.684  12.693  0.1552  0.0151 -0.2538
27250W        W45454  11.176   0.614   4.515 -0.3004  0.0381  0.1900
27251W        W45455   3.973   5.135  16.721  0.0659 -0.0195  0.1472
27252W        W45456  14.165   9.748  12.643 -0.2137  0.1613 -0.0824
27253W        W45457  14.386  13.174  13.265  0.2885  0.1669 -0.0025
27254W        W45458   8.508   1.462  16.500  0.3005  0.3100  0.0840
27255W        W45459  15.185   4.154   1.172  0.0017  0.0716 -0.1199
27256W        W45460   3.103   5.274   5.351 -0.2582  0.1755 -0.3489
27257W        W45461   4.680   8.047  16.578 -0.1001 -0.0047  0.0641
27258W        W45462  10.231   4.328  11.629 -0.1442 -0.2689  0.2818
27259W        W45463   3.223   8.698  12.006  0.3439  0.2397  0.0718
27260W        W45464  13.746  11.947  11.273  0.1809  0.1831 -0.1135
27261W        W45465   8.666   3.100  13.047 -0.0700 -0.0689  0.1678
27262W        W45466   5.974   7.913  15.198 -0.3239  0.2521 -0.2843
27263W        W45467  15.623   9.789  15.546  0.0464  0.4744 -0.0913
27264W        W45468   4.170   7.271   1.897  0.2019 -0.0831  0.1443
27265W        W45469   0.034   7.088   1.154 -0.0893  0.5296 -0.0047
27266W        W45470  14.448  15.569  14.406 -0.0440 -0.1022  0.2737
27267W        W45471   9.456  12.452  13.888  0.2938  0.1052 -0.3381
27268W        W45472  14.675   6.770  12.656  0.2028 -0.1640 -0.1306
27269W        W45473   7.823   4.435   4.372 -0.1220  0.2596 -0.1458
27270W        W45474  12.087   2.031   1.540  0.0922  0.0566 -0.0243
27271W        W45475  10.057   4.475  17.071  0.3679  0.2093  0.0857
27272W        W45476  17.383   0.287  15.860  0.1118 -0.3328 -0.3355
27273W        W45477   1.758   0.178  12.820 -0.1468  0.0414 -0.1285
27274W        W45478  15.869  11.866  12.517 -0.0398 -0.0895  0.0350
27275W        W45479   1.547   6.388   5.539 -0.0587  0.1617 -0.1790
27276W        W45480   3.289   1.503  13.077  0.2247  0.1109  0.0618
27277W        W45481   5.348  16.627  14.012  0.1416  0.0617 -0.1958
27278W        W45482  17.176  16.591   4.528  0.2312  0.1301  0.1842
27279W        W45483   3.873  14.997  16.478 -0.0987  0.2890 -0.1294
27280W        W45484   1.038   8.858  16.276  0.0498 -0.2168  0.1460
27281W        W45485  10.365   0.898  12.620  0.2800  0.0089  0.1761
27282W        W45486  14.519   5.946  16.278 -0.0848 -0.2469 -0.0065
27283W        W45487   8.245  13.762  15.950 -0.2087  0.3384  0.1496
27284W        W45488  11.356  12.972   2.447 -0.0802 -0.2273 -0.0578
27285W        W45489  15.185   7.696   4.547 -0.0349  0.0144 -0.2988
27286W        W45490   2.736   6.579   2.932  0.0472 -0.1919  0.1572
27287W        W45491   6.445  12.105  14.856 -0.0650  0.0390 -0.0548
27288W        W45492   4.581  15.986  14.140  0.1366  0.1529 -0.0917
27289W        W45493  13.875   3.668   3.306 -0.0860 -0.1128  0.0563
27290W        W45494   4.034   0.948  15.323  0.1960 -0.0201  0.1335
27291W        W45495  16.127   2.473   4.739  0.0146 -0.0684  0.1618
27292W        W45496  14.570  11.584   1.327  0.1563  0.0735  0.3085
27293W        W45497  14.536  11.218  15.359 -0.0430  0.4250 -0.1997
27294W        W45498  10.292   7.563  16.969  0.0810 -0.0590  0.0463
27295W        W45499   9.366   8.410   0.219 -0.1179  0.0772 -0.1047
27296W        W45500  10.423   3.678  13.888  0.2858 -0.0909  0.2038
27297W        W45501   0.674   5.966   3.728 -0.2908  0.4065  0.0247
27298W        W45502  14.872   7.324  16.444  0.1320  0.0130  0.0384
27299W        W45503  13.753  10.217  12.259  0.1581  0.1224  0.1911
27300W        W45504   8.481   8.572   2.056  0.3274 -0.0542  0.2412
27301W        W45505  13.692  16.574   6.366 -0.0946  0.0650 -0.0688
27302W        W45506  10.571  10.858   0.651  0.1131 -0.1731  0.1932
27303W        W45507   8.248   7.116  16.436  0.0656 -0.1351 -0.1124
27304W        W45508  12.421  16.212  16.147  0.2344 -0.0498  0.3107
27305W        W45509  11.723  16.808  15.689  0.0128 -0.1731  0.1292
27306W        W45510   7.911  10.626  13.154  0.0893 -0.1020  0.1134
27307W        W45511  15.553  12.379  14.861  0.1549 -0.0204  0.1721
27308W        W45512   5.976   7.251  15.921 -0.0545 -0.0567 -0.0778
27309W        W45513  13.229  15.235  16.073 -0.2631 -0.4018 -0.0228
27310W        W45514  12.904  15.870   0.230  0.4020  0.2311 -0.0994
27311W        W45515   8.792  11.332   3.043 -0.1425 -0.0179  0.1633
27312W        W45516   8.181   8.015  15.787 -0.3073 -0.1319 -0.1237
27313W        W45517  14.047  12.298  13.582  0.1409  0.2730  0.3626
27314W        W45518  15.977  16.303   2.902  0.2896  0.1378 -0.1405
27315W        W45519   5.336   1.454   4.223  0.3635  0.0444  0.0555
27316W        W45520   8.785   3.736  16.171 -0.1029 -0.0436  0.0718
27317W        W45521   5.771   7.287   1.973 -0.1918 -0.2264  0.0437
27318W        W45522   4.030   6.830  16.309 -0.0300  0.2755 -0.0155
27319W        W45523  17.256  10.776   2.329  0.2270 -0.1118  0.3205
27320W        W45524   2.315  13.707   4.882  0.3208  0.2021  0.1302
27321W        W45525   7.877  11.186  12.214 -0.1520 -0.5121 -0.1522
27322W        W45526  15.844  17.227  14.213  0.0480 -0.0280 -0.1078
27323W        W45527  10.399  12.661  15.531  0.0658 -0.2315 -0.1225
27324W        W45528   9.112   2.781   3.964  0.1321 -0.2590  0.1686
27325W        W45529  15.099   4.101   2.727  0.0908  0.1248 -0.3413
27326W        W45530   7.669  10.706   3.615  0.2435  0.0745 -0.3449
27327W        W45531   0.910  12.164  13.432 -0.2489  0.1718  0.0586
27328W        W45532  10.767   2.115  12.713  0.1803 -0.1986  0.0782
27329W        W45533  16.737  16.097   1.253 -0.1210  0.1580  0.1097
27330W        W45534  14.650  10.952  16.899  0.1418  0.0579  0.3017
27331W        W45535  16.564  16.382   4.383 -0.1505  0.0228 -0.1654
27332W        W45536   5.015   2.378  13.754  0.1440 -0.1039 -0.1230
27333W        W45537  14.777   0.354   4.822  0.0965 -0.1591  0.2635
27334W        W45538   5.891  15.701   0.652  0.0618  0.3165  0.0153
27335W        W45539   3.376   9.907   2.075  0.1522  0.1836  0.0012
27336W        W45540  12.393   7.589   4.855  0.1656 -0.2568  0.0051
27337W        W45541   2.296   4.675   3.657 -0.3289  0.0161 -0.1564
27338W        W45542  15.746  11.887  17.070 -0.2624  0.3148  0.0729
27339W        W45543  12.838   9.618  15.854 -0.2383  0.1665  0.1367
27340W        W45544   7.917   7.856   3.340 -0.0842 -0.1471  0.2632
27341W        W45545   8.521  10.381  15.602  0.1455  0.1299 -0.0650
27342W        W45546  16.864   2.985  12.485 -0.1444 -0.3448  0.3423
27343W        W45547   2.141   1.013  17.227 -0.2243  0.2128  0.1089
27344W        W45548   3.532   4.394  13.759 -0.0851  0.1726  0.0771
27345W        W45549   8.724   4.653   2.308 -0.2134  0.4478  0.0152
27346W        W45550   0.636   9.904  14.193  0.3546  0.0908  0.0932
27347W        W45551   3.391  16.539  13.521  0.0977 -0.0298  0.1637
27348W        W45552   6.508   5.616  12.446  0.0087 -0.0433  0.0274
27349W        W45553   3.105  16.894   4.398 -0.0275  0.1868  0.1450
27350W        W45554   6.374   2.445  14.060 -0.1617 -0.2455  0.1108
27351W        W45555   3.500  15.387  14.654 -0.1409 -0.0521  0.3372
27352W        W45556   3.383  16.507   0.843  0.0287 -0.2492  0.2284
27353W        W45557  13.940   6.027  16.385  0.2091 -0.1044 -0.0018
27354W        W45558   8.346  15.599  13.761  0.1560 -0.0479  0.1024
27355W        W45559   7.257  11.568   3.296 -0.0997 -0.0011 -0.2101
27356W        W45560  15.250   5.664  17.041  0.3370  0.2940 -0.1197
27357W        W45561  10.828   7.333   2.722 -0.0573  0.0529  0.1334
27358W        W45562   6.718   1.339  12.752 -0.3524 -0.1690  0.0607
27359W        W45563   0.877   5.669   4.550  0.0465  0.3141 -0.0901
27360W        W45564   4.878   7.931  11.799  0.0556  0.0330 -0.1266
27361W        W45565   8.160   2.289   3.746 -0.1012 -0.0222  0.0370
27362W        W45566   4.613   2.386   2.786  0.1891 -0.1492  0.1280
27363W        W45567  14.904   6.143   3.560 -0.0492  0.2140  0.2650
27364W        W45568   2.132   0.990  14.597 -0.1205 -0.0395 -0.3093
27365W        W45569   5.678  11.344  16.720 -0.1312  0.0578  0.0410
27366W        W45570   0.113   9.411   1.204 -0.0118 -0.0705 -0.0509
27367W        W45571  11.496  15.196  11.628  0.0940 -0.2880 -0.2524
27368W        W45572  11.667   7.328  14.231  0.1990  0.2475  0.0284
27369W        W45573   8.310   5.217   5.012  0.3246 -0.0389  0.0104
27370W        W45574   2.627   6.757   0.528  0.1184 -0.1670 -0.1150
27371W        W45575  15.648  17.086   5.509  0.0572 -0.2189  0.0686
27372W        W45576  16.489   5.409   2.384  0.0315 -0.1733 -0.0124
27373W        W45577  11.293   5.991   2.152 -0.1106  0.3502 -0.0731
27374W        W45578  15.450  12.091  12.311  0.1402  0.1781  0.1085
27375W        W45579  13.720   0.113   2.102  0.0877  0.3976 -0.0072
27376W        W45580   4.380  12.792   0.608  0.0701 -0.0512 -0.0520
27377W        W45581   3.152   8.057  13.622  0.2443  0.0990  0.0508
27378W        W45582  14.291  14.155   2.353  0.0165  0.2629  0.0161
27379W        W45583  12.241   4.776  16.819 -0.0999  0.4521  0.4222
27380W        W45584   1.364   3.829   0.640 -0.1741 -0.0918 -0.1344
27381W        W45585   0.745   0.248   1.420 -0.2419  0.1721 -0.0082
27382W        W45586   0.067  15.396  12.260 -0.1193  0.1050 -0.0513
27383W        W45587  11.614   0.906   3.528 -0.0096  0.0414 -0.3508
27384W        W45588  14.708  15.381   0.068 -0.0122 -0.1618 -0.4008
27385W        W45589  11.258   2.337   2.977  0.0415 -0.2093 -0.3928
27386W        W45590   2.349  12.798   0.272 -0.2573 -0.1389  0.0003
27387W        W45591  11.759  13.405   4.903 -0.0775  0.1334 -0.0290
27388W        W45592   3.200   3.593   0.498  0.0558  0.0525 -0.0054
27389W        W45593   2.389   5.778   5.486  0.1814 -0.2112 -0.4946
27390W        W45594   2.404   5.354   1.872  0.1259 -0.1385 -0.1481
27391W        W45595   3.716  14.729   0.956 -0.2531  0.1140 -0.2964
27392W        W45596   8.229   6.220   2.467 -0.0833  0.1586  0.2395
27393W        W45597  10.234   9.902  14.664 -0.0349  0.0491  0.0466
27394W        W45598   1.898  15.014  14.636  0.2989  0.1786 -0.2068
27395W        W45599   4.850   2.801   1.488 -0.0491 -0.0775  0.1465
27396W        W45600   1.214   8.229  17.226  0.1377 -0.2215  0.2493
27397W        W45601  14.876   4.160  14.079 -0.0370  0.5389 -0.1417
27398W        W45602   8.597  10.861   3.204  0.0967 -0.0499 -0.1004
27399W        W45603   5.006  15.640  12.525  0.0401 -0.1863 -0.1575
27400W        W45604  11.713   2.883  17.020 -0.1744 -0.1262 -0.1267
27401W        W45605   1.055   8.468  13.272  0.0284  0.4128 -0.2523
27402W        W45606  11.819  10.582  16.710 -0.0181  0.0220 -0.2577
27403W        W45607  11.297   8.567  13.433 -0.1301  0.0192  0.1538
27404W        W45608  10.776  15.882   0.631 -0.0905 -0.1461  0.0740
27405W        W45609  14.813  10.261   3.282 -0.4849 -0.1431  0.1082
27406W        W45610   6.578   0.431   4.514 -0.1459 -0.0850 -0.0476
27407W        W45611   1.210   5.136  13.269  0.1098  0.1120  0.1721
27408W        W45612   4.173  10.283   5.468  0.1033  0.0805 -0.2721
27409W        W45613   9.190   6.433  12.375 -0.2134 -0.0954  0.0807
27410W        W45614  14.522   4.259  13.407  0.0361 -0.1540  0.2030
27411W        W45615   9.726  14.049  12.344 -0.2108  0.1171  0.1471
27412W        W45616  13.513   9.142  11.055  0.0279 -0.1127 -0.0008
27413W        W45617   2.440   6.725  15.387  0.0145  0.0437  0.0057
27414W        W45618  12.350   5.441   4.874  0.1553  0.1498 -0.3052
27415W        W45619  11.985  11.717   5.048  0.0954  0.2065 -0.0719
27416W        W45620   4.922  12.850   1.694 -0.1492  0.1310  0.2939
27417W        W45621   0.587  16.828  12.038  0.0493  0.0640  0.3273
27418W        W45622   3.136  11.505   4.391 -0.0407 -0.1008  0.0504
27419W        W45623   2.130   3.546   1.921 -0.3133 -0.3649 -0.1517
27420W        W45624  15.863   7.993  12.242 -0.0312  0.1074  0.0548
27421W        W45625  11.449   4.557  13.950  0.0624 -0.0246 -0.3042
27422W        W45626   5.668  12.228  17.186 -0.2156  0.2411 -0.1981
27423W        W45627   1.599  16.640   2.263  0.2025  0.0609  0.0785
27424W        W45628   9.130  14.342  13.046 -0.0002  0.0984  0.1333
27425W        W45629  16.996  10.443   4.429  0.0137 -0.0620 -0.0320
27426W        W45630  13.741   6.121   4.993 -0.1509 -0.0237  0.1875
27427W        W45631   2.472   4.900  12.954 -0.0724 -0.2095 -0.1559
27428W        W45632   0.172  16.041  14.267 -0.2426  0.0778 -0.1280
27429W        W45633  11.638  11.879  14.595 -0.1553  0.1294 -0.3179
27430W        W45634   5.129   6.125   4.887  0.1765 -0.0134  0.1909
27431W        W45635  14.009   8.849   2.161  0.0258 -0.0562 -0.0159
27432W        W45636   1.944   9.578   4.317  0.0801 -0.2257  0.0956
27433W        W45637   9.591   7.608  13.971 -0.0116 -0.1241  0.1430
27434W        W45638   6.256  10.603  12.349  0.2482 -0.1260 -0.0759
27435W        W45639  16.743  12.356   1.607  0.0160 -0.4064 -0.2518
27436W        W45640  10.199   0.291  14.374  0.0574 -0.4057 -0.2567
27437W        W45641   2.682   1.974   2.816  0.2674 -0.1666  0.4603
27438W        W45642   2.855   1.641  14.679  0.0508  0.1892 -0.0990
27439W        W45643   8.978   9.093   4.529 -0.1842  0.1751 -0.0649
27440W        W45644  16.431  14.707  17.056  0.0517 -0.1200  0.1432
27441W        W45645  11.033  10.722   0.635  0.0721 -0.1731 -0.1211
27442W        W45646  13.352   9.154   1.822 -0.5117  0.2046 -0.1793
27443W        W45647   0.712   4.829   2.216  0.1361 -0.0705 -0.1799
27444W        W45648   4.398   5.240  15.780  0.0525 -0.1351 -0.0420
27445W        W45649   1.502  16.233   2.773 -0.2497  0.1370 -0.2797
27446W        W45650   5.927   1.755  12.229  0.0293  0.1660 -0.0737
27447W        W45651   9.939   3.942   1.064 -0.1208  0.2327  0.1873
27448W        W45652   7.503   5.463  12.839 -0.2465 -0.1444  0.0794
27449W        W45653  12.459   4.828  15.024 -0.0768  0.0679  0.0032
27450W        W45654   2.823   5.419   1.610 -0.0634 -0.1809 -0.0339
27451W        W45655   1.066   8.109   1.342 -0.2605  0.1108 -0.2325
27452W        W45656  13.131   9.597  11.757 -0.3228  0.2130 -0.1546
27453W        W45657  12.918  14.199  11.884  0.1797  0.2472  0.0145
27454W        W45658  14.802  17.349   0.680  0.0203  0.0103 -0.0687
27455W        W45659   6.747   5.466   5.177  0.1287 -0.0746  0.0564
27456W        W45660  16.479   2.799  15.293  0.0575 -0.1113  0.2391
27457W        W45661  16.616   9.634  15.292  0.1489  0.1093 -0.0785
27458W        W45662  16.065  13.158  13.238 -0.0974  0.1254  0.1133
27459W        W45663   1.678   4.668  14.213 -0.1172  0.1558 -0.2138
27460W        W45664   0.866   8.408   1.728 -0.0487 -0.3042 -0.0796
27461W        W45665  17.317  13.404  15.495 -0.1029  0.1280  0.2023
27462W        W45666   5.078   4.360  13.841  0.1570  0.3391 -0.1363
27463W        W45667  16.379  12.550   0.348 -0.0266  0.1271 -0.2666
27464W        W45668   9.509  11.653  16.918 -0.3106  0.2195  0.2258
27465W        W45669   3.102  17.341  14.772  0.2782 -0.0628 -0.1098
27466W        W45670   3.667   1.335  16.282 -0.0524  0.1771  0.0715
27467W        W45671   1.842   3.032  15.997 -0.1673 -0.2743  0.1644
27468W        W45672  16.596  17.077  16.621 -0.3149 -0.0498  0.4307
27469W        W45673   4.311   0.869   1.309 -0.0761 -0.3123 -0.0100
27470W        W45674  13.374  11.048  11.921 -0.1576  0.1714  0.0571
27471W        W45675  14.657   1.064  16.462  0.0078 -0.1131  0.0273
27472W        W45676  17.348   4.776  17.056  0.0857  0.0248 -0.2926
27473W        W45677   1.624   6.354   2.659  0.0311 -0.3446 -0.0552
27474W        W45678   4.288   2.844   0.791 -0.0420  0.0859 -0.0614
27475W        W45679   9.594   2.014   4.652 -0.0391 -0.0258  0.0812
27476W        W45680   1.876  15.641   1.375 -0.4249  0.4708  0.0012
27477W        W45681  13.439  10.427   1.530 -0.1206  0.1127  0.1793
27478W        W45682  11.098   1.443   2.971 -0.0039  0.1040 -0.1131
27479W        W45683   4.226   5.809  17.000 -0.0227 -0.2392  0.1206
27480W        W45684  14.007   7.310  15.023 -0.4631  0.1251  0.0766
27481W        W45685   4.193  13.894   4.573  0.0505 -0.2579  0.1084
27482W        W45686  11.431   6.511  12.404 -0.1278 -0.0059 -0.0088
27483W        W45687   6.950   4.031   0.916 -0.1521  0.1021 -0.1117
27484W        W45688   4.182   9.731   4.671 -0.0394  0.7122 -0.0740
27485W        W45689   3.083  14.130   3.898  0.0627 -0.1561 -0.1202
27486W        W45690  16.542   9.494  12.007  0.5063  0.0173 -0.1884
27487W        W45691   5.349   6.490  16.017 -0.1027 -0.1191  0.0101
27488W        W45692   8.405   0.289   3.720  0.1388 -0.2613 -0.0105
27489W        W45693  14.589   6.623   0.256 -0.2305 -0.0430  0.0748
27490W        W45694   2.307   8.316   1.375  0.1259  0.1330 -0.1108
27491W        W45695   4.631   7.018   2.047 -0.0891 -0.0749 -0.0922
27492W        W45696   0.797   6.339   1.257  0.0145 -0.0805  0.3033
27493W        W45697  16.771  15.112   1.550 -0.2297  0.0169  0.0061
27494W        W45698   6.212   9.593  12.288  0.2552  0.0593 -0.0471
27495W        W45699   8.999  15.900   3.114  0.0988  0.3260 -0.1536
27496W        W45700  17.371   5.895   3.028 -0.0426  0.2175 -0.1669
27497W        W45701  14.013   1.603  13.064 -0.0779 -0.0554  0.0281
27498W        W45702   4.224   7.843  16.723 -0.2765 -0.1500 -0.2570
27499W        W45703  12.769   4.358  12.264  0.1717  0.0084  0.3934
27500W        W45704   1.578   0.104   3.574 -0.1554  0.1596  0.1146
27501W        W45705   5.842   5.408   1.781 -0.0849 -0.1671 -0.1747
27502W        W45706   8.149  13.127   3.953  0.0219  0.1941  0.0875
27503W        W45707  10.322   5.516  13.072 -0.1707 -0.1276  0.1403
27504W        W45708   6.107  10.136   4.293  0.0350  0.2007  0.1157
27505W        W45709  16.063   8.043  13.241 -0.1776  0.1956 -0.1660
27506W        W45710  16.746   8.084   2.619 -0.2140 -0.0374  0.1722
27507W        W45711   5.191  17.536  13.533  0.0314 -0.0343 -0.1586
27508W        W45712  15.774  11.011   3.720  0.0236  0.2404 -0.0262
27509W        W45713   1.139  13.998   6.064  0.1247  0.2198 -0.3527
27510W        W45714  16.817   1.480   3.293  0.2539 -0.0113 -0.0773
27511W        W45715   5.995  13.377  14.200 -0.2810 -0.2168  0.2251
27512W        W45716   4.794  14.036  15.423  0.0049 -0.2162  0.3551
27513W        W45717   1.557   3.245   3.951 -0.0223  0.2514  0.1828
27514W        W45718  15.896  11.387   4.125  0.0364  0.0187  0.2798
27515W        W45719  13.994  17.131   2.228  0.0521 -0.1201  0.0293
27516W        W45720   3.547   5.891   1.636 -0.0399  0.0234 -0.2262
27517W        W45721   3.573   4.108   1.698  0.1738  0.3674  0.0078
27518W        W45722   6.513  13.135  15.940  0.1354 -0.0613  0.2779
27519W        W45723  10.993   8.320   2.009  0.0141  0.0500  0.1570
27520W        W45724   5.257   2.934  14.847  0.0378 -0.1355  0.2262
27521W        W45725   9.116   0.845   1.708  0.1002 -0.1392 -0.1505
27522W        W45726   7.497  17.332  16.055 -0.0443 -0.1343  0.0347
27523W        W45727  14.872  13.507   3.484  0.1181 -0.0191  0.1636
27524W        W45728   7.250   5.092  16.328  0.1147 -0.2026 -0.0007
27525W        W45729   9.198  10.304  11.903  0.0842  0.0899  0.1676
27526W        W45730  12.252  11.193  14.470  0.1130  0.0231  0.1547
27527W        W45731   4.723  16.687  14.142  0.0515  0.0561 -0.0325
27528W        W45732  16.946  13.712  15.338  0.0162 -0.0511 -0.1379
27529W        W45733   9.650   1.259  17.202  0.1201  0.2199  0.0775
27530W        W45734   1.159  14.490  15.745 -0.0287  0.0395  0.1255
27531W        W45735   2.517   5.709  13.444 -0.1613  0.0436 -0.0372
27532W        W45736  16.054   4.373   1.522  0.0566 -0.1760 -0.0262
27533W        W45737  10.872   8.678  14.726  0.0170 -0.1017 -0.0732
27534W        W45738   5.508  10.592  14.647 -0.0251 -0.0093 -0.1016
27535W        W45739   1.138   6.531   2.902  0.3195 -0.0361  0.1834
27536W        W45740  10.550   4.867   3.101 -0.0271 -0.1017 -0.1923
27537W        W45741   4.766  11.228   0.221 -0.3099 -0.1800  0.0973
27538W        W45742  14.489   2.649   3.511 -0.3028 -0.1146 -0.0085
27539W        W45743   7.036  16.555   4.297  0.0290  0.2139  0.0132
27540W        W45744  10.811   0.028   3.017 -0.4903 -0.3274 -0.0619
27541W        W45745   8.576   1.262  13.093  0.1954  0.0232  0.1449
27542W        W45746  12.247  10.030  16.348 -0.5544 -0.0749  0.0545
27543W        W45747   6.425  14.826   0.210  0.0092 -0.0845 -0.3007
27544W        W45748  14.225  10.327   3.233 -0.0193 -0.0543  0.1627
27545W        W45749   1.403   5.503   1.628  0.1498 -0.0375  0.1735
27546W        W45750  13.151   2.585  13.058 -0.1185 -0.1567  0.0331
27547W        W45751   2.327  15.643  16.324 -0.0292 -0.0128 -0.3315
27548W        W45752   0.101   4.364  13.542  0.0858 -0.1538  0.1883
27549W        W45753   7.429   6.673  16.863  0.0296  0.1958 -0.0475
27550W        W45754   3.034   0.399   2.152 -0.0275  0.1057  0.2153
27551W        W45755   9.706   6.005  17.273  0.2586 -0.0669 -0.0916
27552W        W45756   7.479   9.310   4.556 -0.2383  0.1741  0.0016
27553W        W45757   5.417  16.651   5.146 -0.3091 -0.1075 -0.0559
27554W        W45758   5.982  14.999  13.276  0.0995  0.0411  0.0306
27555W        W45759   4.270   0.744   2.288  0.1048 -0.2302  0.1492
27556W        W45760  12.982   7.650  16.706 -0.2839  0.0414 -0.1217
27557W        W45761  15.514  16.348   1.961 -0.0316 -0.1478 -0.1557
27558W        W45762   2.311   8.057   3.757  0.0473 -0.3048 -0.1651
27559W        W45763  15.152  12.890  11.946  0.1564 -0.0300 -0.2889
27560W        W45764   3.096   6.659   3.251 -0.1253  0.2143  0.2174
27561W        W45765   9.008   5.394  16.517  0.1951  0.2029 -0.1560
27562W        W45766   0.717   4.545  15.984  0.0636  0.2280  0.0431
27563W        W45767   9.228   4.230  15.754 -0.0761  0.4512 -0.0734
27564W        W45768  11.948   8.863   1.734 -0.1834 -0.0526  0.2275
27565W        W45769   7.749  15.893   4.399 -0.1488  0.1136 -0.0913
27566W        W45770  12.761  11.367   3.068 -0.0964  0.0529 -0.3530
27567W        W45771   4.790   3.552  13.779  0.0337 -0.1337 -0.3059
27568W        W45772   8.505  13.414  14.418 -0.2793 -0.2092 -0.0269
27569W        W45773   7.945   1.066   2.012 -0.0961 -0.1201 -0.1252
27570W        W45774  17.082  11.668  16.090 -0.2945  0.1328  0.0529
27571W        W45775   3.529  11.420   1.737  0.1418  0.0370  0.0117
27572W        W45776  13.297   7.087   0.110  0.1284  0.0019  0.0894
27573W        W45777   3.363  17.476  16.139  0.1087  0.0004  0.1946
27574W        W45778   9.105   3.847  13.141  0.1579  0.0697 -0.0559
27575W        W45779   4.275   8.139  13.234 -0.1162 -0.0314 -0.3023
27576W        W45780   8.076   3.063   2.469 -0.2652 -0.1654  0.1182
27577W        W45781  11.625  16.879  17.208 -0.1188  0.1169 -0.0570
27578W        W45782  16.488   2.453   1.418  0.0425  0.0521 -0.0684
27579W        W45783  13.119   5.373  15.432  0.4874  0.0720 -0.0750
27580W        W45784  10.248  16.797   3.382  0.1463 -0.1538 -0.1653
27581W        W45785   6.322  12.744   1.997 -0.0181  0.0093 -0.2303
27582W        W45786   0.587   4.695  15.461 -0.0658  0.2307 -0.0649
27583W        W45787  11.194   5.526  13.126  0.1224 -0.1242  0.1220
27584W        W45788  10.539  10.364   4.039  0.2644 -0.0886 -0.2679
27585W        W45789  16.605  14.384   1.689  0.1189  0.0582 -0.2524
27586W        W45790  13.875  16.960  12.884  0.0608 -0.0069 -0.0041
27587W        W45791  11.442   2.192   3.703  0.5536  0.0064 -0.0959
27588W        W45792  12.164  14.585   1.361 -0.0014 -0.4145 -0.0792
27589W        W45793  12.253   3.895   5.254  0.0185 -0.1226 -0.1175
27590W        W45794   2.134   8.451  16.991  0.2560 -0.4429 -0.2940
27591W        W45795   7.171   4.525   4.595  0.1025 -0.2364 -0.1711
27592W        W45796  13.193  12.288   3.154  0.0495 -0.0284  0.0106
27593W        W45797  10.892  11.295   2.531 -0.0865  0.0463 -0.0643
27594W        W45798  13.035   6.690   0.959  0.2202 -0.2828  0.2041
27595W        W45799   3.733  12.646  14.784 -0.0316 -0.2925  0.0134
27596W        W45800   4.950  14.298   5.291  0.0537 -0.1251  0.0753
27597W        W45801  13.980   3.714   5.080 -0.2507  0.1280 -0.2948
27598W        W45802   6.702   2.546   4.886 -0.0608 -0.1872 -0.1025
27599W        W45803  17.265  13.781   2.779 -0.2978  0.1610  0.2342
27600W        W45804  17.162  14.905   6.562  0.2170  0.0934  0.0363
27601W        W45805  11.062  13.839  13.157  0.2954 -0.1805 -0.1132
27602W        W45806  15.146   2.926   5.347 -0.1076  0.1127 -0.0929
27603W        W45807  16.618   0.225  12.441 -0.7379 -0.0898 -0.0097
27604W        W45808   2.497  11.774  13.668  0.1697 -0.2560 -0.0879
27605W        W45809   6.988  11.353  12.047  0.0850 -0.2475 -0.1301
27606W        W45810   5.597   4.517  16.365  0.1397 -0.2984 -0.0610
27607W        W45811   1.374   0.656  15.818  0.0367  0.0770  0.1229
27608W        W45812   9.068   8.242  16.718  0.2532  0.1074  0.0156
27609W        W45813  10.529  16.140   4.322  0.1461  0.1005 -0.1929
27610W        W45814  11.357   5.254   4.185 -0.0614  0.2607 -0.1302
27611W        W45815   2.769   5.555  15.835 -0.3810  0.0050  0.1347
27612W        W45816   0.846   1.620   4.356 -0.0214  0.2432 -0.2191
27613W        W45817   3.902  10.513  15.914  0.2772  0.0103  0.2193
27614W        W45818  16.607   7.600  15.050  0.1986  0.1267  0.2307
27615W        W45819   6.267  16.983  14.590  0.1259  0.0553  0.2027
27616W        W45820   5.878   0.569   1.602 -0.1273  0.0096 -0.0756
27617W        W45821  12.626   5.705  12.462 -0.3950  0.2947  0.0517
27618W        W45822  14.215   3.919  14.280 -0.1259  0.2492  0.0016
27619W        W45823  11.912   3.035  12.567  0.0946 -0.3906 -0.1229
27620W        W45824  16.043  12.967   4.215 -0.1085 -0.3324  0.1392
27621W        W45825   5.458  17.224  11.829 -0.2043 -0.4016  0.1246
27622W        W45826   9.028  17.479  13.598  0.1188 -0.3361 -0.0676
27623W        W45827   3.863  11.800  16.970  0.0501  0.0703 -0.4190
27624W        W45828   5.250  11.156  11.514  0.1449  0.0511 -0.0537
27625W        W45829   8.401   9.897  15.689 -0.0587  0.0107 -0.0492
27626W        W45830   0.787   2.504  16.665 -0.1141  0.3868 -0.0663
27627W        W45831   6.591   5.269  16.049 -0.1434  0.2097 -0.0554
27628W        W45832  10.011   7.759  13.756  0.1120  0.1276 -0.1863
27629W        W45833  15.026   6.090  16.213  0.0558 -0.0774  0.2065
27630W        W45834  13.369   0.078   0.304 -0.1921 -0.2426 -0.2738
27631W        W45835   6.848  15.331  15.556  0.0543 -0.2709 -0.0410
27632W        W45836   0.925   6.065  16.621  0.3248 -0.1076  0.1429
27633W        W45837  15.361  13.963   1.858  0.0446 -0.0580 -0.0536
27634W        W45838  15.534  15.347  13.603  0.1464 -0.1253  0.1117
27635W        W45839  14.046   1.546  14.805  0.0523 -0.0579  0.0210
27636W        W45840  12.232  14.186   1.068  0.0304  0.0437  0.1567
27637W        W45841   8.135   0.633  16.666  0.2833  0.2516 -0.4164
27638W        W45842   6.614  16.812  16.956 -0.1133  0.1900  0.0564
27639W        W45843   4.771   9.718  16.512  0.0319  0.0021  0.2593
27640W        W45844  14.625   0.021   5.543 -0.2265 -0.3174 -0.1726
27641W        W45845   2.339   8.617   2.963 -0.2512 -0.1705  0.1190
27642W        W45846  11.185   6.779   4.908  0.0861 -0.0642  0.1393
27643W        W45847   6.550   9.191  14.144  0.0358 -0.0212 -0.2320
27644W        W45848  15.577  16.011   0.929 -0.0554  0.2379  0.2754
27645W        W45849  12.447   7.614  14.012 -0.2804  0.4615 -0.1440
27646W        W45850  11.811   6.314  16.011  0.2466  0.1455 -0.1519
27647W        W45851  10.402   7.526   3.244 -0.0815 -0.1482 -0.1593
27648W        W45852  10.899  16.858  15.299  0.4241 -0.1216 -0.2380
27649W        W45853   5.579  11.237   0.789  0.3888  0.3718  0.1955
27650W        W45854   5.149  13.639  13.609  0.1286 -0.3779 -0.0383
27651W        W45855   2.252   2.299  12.992 -0.0852  0.0199 -0.1483
27652W        W45856  15.660  14.064   0.219  0.2653 -0.0143 -0.0821
27653W        W45857  16.130  11.606   0.784 -0.1893 -0.2561 -0.3131
27654W        W45858   4.986  17.404   3.719 -0.0099  0.0293 -0.1469
27655W        W45859  13.142  15.592  13.649  0.0743  0.1851 -0.1983
27656W        W45860  10.477   3.031   1.391 -0.0745  0.3648  0.2772
27657W        W45861  14.892   5.485   0.163  0.1933  0.0007 -0.2738
27658W        W45862  14.085   1.424   0.913 -0.2744 -0.1438  0.2087
27659W        W45863  15.761  13.297  12.715  0.0032 -0.2315  0.0021
27660W        W45864   0.017   0.095  14.702 -0.0256  0.1328 -0.0370
27661W        W45865   5.703   8.324  13.493  0.0376 -0.1406 -0.2933
27662W        W45866   3.308  17.318  14.322 -0.2265 -0.0010  0.3293
27663W        W45867  11.522   8.737   0.762  0.1843  0.0339  0.5120
27664W        W45868  15.798  12.554  13.238 -0.0061 -0.0974  0.0223
27665W        W45869   8.708   8.598  16.921  0.2127  0.2119  0.0519
27666W        W45870   8.283   6.224   2.957 -0.4739  0.1151  0.1757
27667W        W45871   8.529   7.714   5.479 -0.1684 -0.0524 -0.2432
27668W        W45872  15.834   5.829   3.519 -0.2454  0.0878  0.2508
27669W        W45873   9.852  10.853  17.146  0.0116 -0.0073 -0.1911
27670W        W45874   7.095   3.456   1.443 -0.1028  0.1276  0.0808
27671W        W45875  12.665  14.774  12.367  0.0412 -0.1824  0.2757
27672W        W45876  14.756  16.927   4.215 -0.1007 -0.0001  0.1150
27673W        W45877   1.060  13.557   2.004  0.0603 -0.1468  0.1994
27674W        W45878  15.781   8.168   0.842  0.2584  0.3339  0.1699
27675W        W45879  12.968  11.079   2.171 -0.2789  0.0037  0.2050
27676W        W45880   1.812  14.309   5.008 -0.2020 -0.0116  0.0708
27677W        W45881   3.803   8.410   1.955 -0.0240 -0.0207  0.0161
27678W        W45882   4.917  13.613   3.065 -0.0498 -0.0973  0.2449
27679W        W45883   7.550   1.624  16.736  0.1841  0.0037  0.4043
27680W        W45884  17.035   0.252  16.724  0.1328  0.0924  0.0254
27681W        W45885   4.953   9.460   1.506 -0.3077  0.1625  0.0200
27682W        W45886  16.280  13.083  16.149 -0.1599  0.0224 -0.2373
27683W        W45887  15.043   3.132   2.259 -0.2043  0.0299 -0.0663
27684W        W45888  15.775  13.434  16.112 -0.1012  0.0888  0.0125
27685W        W45889   8.250   0.066  16.598  0.3313  0.0504  0.1676
27686W        W45890   4.944   5.408   1.053  0.3048 -0.0407  0.1279
27687W        W45891  15.864  13.304   1.849 -0.1479 -0.0563  0.2116
27688W        W45892   6.399  13.996   3.954 -0.4208  0.1296 -0.0037
27689W        W45893  15.897  11.078   1.049  0.2269 -0.3640 -0.0539
27690W        W45894   3.127  13.817   5.674 -0.1120 -0.0383  0.0130
27691W        W45895   6.184   8.415  16.690 -0.1401 -0.1938  0.2192
27692W        W45896   7.279   2.740   2.729 -0.2428  0.1166 -0.0646
27693W        W45897  15.691   2.449  12.863  0.0201 -0.1174 -0.2011
27694W        W45898   4.854   1.566  16.909  0.0872 -0.0842 -0.1398
27695W        W45899   8.720   6.934  13.312 -0.0259 -0.1782 -0.1502
27696W        W45900   0.158  13.795  17.040 -0.0746  0.3350  0.0497
27697W        W45901   0.441  10.298   4.631 -0.1954  0.0818  0.4353
27698W        W45902   6.915   8.595  14.183  0.2464 -0.1224  0.1203
27699W        W45903  12.668  17.426   0.985  0.1789  0.1930  0.0019
27700W        W45904  10.685   0.707   4.532  0.1208 -0.3078  0.0078
27701W        W45905  11.173  15.046  14.157  0.1872 -0.2383 -0.0305
27702W        W45906  11.818   4.220   2.109  0.2367  0.0609  0.0357
27703W        W45907  12.925  10.706   4.918 -0.1354  0.0284 -0.2670
27704W        W45908  15.026  12.339   0.835 -0.0590 -0.3220 -0.0278
27705W        W45909   1.273  17.536  14.434  0.0229  0.0951 -0.1133
27706W        W45910  12.490  15.848   4.448  0.0786 -0.0977  0.2619
27707W        W45911  14.032  13.322   3.694 -0.3257 -0.1675  0.1603
27708W        W45912   4.233   3.316  13.001  0.0819 -0.4204  0.1196
27709W        W45913  12.185   7.373  16.234 -0.4576 -0.2087  0.0272
27710W        W45914   8.761   1.707   2.457  0.2114 -0.2871 -0.1019
27711W        W45915  10.696   3.033   2.994 -0.2584 -0.1349  0.1293
27712W        W45916   1.994   6.648   0.627 -0.0411 -0.1831 -0.1904
27713W        W45917   2.489  15.389   4.309  0.1004 -0.2388  0.2161
27714W        W45918  13.828  12.288  12.507  0.1394  0.0409 -0.1408
27715W        W45919  14.882  14.487  15.601 -0.0128 -0.0157 -0.4139
27716W        W45920  11.115   2.972  15.470  0.2850 -0.0128 -0.0421
27717W        W45921   1.996  15.422   4.288 -0.0310 -0.1111 -0.3568
27718W        W45922   2.485  10.059   1.671 -0.1964  0.0760 -0.1048
27719W        W45923  13.189   4.998   1.418  0.2606 -0.0406 -0.4066
27720W        W45924  12.966  15.176  14.473 -0.1109 -0.1678  0.2671
27721W        W45925   1.596  11.339  17.278  0.3315 -0.1617 -0.2339
27722W        W45926  10.703  17.149  16.912 -0.1749  0.0236  0.1711
27723W        W45927  14.415   7.559   2.372  0.1788  0.4177  0.0387
27724W        W45928   2.007   1.686  12.271 -0.1968  0.2149 -0.3504
27725W        W45929   0.475   8.789   2.638 -0.0586  0.2255 -0.0216
27726W        W45930  11.216  16.067   5.527  0.3077  0.2124 -0.0050
27727W        W45931  13.633  15.371  16.304 -0.1288 -0.1974 -0.0951
27728W        W45932   7.117   9.564   3.070 -0.0096 -0.0157  0.3422
27729W        W45933  15.265   5.806   2.009 -0.1790 -0.0160  0.1486
27730W        W45934   5.281  14.412  12.703  0.2469  0.0155  0.0755
27731W        W45935   3.815   5.504  14.542  0.2622 -0.1297  0.0962
27732W        W45936  14.793   7.674   0.373  0.0217  0.0273  0.1103
27733W        W45937  14.287  13.511  15.213 -0.0633 -0.1354 -0.0441
27734W        W45938  11.796   6.166   0.330 -0.1069  0.4292 -0.2382
27735W        W45939  14.427   1.916  14.857  0.1687  0.1297 -0.2572
27736W        W45940   4.023  12.757  12.872  0.2943 -0.0050  0.0571
27737W        W45941  11.244  15.237  11.219  0.2216 -0.1066 -0.1185
27738W        W45942  17.383   5.557  14.324  0.1187 -0.2989  0.2452
27739W        W45943  14.365   1.578   0.359 -0.0463 -0.0170 -0.2729
27740W        W45944   9.036   3.773   1.878 -0.0004 -0.2445 -0.0580
27741W        W45945  16.630   0.370  12.916 -0.2505 -0.1667 -0.1554
27742W        W45946  10.378   0.046  12.614  0.2323  0.0285  0.0043
27743W        W45947   4.974   5.107  14.318 -0.1407  0.0393 -0.0018
27744W        W45948  10.459   8.488  15.791  0.3790  0.0763  0.1632
27745W        W45949   8.934  16.210  12.952 -0.0406  0.3292  0.2197
27746W        W45950   9.763   0.611   4.665  0.2092  0.0319 -0.2503
27747W        W45951   1.136   3.503  12.050 -0.1143  0.0439 -0.1195
27748W        W45952  16.424  16.819   4.067  0.0696  0.1638 -0.0378
27749W        W45953  17.483   2.590   1.486  0.0172 -0.0034  0.2826
27750W        W45954   7.209  11.584   0.971 -0.1367 -0.3751 -0.4051
27751W        W45955  15.469   1.181  12.488 -0.0213  0.2967 -0.3434
27752W        W45956  10.726   9.006  14.368 -0.3690 -0.1356 -0.0019
27753W        W45957   5.611   3.751   0.618 -0.0134  0.0207 -0.0078
27754W        W45958   0.242  12.572  14.609 -0.2446 -0.0552  0.0017
27755W        W45959   9.211  13.114   1.429  0.1308 -0.0429 -0.1074
27756W        W45960   5.494   3.596   4.662  0.1373  0.0347  0.0749
27757W        W45961   5.018   1.330  13.020  0.1335 -0.2453 -0.0986
27758W        W45962  10.116   8.684  15.447  0.1189  0.3668  0.2226
27759W        W45963   4.758   5.808   3.678 -0.0713 -0.0382  0.1873
27760W        W45964   2.252  13.719  12.224 -0.1406 -0.1765  0.0606
27761W        W45965   3.078   2.937   4.012 -0.1521 -0.0480 -0.0627
27762W        W45966   9.591  11.041  13.193  0.1114  0.0508 -0.0516
27763W        W45967   7.391  13.783  12.609 -0.0325  0.1156  0.0706
27764W        W45968   6.416   7.417  14.412 -0.0937 -0.4362  0.2209
27765W        W45969  17.334  12.453  16.720  0.0233 -0.2508 -0.1389
27766W        W45970  15.024   4.112  13.411  0.4692  0.0297 -0.3258
27767W        W45971   9.569   1.027   4.436 -0.1599  0.2534  0.0324
27768W        W45972   9.905  16.057  15.959 -0.1486 -0.2023  0.1597
27769W        W45973  16.341  11.808  15.306  0.1087  0.0743  0.2354
27770W        W45974  12.828   9.601   3.885 -0.1142 -0.0799  0.3523
27771W        W45975  16.997   1.608  12.812  0.0567  0.0766 -0.3781
27772W        W45976  13.778   8.167   4.860 -0.0504  0.1073  0.3140
27773W        W45977   0.041   5.655  16.127 -0.0973  0.0923  0.0091
27774W        W45978  14.982  11.705   6.299 -0.0181 -0.0898  0.2438
27775W        W45979   0.156   0.117   4.832  0.0175 -0.2528 -0.3666
27776W        W45980  17.511   7.873  13.947  0.3516 -0.3555  0.1763
27777W        W45981   3.359  17.263   4.738  0.0604  0.1420  0.5453
27778W        W45982   0.541   0.367  13.224  0.1729 -0.0575  0.0111
27779W        W45983  12.005   3.703   4.100  0.2311 -0.1619 -0.1135
27780W        W45984  11.692   0.887  13.610  0.1218  0.0895 -0.2030
27781W        W45985   5.550   4.081   4.344  0.0090 -0.0920 -0.3549
27782W        W45986  11.665   3.254  14.675  0.0192 -0.2678  0.1727
27783W        W45987   0.962  10.828   1.740 -0.0784  0.0026 -0.3898
27784W        W45988  15.722   5.149  14.578  0.1228 -0.1018 -0.1636
27785W        W45989  13.551  15.019   4.624 -0.0562 -0.0455  0.2607
27786W        W45990   2.914  14.450   3.558 -0.0083 -0.1229 -0.1409
27787W        W45991   2.243   3.993   1.044 -0.1255 -0.0212 -0.0994
27788W        W45992  14.081   2.428   4.281  0.3979 -0.1361 -0.0416
27789W        W45993   5.698  17.125   0.411 -0.1504  0.2006 -0.0175
27790W        W45994   3.765   4.855  14.226 -0.0685  0.1760 -0.0598
27791W        W45995  10.595   0.114   3.448 -0.4299 -0.0779 -0.0592
27792W        W45996   7.309   5.381  16.826  0.1577 -0.2179  0.3477
27793W        W45997  14.653   0.853  16.930  0.3244 -0.1238  0.3906
27794W        W45998  15.070   6.920   0.946 -0.1266  0.0784  0.3768
27795W        W45999  15.019  10.607  15.108  0.0470 -0.0368  0.0543
27796W        W46000  12.246   6.879   3.330  0.3226 -0.0004  0.0322
27797W        W46001  10.016  12.956  15.022  0.0457  0.1681  0.0763
27798W        W46002   4.141  15.663   1.128  0.1368  0.3641 -0.2810
27799W        W46003   7.971  15.335   3.798 -0.0176  0.2044  0.0366
27800W        W46004  10.018   1.024   5.444 -0.1617  0.3595  0.1220
27801W        W46005   2.495   7.949  12.200  0.0709 -0.0747 -0.2158
27802W        W46006   5.114   3.550   0.444 -0.3725  0.1689 -0.0755
27803W        W46007  12.025  10.071   0.983 -0.2025 -0.1561 -0.2855
27804W        W46008  15.155   6.761  15.286  0.2166  0.0027  0.1288
27805W        W46009   1.663  16.922  15.556  0.2604  0.2488  0.2230
27806W        W46010  10.046   3.019  13.209  0.0496  0.0004 -0.1505
27807W        W46011   6.692   5.980   5.280 -0.2194  0.3137 -0.0272
27808W        W46012   9.633   0.415  17.210 -0.0181  0.4169  0.2454
27809W        W46013  11.884  17.420  13.806 -0.1172  0.0745 -0.1213
27810W        W46014  11.649  16.850   1.824 -0.1373 -0.3372 -0.0845
27811W        W46015  16.736  10.335  16.488  0.2861  0.2296  0.2821
27812W        W46016   5.154  10.830  16.160  0.1052  0.0128 -0.0485
27813W        W46017   3.848   2.607  15.194  0.1301  0.2904 -0.3935
27814W        W46018   3.541   6.639   3.006  0.0945 -0.2585  0.0581
27815W        W46019  13.131   6.436   2.000 -0.1321  0.0686  0.2850
27816W        W46020  15.972   2.149   2.133  0.1356  0.0906  0.0112
27817W        W46021   1.090   8.883  13.575  0.0073 -0.0756  0.0499
27818W        W46022  13.532  16.255  12.435  0.1938  0.0143 -0.5005
27819W        W46023   6.145  14.351   4.298  0.0838  0.2057 -0.1677
27820W        W46024   1.716   7.667  15.013  0.1100 -0.2054 -0.0593
27821W        W46025  16.257   4.293   5.193  0.1834 -0.0244 -0.0635
27822W        W46026   4.208  15.577   4.285 -0.1695  0.4582 -0.1183
27823W        W46027  10.819  12.502   3.791 -0.1445 -0.3208 -0.2271
27824W        W46028   3.033   5.090   1.273 -0.2843  0.0750 -0.0568
27825W        W46029   7.932   1.259  16.616  0.1866  0.0425  0.1708
27826W        W46030  11.133   0.846   4.928  0.0709 -0.0590 -0.1988
27827W        W46031  16.794   6.533   3.282  0.1090 -0.0670  0.2773
27828W        W46032  10.545   0.965   3.724  0.2498  0.0270  0.0830
27829W        W46033   0.055  12.100   0.712 -0.1056  0.1107 -0.3538
27830W        W46034   5.191   4.768   3.438  0.1835  0.1737 -0.1442
27831W        W46035  14.129   9.939  16.119  0.4532  0.1526 -0.2166
27832W        W46036   7.048   7.605   2.349 -0.1560  0.0894 -0.0083
27833W        W46037  13.703   1.073  17.120 -0.1287 -0.1369  0.0238
27834W        W46038  11.486   0.879   1.697 -0.0265  0.0199  0.0278
27835W        W46039   0.227   9.518  16.270 -0.3253 -0.0266  0.1928
27836W        W46040  13.090   8.539  17.172  0.1811  0.1105 -0.2727
27837W        W46041  12.073   6.638   4.306 -0.0224  0.4433 -0.2129
27838W        W46042   8.968  15.594  15.446  0.1337 -0.1212  0.3990
27839W        W46043   1.426  15.265  16.571 -0.0586 -0.0490  0.1943
27840W        W46044   2.452  11.390  13.326 -0.0539 -0.2528 -0.1215
27841W        W46045   8.442   3.333  12.513  0.1272  0.1459 -0.0663
27842W        W46046  12.029  12.300   1.948 -0.0557  0.1950 -0.3250
27843W        W46047  10.931   4.097  16.661 -0.0162 -0.3119 -0.2772
27844W        W46048   8.703   8.117   2.363  0.0297  0.1784 -0.0394
27845W        W46049   5.292   1.194  15.604  0.1543  0.0586 -0.0282
27846W        W46050  16.500  16.597  14.732  0.2697 -0.2631  0.0873
27847W        W46051   9.669   9.677  13.045  0.0267 -0.2945 -0.0663
27848W        W46052  14.039  16.101  12.623  0.3925  0.1703 -0.2758
27849W        W46053   0.658  16.125   2.515 -0.1051 -0.2094 -0.0314
27850W        W46054   6.190  11.743   3.911 -0.1188  0.2695 -0.1605
27851W        W46055   2.643   6.681  14.924 -0.1577  0.1045  0.1153
27852W        W46056   5.738   0.320  15.422  0.0806  0.1434  0.0688
27853W        W46057   6.088   6.508   2.454  0.1389  0.1872  0.1471
27854W        W46058   3.855  11.593   3.854 -0.1415  0.2796 -0.1080
27855W        W46059  10.263  17.307  11.797 -0.0664 -0.0731  0.0624
27856W        W46060   3.753   1.664   0.331  0.0976 -0.2101 -0.2711
27857W        W46061  14.383   4.259  17.052 -0.0082 -0.0950 -0.0383
27858W        W46062  13.966   5.705   5.322  0.3007 -0.1869  0.1304
27859W        W46063   9.623   8.999  15.194 -0.2187 -0.0254 -0.0927
27860W        W46064   5.931   0.040   2.314  0.2025  0.0321 -0.1021
27861W        W46065  14.219   6.518  13.942 -0.1738  0.1734 -0.0202
27862W        W46066   9.373  15.449  11.712  0.1928  0.1574  0.3118
27863W        W46067   8.302  11.041   1.905  0.0271  0.3685  0.1002
27864W        W46068   3.227  15.515  13.863  0.3411 -0.0237 -0.1236
27865W        W46069   6.016  12.480  15.699 -0.0139  0.0715  0.0383
27866W        W46070   8.342  10.958   2.828  0.0221 -0.4189  0.0707
27867W        W46071   5.401   4.431  12.560  0.0377 -0.0034 -0.2169
27868W        W46072  13.950  10.233   2.314 -0.0196 -0.2196 -0.0268
27869W        W46073  11.485  10.385   4.257 -0.2438 -0.0573  0.0098
27870W        W46074  10.183   2.270  15.977  0.1001  0.2125 -0.1032
27871W        W46075   5.095  12.905   1.235  0.1637  0.3254  0.1049
27872W        W46076  13.990  11.386   2.083  0.0899  0.1141  0.1804
27873W        W46077  11.802  16.510  16.505  0.0150  0.1908  0.0362
27874W        W46078  15.993  13.178   3.235 -0.1484  0.1718 -0.0589
27875W        W46079   6.657   5.618  14.869  0.0588 -0.3176 -0.3578
27876W        W46080  14.191   4.505   4.804  0.0066  0.0305 -0.1530
27877W        W46081  15.537  14.954  12.424  0.3387  0.1956 -0.2285
27878W        W46082  11.389  10.662  16.974  0.0420  0.1975  0.1833
27879W        W46083  15.070  11.187   5.429 -0.1098 -0.3744  0.0154
27880W        W46084   4.239  11.469  12.336 -0.0016 -0.1272 -0.1760
27881W        W46085  16.919   1.995   2.928  0.2184 -0.2342  0.1731
27882W        W46086  16.559   8.352  15.178 -0.0630 -0.2473  0.1063
27883W        W46087   8.814   9.797  12.413 -0.1852  0.0225  0.2376
27884W        W46088   3.909   4.364  15.021 -0.0187  0.0769 -0.1742
27885W        W46089  16.024   9.886   1.846  0.3018  0.3461 -0.0318
27886W        W46090  12.061   9.017   5.003 -0.1565  0.1721 -0.0001
27887W        W46091  15.080   2.009   1.316  0.1735 -0.0791 -0.0344
27888W        W46092   1.995  11.896   1.505 -0.1340 -0.3431  0.3717
27889W        W46093  13.327   1.482   2.001 -0.3350 -0.1784 -0.3267
27890W        W46094  14.795   0.121   3.586  0.1334 -0.0214 -0.0454
27891W        W46095  17.143  11.142   2.004 -0.2000 -0.0023 -0.0142
27892W        W46096   4.822   1.061  16.903  0.3323  0.0010  0.0673
27893W        W46097   4.439   2.886  16.203  0.0216  0.1385  0.0504
27894W        W46098   3.177   1.533  16.171  0.2394  0.0467 -0.0670
27895W        W46099   4.413  15.062   2.798  0.1028  0.0615  0.3224
27896W        W46100   1.681  13.121   6.706 -0.1216 -0.2716 -0.3854
27897W        W46101   8.919  11.188   3.543 -0.1564  0.0651 -0.2928
27898W        W46102   5.576   9.452   4.651 -0.2116  0.2539  0.2928
27899W        W46103  15.380   3.004  16.036 -0.2313  0.1628  0.0308
27900W        W46104   8.482   8.477   3.291 -0.0548 -0.2283  0.0089
27901W        W46105  11.773   1.425  13.068  0.1672 -0.2041 -0.0337
27902W        W46106   7.882  11.023  12.824  0.2489 -0.2590  0.3910
27903W        W46107   8.668  15.217  16.625 -0.0627 -0.0598  0.2703
27904W        W46108   5.822   7.717   0.811  0.1373  0.0166 -0.3046
27905W        W46109  15.106  12.313  15.839  0.1201  0.1222  0.0242
27906W        W46110   3.603   1.409  11.163 -0.0881 -0.2046  0.1188
27907W        W46111   6.637  11.581   3.750 -0.1095  0.2420  0.0272
27908W        W46112   6.041   8.230   2.208  0.1498  0.3551 -0.0319
27909W        W46113   9.547   8.571  14.963  0.2559  0.0063 -0.0546
27910W        W46114   8.768   3.256   1.274 -0.0436  0.2224  0.0155
27911W        W46115   3.968  16.524  13.588 -0.2155 -0.1826 -0.0345
27912W        W46116  10.298  17.277   3.240 -0.0731  0.0703 -0.2435
27913W        W46117   4.377  13.311   4.114 -0.0671  0.0959 -0.0555
27914W        W46118  11.890  14.628  12.717  0.0664  0.0265  0.2293
27915W        W46119   9.612   6.816  14.667  0.0396  0.0413  0.1096
27916W        W46120   2.257  15.550   5.122  0.1221  0.0653  0.5553
27917W        W46121   7.337   4.277   0.056  0.0398 -0.3956 -0.0918
27918W        W46122  12.747  16.950   0.058  0.0707 -0.1746  0.4736
27919W        W46123   4.258  10.205  16.023 -0.0993  0.1277  0.0781
27920W        W46124  12.434  10.155  12.561  0.1960  0.0583  0.1151
27921W        W46125  13.970   8.435  12.351 -0.2907  0.0652 -0.0400
27922W        W46126   9.517   9.029   4.526  0.1321  0.0549  0.1686
27923W        W46127  16.370   2.114   1.837  0.1384  0.3258 -0.2268
27924W        W46128  13.427   7.821  13.036 -0.0049  0.0254 -0.0742
27925W        W46129   5.399   2.927  12.691 -0.1207  0.0655 -0.1349
27926W        W46130   1.147   8.920  12.957 -0.0242  0.0223  0.0637
27927W        W46131   1.326  11.484   0.880 -0.1002 -0.0424  0.0202
27928W        W46132   4.146   3.555  14.594 -0.0146  0.2403 -0.0261
27929W        W46133  11.622   0.770  16.607 -0.1799 -0.1178  0.1170
27930W        W46134   1.994   8.695  15.434 -0.0303 -0.2528 -0.1934
27931W        W46135  12.937   2.980  16.079 -0.3020 -0.2756  0.1038
27932W        W46136  13.255  11.853   0.401 -0.1063  0.0909  0.0597
27933W        W46137  14.659   9.691   5.268  0.5273  0.0438 -0.0743
27934W        W46138   8.420  11.754   1.732 -0.0448 -0.1957 -0.2844
27935W        W46139   3.017  10.229  15.441  0.0907  0.1364 -0.0876
27936W        W46140   2.228   6.096   4.270  0.0099 -0.0819  0.0183
27937W        W46141   2.361  14.650  14.298  0.1132 -0.0581  0.0079
27938W        W46142  11.286   8.276  15.335 -0.2210  0.0340  0.1653
27939W        W46143   6.047   8.960  16.602  0.0806 -0.0313 -0.4506
27940W        W46144  15.357   7.885   1.664 -0.1351  0.1271  0.1565
27941W        W46145  17.415   4.245  14.770  0.0889  0.0682 -0.2151
27942W        W46146   4.472   3.361   0.723 -0.3065  0.1875  0.1488
27943W        W46147   4.238   1.806   2.211 -0.0299  0.2937  0.2370
27944W        W46148   6.180   1.513   2.143 -0.2324  0.2407 -0.1002
27945W        W46149   9.294  13.942   0.656 -0.1988  0.0251  0.3013
27946W        W46150   9.491  13.060  14.327 -0.4430  0.2066  0.0630
27947W        W46151  15.089   5.716   4.984  0.2478  0.3347 -0.1100
27948W        W46152  15.522   3.340   0.986 -0.1359 -0.2252  0.0460
27949W        W46153   6.915   1.608   1.739 -0.1519 -0.0632  0.1668
27950W        W46154  11.420   5.987   1.230 -0.1395  0.0667 -0.1559
27951W        W46155   8.958   5.586   0.577  0.0306  0.1521 -0.0632
27952W        W46156  17.459   1.744   3.753  0.0368  0.0721 -0.2592
27953W        W46157  17.514  10.478   0.199 -0.1184  0.1658 -0.3397
27954W        W46158   2.082   1.232  16.290 -0.0271  0.4981  0.1103
27955W        W46159   4.558  12.370   2.923 -0.1729  0.3386 -0.0550
27956W        W46160  14.370  14.439   4.455  0.0933  0.3105 -0.1777
27957W        W46161   9.081  10.282  12.447  0.1815  0.2679  0.2811
27958W        W46162  10.953  15.408  13.884 -0.0310 -0.2194  0.1448
27959W        W46163   6.663   0.924  12.963 -0.0127  0.0848  0.3092
27960W        W46164   8.561   9.507  15.933 -0.2715 -0.1737 -0.0708
27961W        W46165  14.969   0.011   5.102  0.1312 -0.1045  0.2026
27962W        W46166  15.382  14.389  13.339  0.0602  0.1561  0.2294
27963W        W46167   3.773  16.307  12.802 -0.4659  0.2222  0.0575
27964W        W46168   7.418  13.389  15.954 -0.1741  0.1020 -0.1236
27965W        W46169   6.209  15.459  13.093  0.1008 -0.3728 -0.0654
27966W        W46170  13.974  12.521   2.600 -0.1960  0.1381  0.0915
27967W        W46171   6.446  12.249   1.251 -0.1786 -0.1877 -0.1504
27968W        W46172  16.146   0.103   0.159  0.0641 -0.0042  0.1970
27969W        W46173   5.575  11.827   4.246  0.1243 -0.2994 -0.0062
27970W        W46174  10.417   0.906   0.803 -0.1462  0.0014  0.1109
27971W        W46175  15.764  13.423   3.606 -0.1950  0.1670  0.1000
27972W        W46176  12.683  15.789  16.276 -0.2346  0.2366 -0.1897
27973W        W46177   6.024   4.417   4.753  0.0810 -0.3840  0.2135
27974W        W46178  12.427   3.566  16.832 -0.1029 -0.0778 -0.0914
27975W        W46179   3.856   4.505   4.738  0.0765  0.0433 -0.5835
27976W        W46180   7.926  17.242   0.541  0.2610 -0.0987  0.3395
27977W        W46181   8.114  12.294  12.052 -0.0179  0.2619  0.0616
27978W        W46182  15.711  15.500  11.140  0.1930 -0.2010  0.2966
27979W        W46183   4.154   1.653   4.078 -0.2210  0.3186 -0.1950
27980W        W46184   6.735   9.596  12.095 -0.0192  0.0834  0.3010
27981W        W46185   1.392   6.888  15.344 -0.0553  0.1690 -0.0434
27982W        W46186  13.613  14.539  14.682  0.1369  0.0037 -0.1347
27983W        W46187   2.590  10.640  11.905  0.0245  0.0625 -0.2792
27984W        W46188  16.206  14.109   5.344  0.2903  0.0679  0.2189
27985W        W46189   1.104   2.908  12.130  0.2492  0.0098  0.4334
27986W        W46190   7.423  15.398  17.146 -0.1101  0.0086  0.2060
27987W        W46191  13.972   1.494   5.488  0.1799  0.0722 -0.3261
27988W        W46192   7.706   4.556  14.604 -0.0675 -0.1930  0.0856
27989W        W46193  17.013   1.892  12.364 -0.0185 -0.1295 -0.1392
27990W        W46194   3.846   6.984   1.626  0.3082 -0.1377  0.0000
27991W        W46195   8.126   4.029   4.254 -0.1693  0.1118  0.1157
27992W        W46196   0.503   4.984  12.230 -0.1005  0.2326 -0.0561
27993W        W46197  15.016  10.591   2.866 -0.1420  0.1801 -0.3216
27994W        W46198   9.393  13.590  14.147  0.0229  0.1626  0.0472
27995W        W46199  13.665   7.046   2.047  0.0615  0.2812 -0.0734
27996W        W46200  12.377   8.158   5.042  0.1138  0.2234  0.2940
27997W        W46201   9.595   5.649   3.171 -0.2372 -0.0245  0.0656
27998W        W46202  13.996   8.090  17.119 -0.1717 -0.1540  0.0516
27999W        W46203   9.918   7.728  12.548  0.1553  0.0930  0.0797
28000W        W46204   2.084   5.513  13.731  0.0375  0.0120 -0.0275
28001W        W46205  11.904   3.839   2.747  0.1029 -0.2350 -0.0646
28002W        W46206   3.604  15.267  13.054  0.0958 -0.0302  0.2130
28003W        W46207  16.991   3.513  14.808  0.0088 -0.2185 -0.1754
28004W        W46208  10.273   5.852  13.543  0.0204 -0.2955  0.3533
28005W        W46209   7.220  14.358   2.685 -0.0881 -0.0818  0.0293
28006W        W46210   0.438  11.542   3.924 -0.1389  0.0507  0.2100
28007W        W46211  16.855  14.987  13.315 -0.0112  0.0544  0.1078
28008W        W46212  13.864  15.155  15.231  0.1029  0.0180  0.3086
28009W        W46213  16.686   1.869   0.413  0.0797  0.0380  0.0619
28010W        W46214   6.100   6.640  15.778 -0.0056  0.3311 -0.1457
28011W        W46215   7.656  11.274   4.917 -0.2354  0.0130 -0.1107
28012W        W46216  12.262   7.624   4.368  0.1650  0.1861  0.1913
28013W        W46217  14.980   2.774   4.024 -0.1116 -0.1086 -0.1822
28014W        W46218  10.499  16.554   3.840 -0.0595  0.3226 -0.0347
28015W        W46219   5.534   5.624   4.398  0.1143  0.0891  0.1264
28016W        W46220  15.500   9.653  16.039  0.1939 -0.2550 -0.0533
28017W        W46221   7.440   7.010  12.112  0.0528 -0.0188 -0.0567
28018W        W46222   6.816   8.459   2.243  0.0804  0.1061 -0.1194
28019W        W46223   8.628   1.380  15.728 -0.3179  0.2601 -0.1686
28020W        W46224   5.708   0.655  15.050  0.0366 -0.4187 -0.0667
28021W        W46225   9.340   1.532  13.223  0.1318  0.2165  0.1984
28022W        W46226  13.338  12.651   5.438 -0.0044  0.0585 -0.4611
28023W        W46227   2.029   0.022  13.802 -0.1644 -0.2610  0.1926
28024W        W46228   3.352  15.398   4.904  0.0507 -0.0535 -0.2218
28025W        W46229  16.622  14.091  15.161 -0.2816  0.1727  0.4084
28026W        W46230   5.773   8.467   1.140 -0.2195  0.0425 -0.0974
28027W        W46231   4.357  17.048   0.167  0.3085  0.2400  0.0168
28028W        W46232  15.471   3.773  13.556 -0.0649  0.1331  0.1824
28029W        W46233  11.582   2.569  16.109 -0.2388 -0.0083 -0.2408
28030W        W46234   9.273   0.475   4.471  0.1655 -0.0173 -0.0425
28031W        W46235   9.684  12.606  14.982 -0.1458 -0.1711 -0.3089
28032W        W46236   9.210   1.121   2.973  0.1654  0.2695  0.2312
28033W        W46237   0.798   3.067  13.127 -0.1512  0.1844  0.3572
28034W        W46238  11.710  13.828  14.737 -0.0919  0.3224  0.2685
28035W        W46239  10.022   7.825   4.039  0.0237 -0.2303 -0.2347
28036W        W46240   1.058   6.987   2.664 -0.0456 -0.2067 -0.0827
28037W        W46241   6.561   3.758   3.625 -0.0278 -0.3846 -0.1409
28038W        W46242  10.370   5.709   3.537  0.0610  0.0291 -0.1067
28039W        W46243   6.373   5.206  14.889 -0.2617  0.0998 -0.4437
28040W        W46244   4.481   1.404  17.199 -0.1644  0.2076 -0.1985
28041W        W46245   6.210   0.118  13.234 -0.3032  0.0449 -0.2215
28042W        W46246  17.014   0.536  12.331  0.2246  0.0046  0.0829
28043W        W46247   2.350   7.115  17.265  0.1730 -0.0839  0.0710
28044W        W46248  13.574   5.120   0.515  0.1848  0.2340 -0.2634
28045W        W46249  10.767   0.531  16.603 -0.0574  0.5126 -0.1525
28046W        W46250   7.640  16.380  13.971  0.2989  0.0532  0.3118
28047W        W46251   5.480  14.507   0.310  0.2200 -0.0156  0.0478
28048W        W46252   5.445   1.173   6.336 -0.0486  0.0385  0.0200
28049W        W46253   6.930   6.942   4.627  0.0190 -0.0814 -0.0715
28050W        W46254   2.324  16.415  16.089 -0.0838  0.0960 -0.0697
28051W        W46255   3.187   7.363   3.523  0.0368  0.3318 -0.0956
28052W        W46256  14.506  12.100  12.668 -0.1270 -0.0842  0.0456
28053W        W46257  14.693   3.907   0.078 -0.1517  0.4585 -0.1186
28054W        W46258  15.107  13.973   2.807 -0.0121  0.0029  0.1491
28055W        W46259   5.192   5.647  14.972 -0.1653  0.1023  0.2422
28056W        W46260   1.009  11.697  13.913 -0.1809  0.1017  0.0869
28057W        W46261   6.671   7.102   6.012  0.1236 -0.0423  0.1326
28058W        W46262  11.435  10.868   3.834 -0.1335  0.0640 -0.0192
28059W        W46263  13.425   2.547  13.883 -0.0608  0.2928 -0.0784
28060W        W46264   0.312   8.414   4.335 -0.0387  0.1117  0.0755
28061W        W46265  13.271  16.729   2.661  0.0314 -0.0719 -0.0914
28062W        W46266   1.418  14.550   1.546 -0.1665 -0.2732 -0.0184
28063W        W46267  15.015  13.067   3.291  0.3804  0.0150 -0.1275
28064W        W46268   5.507  11.665  17.086  0.1753  0.2936  0.0141
28065W        W46269   7.183  17.411   1.441  0.2239 -0.0207  0.2245
28066W        W46270  16.828   6.227   4.966 -0.1807  0.0559  0.3165
28067W        W46271  15.129   7.390   4.931 -0.3314  0.1203  0.1447
28068W        W46272   0.749   2.524  13.634 -0.1985 -0.1591 -0.1349
28069W        W46273   7.399   5.895  12.029 -0.2330 -0.1940 -0.1793
28070W        W46274  10.071   2.712  15.030  0.0545  0.1183  0.1120
28071W        W46275  17.094   5.735   1.947  0.3012  0.0210  0.4881
28072W        W46276   2.980   6.031  15.724  0.0398  0.1727 -0.0123
28073W        W46277   0.876  10.056  16.289  0.0808  0.2372  0.1672
28074W        W46278   2.299   6.101   3.188 -0.2176  0.0788  0.1207
28075W        W46279   5.382   1.580  12.523 -0.0747 -0.0407  0.2105
28076W        W46280   2.060   9.890  16.781  0.1001  0.4840  0.0643
28077W        W46281   1.014   1.831  15.016  0.1049  0.1011  0.3081
28078W        W46282  16.728  16.913   3.528 -0.0457  0.0961 -0.1283
28079W        W46283  10.804  11.146  10.941 -0.1062  0.0242  0.1681
28080W        W46284   2.290  12.834   4.625  0.2902 -0.2801 -0.0205
28081W        W46285  16.919  14.274  15.555  0.0630  0.0337  0.1066
28082W        W46286  15.936   8.637   3.628  0.1816  0.0051 -0.3066
28083W        W46287  10.872   9.874  16.681  0.2254 -0.1686 -0.1605
28084W        W46288   1.219  11.917   2.179  0.0821  0.1397 -0.0634
28085W        W46289  13.664  17.276   0.350 -0.0711  0.1236 -0.0111
28086W        W46290   8.979  17.266   3.554 -0.0876  0.3406 -0.0651
28087W        W46291   9.855  16.834  16.402 -0.2325 -0.3922  0.2545
28088W        W46292   7.030   9.972  15.375  0.0388 -0.2514  0.0399
28089W        W46293  13.080  12.509  14.134  0.0871  0.0535 -0.1056
28090W        W46294   8.823   2.988   4.451  0.2071  0.0858 -0.0381
28091W        W46295   7.874  11.441   4.507 -0.0329 -0.0830 -0.1293
28092W        W46296   5.671  10.572  15.899 -0.0970  0.0542 -0.1574
28093W        W46297  12.444  12.267   0.095  0.1785  0.0125  0.0564
28094W        W46298  11.124   6.370   3.156 -0.0268  0.0476 -0.0668
28095W        W46299   7.008   2.180   4.728 -0.3381 -0.0211 -0.2839
28096W        W46300  12.760  15.633  12.179 -0.0133 -0.0485  0.0835
28097W        W46301   5.323   7.454  15.232 -0.1111  0.0986 -0.0547
28098W        W46302  13.107   2.635   4.805 -0.2018 -0.2925 -0.1347
28099W        W46303  13.955  13.011   1.941  0.2531 -0.1009 -0.2350
28100W        W46304  12.717  10.155  16.011 -0.0014  0.1597  0.0347
28101W        W46305   3.532  14.683  12.942 -0.1410 -0.2030 -0.2000
28102W        W46306  11.139  14.101   0.529  0.1499  0.2261 -0.0144
28103W        W46307  11.288  12.455   2.505  0.2229  0.1592  0.0167
28104W        W46308   4.205  16.084  15.018  0.0526  0.0388 -0.0101
28105W        W46309  12.779   5.596   2.432 -0.1531 -0.0333  0.0350
28106W        W46310  13.116  14.842   1.354 -0.3734  0.3028  0.1831
28107W        W46311   4.950   8.628   0.938 -0.2444  0.0316  0.0588
28108W        W46312  15.159  15.289   3.206 -0.2265 -0.1674 -0.2086
28109W        W46313   0.906   9.978   2.758 -0.0202  0.2327  0.0653
28110W        W46314   1.482   6.270  13.418 -0.0238 -0.1047 -0.0445
28111W        W46315   5.357   0.196   1.547  0.1494 -0.1497  0.1831
28112W        W46316   7.077  16.774  15.181 -0.2854 -0.1425  0.1625
28113W        W46317  13.197   0.161   4.331  0.0365 -0.1124  0.0712
28114W        W46318   8.944  13.484  13.633 -0.5191 -0.2829  0.0480
28115W        W46319  13.900  10.386   5.586 -0.1983  0.0640  0.3684
28116W        W46320   7.960   2.014   4.533 -0.0148 -0.1853  0.0447
28117W        W46321  17.003   7.577  13.735 -0.0861  0.1458 -0.2760
28118W        W46322   0.669  16.656  15.622  0.0898  0.1134  0.1201
28119W        W46323   0.858  12.368   2.105  0.1644 -0.1678  0.1574
28120W        W46324  16.235   9.360   1.171  0.2029 -0.1189 -0.2453
28121W        W46325  15.754  16.647   2.608 -0.1719 -0.3714 -0.0039
28122W        W46326  12.606   7.901  16.900 -0.0730 -0.1353 -0.1124
28123W        W46327  10.226   1.690   1.752  0.0886  0.1657 -0.0171
28124W        W46328   6.017  16.581  15.421 -0.4347  0.0216  0.1916
28125W        W46329  15.913  17.120  13.308  0.2425 -0.0050  0.0227
28126W        W46330  13.101   6.590   1.530 -0.0847 -0.2693 -0.3972
28127W        W46331   2.883  13.233  16.527 -0.0079  0.1846  0.2548
28128W        W46332   8.672  13.377  16.613  0.3687  0.0465  0.3472
28129W        W46333   0.598  15.577   4.178  0.1112 -0.2407 -0.3968
28130W        W46334   8.557  11.425  14.677 -0.2108  0.3136  0.0560
28131W        W46335  12.367   7.558   3.398  0.0290 -0.3128 -0.0219
28132W        W46336  12.452   0.594   3.916 -0.1023  0.1161  0.1007
28133W        W46337   5.373  11.154   1.706  0.2652  0.1888  0.2605
28134W        W46338   8.271   4.441   2.114  0.1561 -0.1538 -0.1025
28135W        W46339   0.164  15.503   3.825  0.1310 -0.0511  0.3110
28136W        W46340  10.631  12.533  10.790 -0.1003  0.4426  0.0488
28137W        W46341   1.251  10.903   1.025 -0.1236  0.0367 -0.0434
28138W        W46342   3.554   0.955   3.834  0.2536  0.0678 -0.2755
28139W        W46343  13.088   3.012  16.683  0.3532 -0.4088 -0.4274
28140W        W46344   0.540  13.043  14.066  0.3766 -0.1326  0.0580
28141W        W46345   4.343  13.433   4.899 -0.0773  0.1181 -0.0198
28142W        W46346   8.657  15.071   0.790  0.1094 -0.0349  0.0172
28143W        W46347  13.159  14.623  12.589  0.1187 -0.2130  0.1921
28144W        W46348   9.781  10.643  13.489  0.0439 -0.1468 -0.2848
28145W        W46349  12.610   7.373  17.047  0.2173  0.8255 -0.0121
28146W        W46350  11.606   6.390  13.238 -0.0217  0.0428 -0.0569
28147W        W46351  10.111  10.293  13.523  0.0177 -0.0781  0.0693
28148W        W46352   6.701  13.331   3.987 -0.0045 -0.1565 -0.1205
28149W        W46353   3.645   1.147  14.412  0.0868  0.0455  0.0739
28150W        W46354   5.807   9.327  13.302 -0.0576 -0.1720 -0.0898
28151W        W46355   8.044  14.652  12.543 -0.3999 -0.1954 -0.0504
28152W        W46356  13.946  14.489   0.860 -0.1651  0.2215 -0.0651
28153W        W46357   3.844  10.550   3.378  0.1988  0.0069  0.0511
28154W        W46358   5.090  13.675   0.817  0.0670 -0.0309  0.0954
28155W        W46359   3.404   6.038  16.411  0.0144 -0.0203 -0.1181
28156W        W46360   5.310   4.596   2.985  0.1489 -0.0983 -0.1929
28157W        W46361  17.020  17.418   2.841  0.2683 -0.0305  0.2952
28158W        W46362   8.912  14.038   0.381  0.0053  0.0050 -0.1326
28159W        W46363  10.531   9.468   0.538  0.2035 -0.1132 -0.1834
28160W        W46364  11.492   6.797   0.072 -0.1226 -0.2868  0.3951
28161W        W46365  16.931  10.005   0.595 -0.3371 -0.3368  0.1061
28162W        W46366   4.419   8.308  14.253  0.0797  0.1273 -0.2088
28163W        W46367  13.836   3.440  13.881  0.0601  0.0803 -0.0606
28164W        W46368   2.663  15.745  11.165  0.0621 -0.0318  0.2475
28165W        W46369  17.350   8.328   1.938  0.1992 -0.0115  0.2598
28166W        W46370   3.927   0.469   4.326  0.0059  0.1329  0.0792
28167W        W46371   1.031  16.500   1.422 -0.1181  0.1907  0.0951
28168W        W46372   6.769  16.599  13.825 -0.1137 -0.0519 -0.0094
28169W        W46373  14.790  15.552   0.902  0.0333  0.2651 -0.0596
28170W        W46374  11.856  15.024   2.593  0.0787 -0.2625  0.2541
28171W        W46375   2.013  16.510  17.278 -0.1243 -0.0296 -0.0484
28172W        W46376   3.500   3.049   3.280  0.2138  0.2336 -0.0446
28173W        W46377  17.322  12.318  14.763  0.2564 -0.2024  0.1859
28174W        W46378   4.383  17.457  12.779 -0.0842  0.0557 -0.2967
28175W        W46379   8.817   7.790  13.089 -0.2253 -0.0496  0.2667
28176W        W46380  13.437  14.100   2.634  0.1945  0.1337 -0.3671
28177W        W46381  14.256   0.973   4.076  0.2296  0.1205  0.1694
28178W        W46382  12.937   7.989   1.049  0.0389  0.1495  0.0372
28179W        W46383   0.809   4.357   1.034 -0.0019 -0.0577 -0.0155
28180W        W46384   4.871  17.328  15.585 -0.2172 -0.0853  0.0261
28181W        W46385  16.538   3.331   2.145 -0.3305  0.0792  0.0472
28182W        W46386  14.965   3.018  12.281 -0.0360 -0.1750  0.3104
28183W        W46387  11.017  10.017  13.031  0.0134  0.1482  0.2276
28184W        W46388   9.492   2.392   3.856 -0.0704  0.0302  0.2344
28185W        W46389   9.964  14.672   5.330  0.0784 -0.4092 -0.1580
28186W        W46390   6.617  10.584  13.178  0.0127  0.0275  0.1223
28187W        W46391   1.794   9.782  16.348  0.0735  0.1305 -0.1528
28188W        W46392  17.057   4.490   3.110  0.2703  0.0523  0.0317
28189W        W46393   2.191  11.366   1.106  0.1590 -0.1165  0.1166
28190W        W46394   9.986   3.028   5.103 -0.1214 -0.2054  0.1795
28191W        W46395   2.588  14.767  12.919  0.0170  0.3926  0.2902
28192W        W46396   4.032  10.869  13.272  0.1869 -0.1220  0.0733
28193W        W46397   2.644  13.647  16.461  0.0584 -0.0233 -0.1850
28194W        W46398   4.175   1.684   3.462 -0.1490  0.1325 -0.1047
28195W        W46399  10.837  14.022  16.451 -0.0065  0.0011 -0.0233
28196W        W46400  12.280   0.865  12.454  0.1626 -0.1742 -0.0522
28197W        W46401  12.340   5.535   3.946 -0.2762  0.4516  0.0830
28198W        W46402   7.088   7.700   0.157 -0.1134 -0.3500 -0.1795
28199W        W46403   1.294  15.994  13.160 -0.0794  0.1498  0.0473
28200W        W46404   0.797  10.829  15.417 -0.1456 -0.0680 -0.2740
28201W        W46405  12.302  15.614   3.998  0.0927 -0.0661 -0.0924
28202W        W46406  15.593   3.734   1.340 -0.0296  0.0366 -0.0897
28203W        W46407   9.838   3.809  13.594 -0.2576  0.0284  0.1663
28204W        W46408  15.201  10.154   4.620  0.2169 -0.1614 -0.0781
28205W        W46409  15.732   0.570  16.778 -0.0468 -0.1069  0.0516
28206W        W46410   9.059   6.260  14.495 -0.1415  0.3997 -0.0776
28207W        W46411   1.233  17.141  14.722 -0.0298 -0.2103  0.2966
28208W        W46412   9.959  17.414   1.278  0.2758 -0.0203 -0.1453
28209W        W46413  12.314   7.964   1.844 -0.1044 -0.1564 -0.1069
28210W        W46414  10.016   7.732   5.214 -0.0944  0.2733 -0.1219
28211W        W46415   9.284  10.355   5.519  0.0384  0.2384  0.1114
28212W        W46416   2.580   0.356   3.375  0.1564  0.1082  0.1288
28213W        W46417   7.161   0.936   3.530  0.2150  0.1708 -0.1139
28214W        W46418   2.206   1.846   1.277 -0.0718  0.2877  0.2143
28215W        W46419   9.398   0.041   2.023  0.2547 -0.1176  0.0782
28216W        W46420  10.787   7.420   2.188 -0.1099  0.1431 -0.1535
28217W        W46421  10.753  14.619   3.257  0.1104 -0.1565  0.2184
28218W        W46422   5.803   8.507   1.690 -0.0015 -0.1313 -0.1228
28219W        W46423   1.900   4.341   2.364 -0.2561 -0.6089  0.1144
28220W        W46424  16.650   2.415  15.999  0.2354 -0.2321  0.0274
28221W        W46425   5.966  16.681  17.125 -0.1023 -0.1802 -0.0928
28222W        W46426  14.811  15.323   4.505  0.1024  0.4572 -0.0513
28223W        W46427   9.315  14.274   0.077  0.0202 -0.1815 -0.1240
28224W        W46428   0.349   9.749   2.730  0.1321 -0.0733  0.2157
28225W        W46429  11.810  16.927  12.779  0.3012  0.0796 -0.1381
28226W        W46430  16.064  12.938  12.347 -0.1514 -0.4630 -0.0016
28227W        W46431  15.725  10.279  11.901  0.0311 -0.1810 -0.0667
28228W        W46432  14.411   1.932  16.618  0.1345  0.0887  0.1327
28229W        W46433  16.551  17.330   4.267 -0.2095  0.1410  0.3163
28230W        W46434   5.913  10.911  14.595  0.1094  0.0463  0.0437
28231W        W46435   7.898   7.142   4.320 -0.0971 -0.0151  0.3223
28232W        W46436   4.401   8.543  16.012 -0.2600 -0.2980 -0.0584
28233W        W46437   3.352   5.191   4.029 -0.0106 -0.0556 -0.1986
28234W        W46438   3.618  16.483   2.145  0.0994  0.0953  0.0708
28235W        W46439   2.382  15.336   2.892  0.1909  0.1862 -0.4104
28236W        W46440   3.004  12.658  15.525  0.4671 -0.1248 -0.1119
28237W        W46441   5.673  10.108   1.468 -0.2561 -0.0885 -0.0959
28238W        W46442   2.397  15.228   2.425  0.0900 -0.1539  0.2208
28239W        W46443  10.882   3.409   1.002  0.1905 -0.3600 -0.0793
28240W        W46444   2.657   0.978   3.392  0.1803 -0.0868 -0.1389
28241W        W46445   3.876  13.546   4.876 -0.0322  0.1978  0.2279
28242W        W46446   1.609   0.164   1.717 -0.1585 -0.1651 -0.0261
28243W        W46447   5.918   3.996  14.368 -0.3744  0.0520 -0.1905
28244W        W46448  10.148   5.335   4.381  0.0578 -0.0678 -0.1515
28245W        W46449  16.651   9.651   0.876  0.0071 -0.0739  0.3875
28246W        W46450  13.152   1.478  14.848 -0.3355  0.0722  0.1446
28247W        W46451  13.664   2.378   0.579  0.0086 -0.0215 -0.0470
28248W        W46452   0.322   7.475  10.970 -0.5246 -0.0032 -0.0733
28249W        W46453  11.987   5.812   1.309 -0.1064 -0.0639 -0.0766
28250W        W46454   0.306  13.308   1.136  0.1670 -0.0096  0.1159
28251W        W46455   4.596  13.598   0.985 -0.0824 -0.3025 -0.0831
28252W        W46456   5.192   6.847   5.299  0.2685 -0.2498  0.1828
28253W        W46457  11.430  10.432   0.655 -0.2029  0.0212  0.0970
28254W        W46458   6.029   6.613   3.345 -0.1268  0.0227  0.2078
28255W        W46459  16.455   4.762   1.308  0.0675  0.1206  0.0499
28256W        W46460   3.500   1.844   2.714  0.3251 -0.3442  0.4102
28257W        W46461  15.697   2.572  16.278 -0.1743  0.0717  0.0754
28258W        W46462  15.534   5.493   5.902  0.1304 -0.1515  0.3177
28259W        W46463   3.883  14.944  12.140  0.1478 -0.0689  0.2605
28260W        W46464   1.779   7.751   5.089 -0.1265 -0.1828  0.3069
28261W        W46465  11.233   3.710   0.338 -0.1690  0.2399 -0.2169
28262W        W46466  13.294   0.026   2.507  0.3393  0.1810  0.2663
28263W        W46467   6.110  15.585   3.126  0.1007  0.1591 -0.3657
28264W        W46468  14.109   8.256  13.419 -0.0194 -0.2669  0.0502
28265W        W46469   4.876  12.142   0.875 -0.0028 -0.2005 -0.3739
28266W        W46470   5.344  12.075   0.713  0.1260 -0.2410 -0.0496
28267W        W46471   2.426  16.607   4.098 -0.1728 -0.0149 -0.3608
28268W        W46472  13.553   8.081   3.295 -0.2590 -0.0630 -0.2530
28269W        W46473   9.515   4.679  12.955  0.3275 -0.0561 -0.2540
28270W        W46474  11.638  11.959  15.835  0.2121  0.0914 -0.0059
28271W        W46475   2.905  16.400   0.901  0.0041 -0.0343 -0.1330
28272W        W46476   6.060   8.751   2.277 -0.0590  0.4915 -0.2038
28273W        W46477  10.672   7.486  16.308 -0.2782 -0.0119 -0.2069
28274W        W46478   8.206   3.770  14.174  0.1643  0.0112 -0.0599
28275W        W46479  12.133   3.757   6.308  0.1713 -0.0854  0.0987
28276W        W46480   8.924   1.473   4.452  0.3751 -0.0927 -0.2533
28277W        W46481   9.065   3.399   2.614 -0.0347  0.1468 -0.1102
28278W        W46482   9.224  15.544  17.142  0.0299  0.1497 -0.3838
28279W        W46483  16.187  16.249   3.966  0.2594 -0.0391  0.0501
28280W        W46484   6.852  14.814  15.389 -0.0992 -0.1584  0.0380
28281W        W46485   5.257  14.559  17.079  0.1536  0.0306 -0.3179
28282W        W46486   4.217  15.758   2.640 -0.0141 -0.0024 -0.2637
28283W        W46487   4.237   2.428   5.133  0.1037  0.0011  0.0414
28284W        W46488  13.689  17.288  13.242  0.2663 -0.2030  0.1443
28285W        W46489   7.608   6.298  13.487 -0.1596  0.0862  0.1727
28286W        W46490  10.299  10.731  14.939  0.1950 -0.3305 -0.0436
28287W        W46491  11.824   7.718  13.213  0.1386 -0.3792 -0.1017
28288W        W46492   1.654   5.761  13.342  0.0025  0.0763 -0.2306
28289W        W46493  10.076  15.469   1.055 -0.1068 -0.0053 -0.0769
28290W        W46494   1.715  16.234  13.345 -0.1195  0.1747 -0.0273
28291W        W46495  16.669  14.961   0.240 -0.0520  0.1128 -0.1500
28292W        W46496   1.836  11.909   2.740  0.1153 -0.1502  0.2378
28293W        W46497   4.714   0.316   3.627  0.0981  0.1402 -0.0700
28294W        W46498  14.774  12.395  14.410 -0.3150 -0.1515 -0.2041
28295W        W46499  16.922  10.605   4.925 -0.0287 -0.1468 -0.2590
28296W        W46500  16.335  13.003   5.353  0.0610  0.1305  0.2382
28297W        W46501   9.246   0.683   2.698  0.3853  0.1782 -0.1392
28298W        W46502  15.531   1.938   2.123  0.3768  0.1484 -0.0168
28299W        W46503  14.472   6.097  12.321 -0.0295  0.1926  0.0137
28300W        W46504   5.840   7.879   4.759  0.0887 -0.0731  0.3498
28301W        W46505  11.471  14.210  16.306  0.1199 -0.0772  0.3578
28302W        W46506   0.765   4.943  13.610  0.1896 -0.1267 -0.0269
28303W        W46507   5.898   4.022   3.358  0.0215  0.2769  0.3023
28304W        W46508   2.344   7.054  16.495  0.0835 -0.2302 -0.1408
28305W        W46509  13.702  11.901  13.335 -0.0870 -0.1145 -0.0370
28306W        W46510  10.289   6.271  13.754  0.5259 -0.2410  0.1235
28307W        W46511   8.850   2.851   2.970 -0.1917 -0.0033  0.2737
28308W        W46512   6.924   9.054  12.530 -0.4682 -0.0355  0.1678
28309W        W46513  10.327   5.652   2.626  0.1122  0.1525  0.2151
28310W        W46514  12.081   0.437  12.175 -0.2366 -0.0388  0.3074
28311W        W46515   7.449  12.768   2.595 -0.1064  0.1621  0.2046
28312W        W46516  10.175  13.009  12.255 -0.0262 -0.0254 -0.2630
28313W        W46517   5.861   5.143   4.989 -0.0102 -0.0256  0.2277
28314W        W46518  13.479   6.379  15.537 -0.0269 -0.0111 -0.0700
28315W        W46519  15.043   0.699  15.659  0.0584 -0.2374  0.0727
28316W        W46520  11.549  16.473   5.370 -0.1429  0.0563 -0.2002
28317W        W46521   9.899  17.263   0.714 -0.1348 -0.3842  0.0864
28318W        W46522   6.437   3.928  14.221 -0.3829  0.2248  0.3295
28319W        W46523   3.608   4.934  12.356 -0.2030 -0.1018 -0.0801
28320W        W46524   3.796   9.024  12.985  0.0643  0.1833 -0.1055
28321W        W46525   3.024  12.011   4.183 -0.1376  0.2777 -0.1217
28322W        W46526   2.730  14.179   0.430  0.4530 -0.0194 -0.0765
28323W        W46527  10.108  17.383  15.565 -0.0205 -0.0865 -0.2022
28324W        W46528   1.721  14.365  14.399 -0.1163 -0.0856 -0.0293
28325W        W46529   7.965   3.279  12.442  0.1643 -0.0149  0.0358
28326W        W46530   7.844   9.755  13.010 -0.0983 -0.2226 -0.2581
28327W        W46531  13.843   6.664  17.210 -0.1202  0.0301  0.2110
28328W        W46532  16.550  16.860   1.469 -0.2528  0.1062  0.5853
28329W        W46533   3.182  17.216   3.777 -0.2254 -0.0199 -0.2591
28330W        W46534  15.207  13.336   0.637 -0.2328  0.3194  0.3420
28331W        W46535  12.755  11.716   1.514  0.1277  0.1119  0.2261
28332W        W46536   3.740  13.260  13.947  0.0733 -0.0843  0.0265
28333W        W46537  11.375  13.744  16.479 -0.3697  0.1044  0.0330
28334W        W46538   6.972   1.112   3.078  0.0504 -0.0960 -0.2377
28335W        W46539   3.301   5.745  12.065  0.0062  0.4293 -0.2306
28336W        W46540  11.463  11.997  13.344  0.1094  0.0867  0.2120
28337W        W46541   9.068   9.879   4.198  0.1885  0.0326 -0.3536
28338W        W46542   7.190  15.181  16.096 -0.3107  0.1623 -0.1292
28339W        W46543   1.758   6.991   0.355  0.1063 -0.0380 -0.2520
28340W        W46544   7.740  12.768  14.101 -0.1411  0.2289 -0.1381
28341W        W46545   4.555   9.017  15.880 -0.0751  0.0220 -0.0517
28342W        W46546  16.911  16.707   4.064 -0.2294 -0.2066 -0.1215
28343W        W46547   1.638  10.073   1.823  0.1588  0.3350  0.1092
28344W        W46548   0.021   4.499   4.481  0.1125 -0.0347  0.0053
28345W        W46549   4.285  11.542  16.737  0.0137 -0.0320 -0.1485
28346W        W46550   4.678  14.122   3.066 -0.0902  0.3830  0.0985
28347W        W46551   8.660   3.145  15.369 -0.4603  0.0514 -0.1117
28348W        W46552   2.484  14.436  13.786 -0.0221  0.0450  0.1151
28349W        W46553  12.734  11.264   1.172  0.1868 -0.1664 -0.1540
28350W        W46554   8.547  10.378   4.610 -0.0996 -0.1184 -0.0802
28351W        W46555  13.312  11.080  13.669  0.0411 -0.1343 -0.1133
28352W        W46556  16.731   1.347   4.000 -0.0578 -0.0878 -0.1441
28353W        W46557   5.205   0.137  14.191 -0.0662 -0.1560 -0.2346
28354W        W46558   1.747  11.787  15.592 -0.5246 -0.1733  0.0442
28355W        W46559   9.507   6.940  11.892  0.0830 -0.1232 -0.0710
28356W        W46560  11.663   1.329   2.224 -0.1219 -0.1777  0.0414
28357W        W46561  13.141   4.049   3.442  0.0214 -0.1081  0.0290
28358W        W46562   9.746   4.097  15.081  0.0619  0.1944 -0.3549
28359W        W46563  14.635   9.194   3.057 -0.1742 -0.2653 -0.1435
28360W        W46564   5.333   4.823  14.022 -0.1549  0.2285 -0.2410
28361W        W46565  17.291  13.355  14.519  0.2183 -0.0681 -0.2443
28362W        W46566   2.818   8.908   0.179  0.2797  0.1960  0.0816
28363W        W46567   1.904   7.080   1.518  0.0970  0.1347  0.2264
28364W        W46568  16.145  13.197  13.758  0.0294  0.2449  0.1327
28365W        W46569  12.316   2.690  12.606  0.2624 -0.2109  0.0374
28366W        W46570   0.005   0.456   3.351  0.1301  0.2702  0.0382
28367W        W46571  14.232  10.591  13.405 -0.2305  0.1457  0.5096
28368W        W46572  12.070   4.004   1.263 -0.0601  0.1790 -0.2831
28369W        W46573  10.878   8.201  15.613  0.0518  0.1141  0.0312
28370W        W46574   3.466   2.582  15.510 -0.2832 -0.0289 -0.0769
28371W        W46575  13.176  15.644  16.352  0.1152  0.2943 -0.1164
28372W        W46576   4.952   1.252   3.430  0.2225  0.0347 -0.1737
28373W        W46577   0.425   2.052   1.988  0.0601 -0.1758  0.4470
28374W        W46578  13.294   4.102   5.442 -0.1874 -0.3118  0.3105
28375W        W46579   0.882  15.520  12.569  0.1044  0.0860  0.1061
28376W        W46580   1.343   5.866  16.399 -0.0455  0.4212 -0.0614
28377W        W46581  16.113  15.399  15.323 -0.0607  0.0039 -0.3487
28378W        W46582  12.144  15.930  15.380  0.0411  0.1767  0.0763
28379W        W46583   0.694   6.905  13.460  0.2745 -0.1869  0.1012
28380W        W46584  10.042  13.306  17.146 -0.1734  0.0401  0.2140
28381W        W46585  14.523   3.643   1.648  0.3801 -0.3490  0.0315
28382W        W46586   0.479  16.930  15.204  0.2627 -0.1233  0.0402
28383W        W46587  14.406  13.940   4.603 -0.1065 -0.1018  0.0040
28384W        W46588   1.063   2.100   3.538 -0.1645 -0.2991 -0.2079
28385W        W46589  10.954  14.022  15.069  0.1483  0.0327  0.0900
28386W        W46590  14.373  11.770  15.201 -0.0210  0.4722  0.0979
28387W        W46591  14.706   3.187   3.654 -0.2465 -0.0858  0.1599
28388W        W46592  15.196   5.664  13.102  0.1976  0.0518 -0.2109
28389W        W46593   4.614  13.293  14.346 -0.0730  0.1284 -0.2134
28390W        W46594  11.642   5.535  16.975 -0.0717 -0.0834 -0.2476
28391W        W46595   2.250  10.286  12.534 -0.3113 -0.0480 -0.1845
28392W        W46596  12.412   2.163   0.048  0.1638 -0.0460  0.0137
28393W        W46597   1.411   9.464   4.096 -0.1270  0.0943 -0.0827
28394W        W46598   3.224  10.709   1.376  0.1135 -0.2096 -0.1172
28395W        W46599  10.901   4.865   1.526 -0.0799  0.0026  0.1874
28396W        W46600  13.129   0.559  14.909  0.0874 -0.0886 -0.2024
28397W        W46601  16.826   4.552  12.341  0.1628 -0.0167  0.0483
28398W        W46602  10.467   6.203  16.767  0.0140  0.1781 -0.0156
28399W        W46603   2.349   2.314   5.188  0.0366  0.2157 -0.0103
28400W        W46604  17.122   4.994  12.572  0.2248 -0.2845  0.1392
28401W        W46605   3.319   9.855  15.300 -0.2170  0.0339 -0.5143
28402W        W46606  11.756  14.242   1.272 -0.1576  0.1234 -0.2654
28403W        W46607  14.274  15.232   4.734  0.3102  0.0862 -0.0690
28404W        W46608   3.075   7.321   2.012  0.0316 -0.1146 -0.1250
28405W        W46609   4.355  16.779   1.029 -0.4511  0.0002 -0.2768
28406W        W46610  13.215   6.248  14.559 -0.1474  0.1929 -0.2907
28407W        W46611   7.699   2.497  13.382  0.2086  0.0347 -0.3162
28408W        W46612   3.367  15.475   5.368  0.1477  0.0304  0.1318
28409W        W46613  16.551  12.815  12.310 -0.3287  0.2902 -0.1348
28410W        W46614   9.232  14.976  12.148 -0.0571 -0.1995 -0.0015
28411W        W46615  13.298   0.148  13.483  0.1585  0.1332  0.0187
28412W        W46616   2.263   8.910   3.809  0.0249 -0.3227 -0.2299
28413W        W46617  15.416   0.295   2.171  0.1553  0.1326 -0.1488
28414W        W46618  13.465  10.197  14.596 -0.2009  0.1842  0.3606
28415W        W46619   9.719   5.826  15.692  0.1764 -0.0009  0.0197
28416W        W46620   3.115  15.642   2.028  0.1922 -0.0608  0.4675
28417W        W46621   3.796   0.866   1.546 -0.1338 -0.2736  0.3966
28418W        W46622  11.514   9.719  12.656 -0.0483 -0.0809 -0.1358
28419W        W46623   3.998  12.787   0.933 -0.0795  0.0255 -0.1045
28420W        W46624   6.336  11.324  16.066  0.0206 -0.3434 -0.2413
28421W        W46625  15.532   9.948   0.010 -0.0248 -0.3668  0.0359
28422W        W46626   3.098   0.381  16.125  0.3143  0.1998  0.1509
28423W        W46627  13.423  15.632  15.879  0.1794  0.0122 -0.4583
28424W        W46628   7.522  13.204  15.409 -0.0927  0.1996 -0.0499
28425W        W46629  12.209   8.726  13.444  0.4188  0.1130  0.1839
28426W        W46630   6.145  16.388  13.313 -0.1709 -0.1266 -0.1779
28427W        W46631   0.933   9.351  15.056  0.1934  0.2536  0.0244
28428W        W46632  11.066  15.896  13.741 -0.1922  0.1812  0.0511
28429W        W46633  11.874   0.759  14.757  0.1145  0.4276  0.0073
28430W        W46634  11.804  17.232   2.067 -0.0395 -0.0668 -0.1695
28431W        W46635   3.092  16.812   3.101 -0.1967  0.0352 -0.2331
28432W        W46636   2.628  10.660   0.468 -0.0145 -0.1370 -0.0126
28433W        W46637  13.684   8.437  14.215  0.1972 -0.1985  0.0013
28434W        W46638   7.270   1.586  13.488 -0.0785  0.1306 -0.1639
28435W        W46639   4.779  13.351   0.189 -0.2119 -0.0451  0.1437
28436W        W46640   4.324   9.354   0.697 -0.3594  0.0085  0.0982
28437W        W46641  11.536  10.371   0.137 -0.3668 -0.0176 -0.0536
28438W        W46642   9.412  15.343   3.778  0.3549 -0.1896 -0.0091
28439W        W46643  12.560   1.300   5.223 -0.0525  0.0360  0.2146
28440W        W46644  13.775   6.445  13.683 -0.1558 -0.0578  0.0315
28441W        W46645  12.722   8.675   3.170 -0.5042  0.0262 -0.0304
28442W        W46646   4.552   5.213  13.924 -0.1700 -0.2245 -0.1500
28443W        W46647   9.326   3.069  15.282 -0.0215 -0.0117  0.0577
28444W        W46648  16.543   6.647  12.925  0.0951 -0.1827  0.2178
28445W        W46649   6.448   7.193  16.851 -0.0787 -0.1744  0.2017
28446W        W46650   1.085   0.703  11.826 -0.0719  0.1831 -0.3437
28447W        W46651  16.935  10.644   2.693 -0.1184  0.0862  0.2113
28448W        W46652  14.299   1.086   0.507 -0.1671  0.0990 -0.1766
28449W        W46653  10.244   9.925  16.692  0.1774 -0.0791  0.0507
28450W        W46654  13.889   0.457  15.455  0.1780  0.0556 -0.0212
28451W        W46655  12.789  16.802  11.423 -0.0591 -0.5180  0.2675
28452W        W46656   1.027  13.107  15.990  0.0007 -0.0397 -0.2505
28453W        W46657  11.965   7.214  13.104  0.0109 -0.1507  0.0838
28454W        W46658  13.510   1.709   4.882 -0.0760  0.0734  0.1640
28455W        W46659   8.115  16.446   0.366 -0.0680  0.2088  0.1274
28456W        W46660   1.385   4.148  13.492 -0.1196  0.0717  0.0479
28457W        W46661  11.224  15.100   4.564  0.1778 -0.3627 -0.0346
28458W        W46662   6.626   8.980   4.861  0.0360 -0.0345  0.1738
28459W        W46663   2.894  12.423  13.120 -0.1945 -0.2536 -0.0300
28460W        W46664  12.861  12.476  13.606  0.0290 -0.1294 -0.0954
28461W        W46665  11.885  13.540  15.155 -0.4190  0.1069  0.0470
28462W        W46666  13.919  11.712  15.051  0.1167 -0.1306  0.2737
28463W        W46667  13.450   3.591   1.907  0.0520  0.1075  0.2081
28464W        W46668  12.966   4.642   4.985 -0.4182  0.2313  0.2256
28465W        W46669   4.535  16.678  17.186  0.2102  0.3136 -0.0932
28466W        W46670   4.240  12.459  15.038  0.2603 -0.0406  0.2092
28467W        W46671   9.783  12.559   2.282  0.0969 -0.1196  0.0024
28468W        W46672   4.109  14.549  13.062  0.3747 -0.1289 -0.1454
28469W        W46673  15.700   9.338   4.352 -0.1668  0.0830  0.0958
28470W        W46674  14.900   4.833  15.340 -0.0124 -0.0635  0.2132
28471W        W46675  13.004   9.089  13.929 -0.2798  0.4212  0.1340
28472W        W46676   9.352  10.573   2.508  0.0447  0.2506 -0.0242
28473W        W46677   3.441   5.232  11.931 -0.0362 -0.3656  0.2547
28474W        W46678   3.226  11.617  13.380  0.1738  0.0993  0.3400
28475W        W46679   6.758   8.372   2.967  0.1814  0.1168 -0.0538
28476W        W46680   5.451   8.262  12.329 -0.1648 -0.0189 -0.2190
28477W        W46681  16.136  14.843   0.123 -0.4494  0.2696 -0.1211
28478W        W46682  14.143   3.843  13.754  0.1245  0.2099  0.1506
28479W        W46683  14.580  17.360  12.219  0.4043  0.3490  0.2039
28480W        W46684   2.709  10.237  12.242 -0.1475 -0.1347  0.3672
28481W        W46685   7.627  11.441  13.626 -0.5049  0.0581 -0.1144
28482W        W46686   2.404   1.274   5.119 -0.0240 -0.1036 -0.1932
28483W        W46687   2.003  14.690  15.176 -0.1199 -0.1931  0.0274
28484W        W46688   3.804   9.844  15.024 -0.0705 -0.0877  0.1074
28485W        W46689   0.397   7.720  16.841  0.1325  0.1368  0.1091
28486W        W46690   2.518  16.924   1.109  0.0831  0.2467  0.1577
28487W        W46691   9.832  10.559   4.021 -0.0460  0.1206  0.2905
28488W        W46692  11.192  11.140  14.512 -0.2446  0.0926  0.0019
28489W        W46693   4.711  10.631  16.517  0.0601 -0.0442  0.3519
28490W        W46694  15.365   7.714  13.275  0.4005 -0.2186 -0.0226
28491W        W46695   3.421   7.663  13.911  0.1532 -0.0057  0.2842
28492W        W46696  10.232   8.404  11.620 -0.1681  0.0528 -0.1271
28493W        W46697  17.374   2.651  15.491  0.2531  0.0455  0.1733
28494W        W46698   7.161   4.761  14.125  0.1290 -0.2700  0.1906
28495W        W46699  11.873   1.434  15.763  0.1638  0.1935 -0.0608
28496W        W46700  13.608  16.497   4.631 -0.0409  0.0788 -0.1519
28497W        W46701  12.984   9.127   2.194 -0.0767  0.0704 -0.1646
28498W        W46702  16.563   9.272   2.370  0.1382  0.3289 -0.1287
28499W        W46703  12.964   8.138  16.532  0.0409  0.0149 -0.0605
28500W        W46704  15.988   7.854   2.245  0.1445  0.0170 -0.4579
28501W        W46705  12.003  11.509  11.441 -0.2466 -0.1842 -0.1235
28502W        W46706   6.434   3.007   3.196  0.1432  0.0692  0.2132
28503W        W46707  11.261  16.348   4.463 -0.1346 -0.0987 -0.0426
28504W        W46708   6.828  15.207  16.454 -0.0109  0.2631 -0.1345
28505W        W46709   1.948  16.735   4.948 -0.0434  0.1206  0.0889
28506W        W46710   4.719   5.161  17.138 -0.3090 -0.1495 -0.2914
28507W        W46711  17.312  14.373   0.741  0.1354 -0.4498 -0.1840
28508W        W46712   1.271  16.044   3.205  0.1422  0.1328 -0.0182
28509W        W46713  10.357  13.743  12.534 -0.2533  0.4462  0.0736
28510W        W46714  14.579  13.772   0.970  0.0756 -0.1976  0.2342
28511W        W46715  12.430   1.919  15.248  0.0933  0.0432 -0.2398
28512W        W46716   6.050   3.522  14.145 -0.0040 -0.0698  0.0208
28513W        W46717  16.028  12.258  16.081  0.0161  0.1481 -0.1299
28514W        W46718  16.780  11.121  12.369 -0.0737  0.2160  0.2175
28515W        W46719  10.089  11.605  12.797  0.0073 -0.0672  0.2218
28516W        W46720  10.481  13.708   4.088 -0.1106 -0.1416  0.0811
28517W        W46721  11.221   4.757   3.870  0.3703  0.0613 -0.2621
28518W        W46722   5.666   5.879   2.648  0.2802  0.2124 -0.1426
28519W        W46723   5.547   1.075  13.992 -0.1185  0.0313 -0.1756
28520W        W46724  14.294  12.406   5.556  0.0108 -0.1493 -0.0796
28521W        W46725  17.085  16.714   0.811 -0.0655 -0.0775 -0.1387
28522W        W46726   5.218   1.312  16.515 -0.1087  0.0193 -0.0319
28523W        W46727   3.876   6.457   0.799  0.0773  0.0902 -0.0007
28524W        W46728  15.312  10.432   3.254 -0.2925 -0.1118 -0.2604
28525W        W46729   3.042   6.983   4.619  0.0642  0.0187  0.0794
28526W        W46730   1.806   5.636  17.265 -0.1415  0.0075 -0.0996
28527W        W46731  17.223   8.811  13.647 -0.0156  0.0484 -0.0858
28528W        W46732   7.037  17.454  16.096 -0.2886 -0.1171 -0.1166
28529W        W46733  13.128  14.988   4.224 -0.1326  0.1328  0.0913
28530W        W46734   7.073   8.264   0.257  0.0555 -0.2911 -0.2057
28531W        W46735  12.656   6.319  14.922  0.1704 -0.0052 -0.1075
28532W        W46736   5.767   7.162  14.523  0.0333 -0.0243  0.3348
28533W        W46737   7.737   6.393   0.551  0.0709 -0.0324 -0.0115
28534W        W46738   7.343   3.258   0.619  0.0540 -0.1014 -0.0459
28535W        W46739   5.513  12.102  16.190  0.1241 -0.1822 -0.1172
28536W        W46740   6.182  15.285   0.398 -0.1050  0.1832 -0.3959
28537W        W46741   4.465   7.596  11.683 -0.1060 -0.2671  0.1549
28538W        W46742   5.704  17.118  16.188  0.1847 -0.0111  0.0174
28539W        W46743  16.650  16.210  12.598  0.2625 -0.0510  0.1774
28540W        W46744   5.225  17.364  15.946  0.1928  0.1084  0.0956
28541W        W46745  13.239   7.440   4.503 -0.1049  0.1879  0.0024
28542W        W46746  11.439   3.929  15.414 -0.2008 -0.1322  0.1105
28543W        W46747   3.167   6.351   1.316  0.1874  0.0646 -0.0317
28544W        W46748   5.346  10.293  12.583  0.0726  0.2219 -0.0528
28545W        W46749  14.425  12.413   3.031  0.3717  0.1435 -0.4078
28546W        W46750  15.953  11.685  12.980  0.1789 -0.1728 -0.0441
28547W        W46751  15.027   1.184   2.240  0.2234  0.0267  0.2613
28548W        W46752   6.390   6.473  16.180  0.0580 -0.2554  0.1136
28549W        W46753  11.682   8.667  13.735 -0.1248  0.0383 -0.1067
28550W        W46754  12.233  17.023   0.084  0.2001  0.3080 -0.3843
28551W        W46755   3.884  16.155   0.458 -0.0780  0.0672 -0.2542
28552W        W46756   6.238   4.282  11.793  0.0295 -0.0792  0.0240
28553W        W46757   7.753  12.751   5.036  0.2737 -0.0866  0.0472
28554W        W46758   7.829  12.301   4.804 -0.3423 -0.2288  0.3220
28555W        W46759  15.010  17.121   0.300 -0.0971  0.2251  0.1618
28556W        W46760   6.630  10.861   0.607  0.1209 -0.0618 -0.3264
28557W        W46761  10.814   4.338  14.510  0.0379  0.1750 -0.1214
28558W        W46762  13.305   7.632  14.031 -0.1483  0.0940 -0.2654
28559W        W46763   4.109   8.612  11.692  0.2441 -0.1366  0.0495
28560W        W46764   7.097   7.785  11.981  0.1256 -0.3070 -0.2224
28561W        W46765  10.510   1.208  13.886  0.1787 -0.1036  0.1019
28562W        W46766   9.974   5.153   4.784  0.2207 -0.3174 -0.3678
28563W        W46767   7.402  15.480  14.028  0.4292 -0.2458 -0.2608
28564W        W46768   9.401  16.665   4.409  0.2138  0.1045 -0.1610
28565W        W46769   4.287   2.099   0.107 -0.2353 -0.3364 -0.0058
28566W        W46770   9.260   3.031  12.735 -0.0887  0.0060  0.0959
28567W        W46771   3.477   3.207  15.817 -0.0398  0.1331  0.1743
28568W        W46772   1.780   8.198   2.745 -0.1175  0.5091 -0.2389
28569W        W46773   5.677  11.121   1.296 -0.2083  0.0116 -0.0821
28570W        W46774  12.847  11.234  13.869 -0.2022 -0.0880  0.0505
28571W        W46775  10.480  12.240  16.488 -0.3501 -0.2924 -0.3727
28572W        W46776   0.702  13.285  13.104 -0.3648 -0.3180 -0.2154
28573W        W46777   5.458   4.780  12.241  0.0907 -0.2172 -0.2194
28574W        W46778   2.783  10.847   1.229  0.0428 -0.1422  0.0626
28575W        W46779   6.309  11.794   4.462  0.0831 -0.0526  0.1820
28576W        W46780   1.877  14.014  14.719  0.1912 -0.0345  0.2764
28577W        W46781   5.873   9.383  11.980  0.1178 -0.1305 -0.2230
28578W        W46782   3.764  11.430  12.113  0.3327  0.2618 -0.2003
28579W        W46783   4.614  11.415  17.054 -0.2554  0.2171  0.2850
28580W        W46784  10.165  10.577   0.174 -0.0878  0.1251 -0.0914
28581W        W46785   0.008   1.616  15.561 -0.0762 -0.1465 -0.0816
28582W        W46786  14.540   4.239   3.023 -0.0899 -0.0754 -0.0547
28583W        W46787   8.430  11.300   3.834 -0.0437 -0.3314 -0.0251
28584W        W46788   0.321  13.994  11.982 -0.0175  0.2827 -0.5794
28585W        W46789  14.890  11.225  15.651  0.2542 -0.0184 -0.0283
28586W        W46790   4.517  15.304   0.834 -0.0156 -0.2724 -0.0246
28587W        W46791   6.517   4.251  13.862  0.3998  0.0898 -0.1108
28588W        W46792   1.345   4.285  13.037  0.2452  0.2072  0.0989
28589W        W46793  12.617   0.239   1.764 -0.2655  0.1001 -0.0155
28590W        W46794   0.102   8.555  13.654 -0.1589 -0.0024  0.2248
28591W        W46795   3.804   4.471   0.899  0.2940  0.3443 -0.0580
28592W        W46796   8.985  10.308  16.419 -0.1880 -0.0166  0.1326
28593W        W46797   9.827   1.668  12.543  0.1252 -0.1799 -0.1540
28594W        W46798   5.463   5.704   3.409 -0.1104  0.3891 -0.1152
28595W        W46799  16.222   7.542  14.747  0.2140 -0.0539 -0.0977
28596W        W46800  15.514   0.848  16.002  0.0647  0.3170 -0.0052
28597W        W46801   0.960   9.161  14.521  0.2720 -0.1815 -0.1167
28598W        W46802   8.806  15.951   0.635  0.0223 -0.1171 -0.0408
28599W        W46803   8.803   2.873  12.635  0.3386 -0.1725  0.0579
28600W        W46804   2.394  10.869  14.977  0.1683 -0.1846 -0.0346
28601W        W46805   2.119   2.954   1.998  0.2564 -0.0094  0.1524
28602W        W46806   3.629  12.009   1.292 -0.0070  0.0350  0.1214
28603W        W46807  17.224  11.454   1.214 -0.0781  0.1483 -0.0843
28604W        W46808   9.624  16.143   4.280 -0.0780  0.0835  0.3095
28605W        W46809  16.439  11.831  12.633 -0.0703  0.2147  0.3275
28606W        W46810   0.315   4.034   4.121  0.0552  0.3528  0.0253
28607W        W46811   2.559   0.790   1.439  0.1520 -0.1065 -0.1588
28608W        W46812   6.233   9.392  14.498 -0.1605 -0.1444 -0.4489
28609W        W46813  11.876   4.687   1.302  0.1714  0.0797 -0.0357
28610W        W46814   9.562   7.151   4.391  0.0928 -0.0872  0.2365
28611W        W46815   1.286  13.032  12.016 -0.0686 -0.0209  0.2340
28612W        W46816   5.060  15.302  13.824 -0.0947 -0.3021  0.1822
28613W        W46817   7.057  11.689  16.507 -0.2308 -0.0611 -0.0536
28614W        W46818  16.368   4.017  13.992  0.2752  0.0266  0.0026
28615W        W46819  17.405  15.744   2.003  0.0597 -0.1546  0.1160
28616W        W46820  10.439  10.743  13.384  0.0552 -0.1516  0.4521
28617W        W46821   1.823   7.038  16.259 -0.0870  0.1288 -0.0042
28618W        W46822  12.237   0.918  16.371  0.0836 -0.0072 -0.2571
28619W        W46823   9.905   0.072   2.969 -0.1691  0.0737  0.0759
28620W        W46824   0.010  15.595  14.259  0.4238 -0.0656 -0.1290
28621W        W46825   5.596  13.803   5.098 -0.1691 -0.0442 -0.0574
28622W        W46826  12.854   5.380   0.688 -0.1698  0.0470 -0.0613
28623W        W46827   1.122   1.369   5.089 -0.0652  0.3850 -0.0201
28624W        W46828   1.001  16.627   4.925  0.2600  0.3315 -0.0932
28625W        W46829  10.336  13.035   4.821  0.5333 -0.3320 -0.2420
28626W        W46830  14.626   5.761  17.046 -0.1021  0.0726 -0.1245
28627W        W46831   1.102  12.171   2.925  0.2844 -0.1521  0.3466
28628W        W46832   9.406  14.839   3.769 -0.0925  0.2052  0.3248
28629W        W46833   4.985  12.413   2.638  0.3016 -0.0277  0.2642
28630W        W46834  10.830  13.064   5.661  0.1883  0.1977 -0.1257
28631W        W46835  13.914  13.199  13.452 -0.0327 -0.0413 -0.3145
28632W        W46836   9.147  17.250  12.580 -0.0250  0.2879  0.0819
28633W        W46837   4.754  13.726  12.975  0.2634  0.2585 -0.1022
28634W        W46838   5.858   1.273   4.812  0.4469  0.0816 -0.0406
28635W        W46839   6.305  10.414  15.468 -0.2779 -0.0212 -0.2023
28636W        W46840   7.555  11.697   4.266 -0.1314 -0.1897  0.2987
28637W        W46841   4.629  15.079  16.040  0.1482  0.3991  0.0117
28638W        W46842  11.377  15.227  16.573  0.3143  0.0383 -0.2698
28639W        W46843   0.874   4.899   0.323  0.1190 -0.1064 -0.2485
28640W        W46844   3.290  11.278  12.919  0.1235 -0.0982  0.1296
28641W        W46845  14.713   1.926   0.268 -0.3350 -0.2998 -0.2148
28642W        W46846   3.901   1.322   3.141  0.3343  0.0045 -0.4926
28643W        W46847  14.062  14.134   0.013  0.2768 -0.1042  0.1334
28644W        W46848  10.069  10.633  11.450 -0.0476  0.3654  0.0109
28645W        W46849  14.171  14.215  16.093  0.0504  0.1086 -0.0594
28646W        W46850   3.097   5.247  13.932  0.0336 -0.4575  0.1816
28647W        W46851  16.555   3.137   5.358  0.0335  0.2321  0.0832
28648W        W46852   0.392  13.971  14.280  0.0410 -0.2564  0.4814
28649W        W46853   0.325   6.772  15.043 -0.2257 -0.0394 -0.1814
28650W        W46854   7.063   5.487  13.044  0.1888  0.4185 -0.2791
28651W        W46855  17.386  10.032   4.574 -0.0653  0.0408  0.4276
28652W        W46856   1.453  16.941  14.348 -0.0105  0.0384  0.1820
28653W        W46857   2.179  16.490  13.108 -0.0709 -0.0968  0.0253
28654W        W46858  16.147   9.614  16.159 -0.0028 -0.1910 -0.3747
28655W        W46859  14.136  10.860   3.934 -0.3461  0.1275  0.1113
28656W        W46860  16.494   5.406  17.286 -0.0590  0.2346  0.0303
28657W        W46861  11.753  12.364   3.713 -0.0144  0.1283  0.2496
28658W        W46862  12.585  12.280  14.807  0.0026  0.0092  0.1491
28659W        W46863   0.239  11.791  13.128 -0.1554 -0.0549 -0.2689
28660W        W46864   8.650  16.194  16.105  0.0341  0.0493  0.2122
28661W        W46865  17.079  11.062  12.891 -0.0149  0.1323 -0.1147
28662W        W46866   4.821  16.577   3.139  0.0732  0.1239 -0.0246
28663W        W46867  13.988   0.060   0.219  0.1927 -0.1635 -0.0450
28664W        W46868  15.973  11.678  14.635 -0.0706  0.3519 -0.1247
28665W        W46869   1.532  12.810  12.424  0.0777  0.1090 -0.0440
28666W        W46870   5.021  16.259  13.905 -0.0886  0.2857 -0.2484
28667W        W46871   3.470   0.478   3.544 -0.0222 -0.1215  0.0573
28668W        W46872   3.037  17.344  12.811  0.1719 -0.1516  0.2400
28669W        W46873   4.934   6.714   1.843 -0.4252 -0.0018  0.0234
28670W        W46874   0.159   6.367  14.819  0.0775 -0.1118 -0.1614
28671W        W46875   5.987   7.498   3.381 -0.1924 -0.3686  0.0465
28672W        W46876   9.109   3.341   1.586 -0.0593  0.1205 -0.4678
28673W        W46877   2.083  16.546  14.774  0.1422 -0.0136  0.3323
28674W        W46878   2.523   9.926  11.714  0.2478 -0.1107  0.1913
28675W        W46879  12.335   9.937  12.075 -0.0034 -0.0533  0.0026
28676W        W46880   5.702  15.095  14.421 -0.3324 -0.0333  0.1891
28677W        W46881   0.029   9.892   1.318 -0.2390 -0.3810 -0.1764
28678W        W46882  13.262   4.169  14.815 -0.1026  0.1809  0.3193
28679W        W46883   4.685   4.646  16.473 -0.2527 -0.1360  0.1384
28680W        W46884   5.939   5.461  16.818  0.0555  0.1618 -0.2992
28681W        W46885   0.408   0.174  15.553  0.1627 -0.0115  0.1938
28682W        W46886   4.675   6.372  15.890 -0.1373 -0.1179  0.0264
28683W        W46887  16.952  16.636  14.878 -0.0222  0.0128  0.0268
28684W        W46888  16.531  16.327   5.257 -0.1910  0.3571  0.1808
28685W        W46889  10.510  10.160   1.238  0.0069 -0.0825 -0.0181
28686W        W46890  12.017  14.407   2.253  0.0044 -0.1083  0.1367
28687W        W46891   8.613  12.923  13.772 -0.1142  0.0830  0.3624
28688W        W46892  16.910   4.290   0.175 -0.1185  0.2334 -0.3669
28689W        W46893   7.568  14.785   4.870 -0.2656  0.0551  0.0635
28690W        W46894   4.072   6.537  12.852 -0.2197  0.1959  0.2330
28691W        W46895   3.497   5.326   3.297 -0.1099 -0.0084  0.1398
28692W        W46896   9.316   3.117   2.962 -0.1852  0.0397 -0.1217
28693W        W46897   9.621   2.250  14.356 -0.1315  0.1266  0.0518
28694W        W46898   9.058  15.148   2.437  0.1262 -0.0504 -0.0755
28695W        W46899  17.473   9.715   4.144  0.0351  0.2186 -0.1177
28696W        W46900   7.168   8.371   2.594  0.0028  0.2117 -0.0799
28697W        W46901  10.468   9.447   3.666  0.1096  0.0756 -0.1757
28698W        W46902   9.900  10.167   1.110 -0.1634  0.0848  0.3318
28699W        W46903   0.862   3.500   1.423  0.0891 -0.3068 -0.1561
28700W        W46904   0.005   3.311  15.950  0.0599  0.0827 -0.0457
28701W        W46905  13.731  14.218   1.828 -0.1842 -0.1786  0.3409
28702W        W46906   3.336  11.743  12.096  0.3382 -0.0905 -0.0958
28703W        W46907   3.586   7.187  16.961  0.1861 -0.0898  0.0634
28704W        W46908   6.942  10.306   1.254 -0.0626  0.1282  0.1336
28705W        W46909  10.347   4.762   0.050  0.0808  0.2285 -0.1529
28706W        W46910  15.176   2.299  15.271  0.0773 -0.1359 -0.1122
28707W        W46911   7.972  12.607  12.577 -0.2867  0.1041 -0.3818
28708W        W46912  10.740   1.621   4.277 -0.0757 -0.1427  0.0140
28709W        W46913   6.449  14.946  14.197 -0.0599  0.0613  0.1141
28710W        W46914   6.630  14.436  13.059  0.6484 -0.0360  0.0726
28711W        W46915  16.085   3.400   4.689  0.1068  0.0657 -0.1059
28712W        W46916  12.716   1.765  12.363  0.1538 -0.0412  0.0369
28713W        W46917   1.339   3.122   2.672  0.1612 -0.0904  0.1520
28714W        W46918   8.288   0.803  14.825  0.0387 -0.1001  0.0776
28715W        W46919  16.141  13.919  13.950 -0.2868 -0.0409 -0.1517
28716W        W46920  10.329   5.257  17.090  0.1830 -0.0160 -0.1687
28717W        W46921  15.803  12.914  14.183  0.1444 -0.2416  0.1647
28718W        W46922   5.678   6.897  15.955  0.1597  0.2314  0.1670
28719W        W46923  15.524   1.974   2.655 -0.1248  0.0948  0.3659
28720W        W46924  14.531   6.321  14.784 -0.3280 -0.1108 -0.2367
28721W        W46925   1.308   9.169  15.363 -0.0859 -0.0395  0.2829
28722W        W46926   9.831   0.209  12.764 -0.0240 -0.1170 -0.0924
28723W        W46927  11.664  16.554   4.302 -0.2645 -0.0347  0.0828
28724W        W46928  10.485   4.307   2.248  0.1150 -0.1091 -0.1478
28725W        W46929  17.246  10.923   3.021 -0.1469 -0.4175  0.2072
28726W        W46930   6.002   6.012   0.364  0.1178 -0.2636 -0.2381
28727W        W46931   5.074  11.417  13.093  0.1408 -0.0588 -0.1730
28728W        W46932   8.425   6.982  15.948  0.1501  0.2196 -0.0794
28729W        W46933  15.676  14.071   2.641  0.0441 -0.2646 -0.0853
28730W        W46934   3.522  15.972  11.484  0.0315 -0.0189 -0.2050
28731W        W46935  13.761  13.878   4.826 -0.0845 -0.2386  0.1572
28732W        W46936   4.892   6.424   4.504 -0.1395 -0.2133  0.4005
28733W        W46937  15.808   2.093   4.516 -0.0441  0.1142 -0.0144
28734W        W46938   3.253   7.462   4.784 -0.1220 -0.1261 -0.1554
28735W        W46939  11.058   6.999  14.808 -0.2752 -0.1747 -0.1000
28736W        W46940  12.642   7.867   2.960 -0.0390  0.1352 -0.1139
28737W        W46941   0.409  13.881  16.264 -0.0106 -0.0507  0.1173
28738W        W46942   2.037  17.283  15.083  0.4091 -0.1080  0.0376
28739W        W46943   3.626   7.403  13.469 -0.1272 -0.0077 -0.4335
28740W        W46944  10.788   6.402  16.449  0.0315 -0.0940 -0.0674
28741W        W46945   4.270  14.008  13.082 -0.1276 -0.1419 -0.0936
28742W        W46946   1.620   3.701  17.197 -0.0679  0.0595 -0.0303
28743W        W46947  12.288  16.010   1.383 -0.0553 -0.1596 -0.1397
28744W        W46948   8.509   1.620  16.956 -0.0981  0.0136  0.1480
28745W        W46949  15.933   9.814   4.304  0.0868  0.0193  0.1635
28746W        W46950   4.322  13.081   0.193  0.2933 -0.0525  0.2275
28747W        W46951  11.813  13.995   3.783 -0.0377  0.1840 -0.1711
28748W        W46952   3.826  11.261  16.879 -0.0163 -0.3149 -0.0734
28749W        W46953  10.780   7.878  16.884  0.0753 -0.1263 -0.0924
28750W        W46954  10.274   8.887  14.513 -0.2083  0.1320 -0.0232
28751W        W46955  11.885  15.131  13.893  0.1934  0.0738  0.0880
28752W        W46956   9.935   0.141  16.045  0.3682  0.1303  0.0811
28753W        W46957  15.863   2.457   3.397  0.0833 -0.1436 -0.1898
28754W        W46958   8.474  14.139   0.649 -0.0416 -0.0178  0.0477
28755W        W46959  13.857   8.110  15.643  0.0027 -0.0746  0.1749
28756W        W46960   8.865   9.852   4.910  0.1002 -0.2417  0.0794
28757W        W46961  13.665  13.546  11.706  0.1273 -0.0749 -0.1044
28758W        W46962   8.742   6.104   4.428 -0.0139  0.3184  0.3558
28759W        W46963   9.733   9.578  12.237 -0.1282 -0.0554  0.0037
28760W        W46964  15.032  13.631   2.350 -0.0024 -0.0577 -0.1256
28761W        W46965  13.999  10.320   0.084 -0.0270 -0.2059 -0.0299
28762W        W46966  13.707  11.451  13.106 -0.0546 -0.0296  0.1086
28763W        W46967   0.625   8.248  16.022  0.1028 -0.0282  0.0849
28764W        W46968  15.129   9.141  16.642  0.1791  0.1383 -0.0427
28765W        W46969   8.221   7.939  16.697  0.0862  0.0857 -0.1650
28766W        W46970  12.110  16.044   1.855 -0.3883 -0.2855  0.0279
28767W        W46971   7.228   6.465  15.423 -0.0014 -0.2309 -0.0962
28768W        W46972   6.034   4.049   4.290  0.0520 -0.0089 -0.2430
28769W        W46973  17.246  17.485   0.875  0.1575 -0.1864  0.4146
28770W        W46974  12.334  13.107   2.571  0.0591  0.0896  0.1429
28771W        W46975   7.961   6.538   3.636  0.0750 -0.0906 -0.3243
28772W        W46976   9.672   4.844  15.562 -0.3658  0.1442  0.1438
28773W        W46977  13.076   1.326  15.595  0.1063 -0.0444  0.2904
28774W        W46978   6.109   3.275   2.910 -0.2524 -0.0758 -0.1057
28775W        W46979  12.903   3.247  15.663 -0.1197  0.1998  0.0252
28776W        W46980   6.943   7.720  15.901  0.0330 -0.2408  0.0176
28777W        W46981  11.285   4.734   0.099  0.2052 -0.1418  0.1981
28778W        W46982   8.333  12.435   2.322  0.1540  0.1924 -0.2880
28779W        W46983   1.141  14.677   5.439  0.0677 -0.1486 -0.0601
28780W        W46984   6.510  15.707   0.508  0.0630  0.2434 -0.0747
28781W        W46985   5.340   5.002  14.574  0.0637 -0.1193 -0.1878
28782W        W46986  10.839  14.984   3.612 -0.0151 -0.4224 -0.0296
28783W        W46987  12.962   1.517   0.005 -0.0354  0.2112 -0.0218
28784W        W46988   0.996   4.438   0.030 -0.1157 -0.1907  0.1951
28785W        W46989  14.121  10.119  14.441 -0.2202 -0.2241  0.3381
28786W        W46990  13.921   7.207   5.401 -0.2257  0.1562  0.0673
28787W        W46991  15.292   6.218  15.275  0.0009 -0.1487  0.0580
28788W        W46992  11.684   7.428  16.837 -0.2601 -0.1865 -0.0876
28789W        W46993  15.045  11.323  14.773 -0.1925 -0.0727 -0.0728
28790W        W46994  10.133  12.208   1.636 -0.1619  0.1639 -0.1200
28791W        W46995  11.273  16.568   3.821  0.2014 -0.2799  0.0253
28792W        W46996   6.465   5.771  16.821 -0.1278  0.0179 -0.4046
28793W        W46997   4.564  13.284  16.699  0.1699  0.0329  0.0663
28794W        W46998   1.078   5.758   0.573 -0.0315 -0.3726 -0.0801
28795W        W46999  11.342  15.392   1.978  0.2612  0.0622 -0.0733
28796W        W47000   2.738   2.920   1.983  0.0957  0.1135  0.0101
28797W        W47001   7.775   5.459  16.943  0.1019 -0.5858 -0.0688
28798W        W47002   2.832   7.417  16.457  0.1160  0.0115 -0.2075
28799W        W47003   2.103   0.912  13.535  0.2112 -0.0965  0.0910
28800W        W47004  15.738   9.004  12.413  0.1716  0.1687  0.0111
28801W        W47005   2.475  14.848   2.999 -0.0429 -0.0091 -0.0183
28802W        W47006  14.219   0.893  15.359  0.0131 -0.1908 -0.0196
28803W        W47007   8.495  16.564  15.506  0.2561 -0.0234 -0.4704
28804W        W47008  16.080   7.094   3.492 -0.0707  0.0523 -0.1019
28805W        W47009   0.649  15.348   5.219  0.0145  0.1756  0.0153
28806W        W47010  10.839  12.955  16.281  0.0109 -0.1616 -0.1750
28807W        W47011  16.379  16.422  15.393  0.0526 -0.1715  0.2809
28808W        W47012   0.458  16.001   1.361  0.2216 -0.2582  0.5006
28809W        W47013  14.210   7.970   2.146 -0.0539 -0.2067 -0.0185
28810W        W47014  10.941   9.588  13.558 -0.4076 -0.2262 -0.3110
28811W        W47015   2.423   7.143   3.400 -0.1574  0.1485 -0.2042
28812W        W47016   2.257   4.046   3.709  0.0324  0.1412 -0.1859
28813W        W47017   1.662   2.701  15.158 -0.0592  0.0883  0.2773
28814W        W47018   5.303  10.632   4.530  0.0819  0.0631 -0.3497
28815W        W47019   0.093   0.160  12.930 -0.0228  0.1870  0.2576
28816W        W47020  15.420   2.637   1.424 -0.2752 -0.1160 -0.0491
28817W        W47021  14.905   3.347  14.770  0.1873  0.2793  0.0509
28818W        W47022  10.797  13.780  11.795  0.0486 -0.2036 -0.0291
28819W        W47023   5.209   9.713  15.300  0.1774 -0.1411  0.0058
28820W        W47024  16.294   1.027   3.722 -0.0335 -0.1527 -0.1354
28821W        W47025  12.138  10.813  13.956  0.0354  0.1544  0.0247
28822W        W47026   8.656   5.781   4.766 -0.0269  0.0768  0.1694
28823W        W47027  10.686   9.135  15.014 -0.1328  0.1191  0.0280
28824W        W47028  13.144   9.327   4.140  0.1247  0.0490  0.1115
28825W        W47029   0.968   5.082   3.750  0.0647  0.1333  0.1188
28826W        W47030  14.726  14.905   0.350 -0.1329 -0.1431 -0.0470
28827W        W47031   3.520   0.104   5.001  0.3720  0.3036  0.0397
28828W        W47032   1.081   8.382  15.958  0.0330  0.2287 -0.1774
28829W        W47033   9.776   8.936   4.951 -0.3036 -0.3979  0.0795
28830W        W47034   4.488   9.487   4.350  0.1038 -0.0565  0.0405
28831W        W47035   1.968  15.419  13.300  0.0058  0.0418 -0.2317
28832W        W47036   3.814  17.137  14.252 -0.0124 -0.1166  0.2227
28833W        W47037  13.796  15.213   5.018 -0.0707 -0.0089  0.1877
28834W        W47038  13.582   9.731   1.825  0.2156  0.2059  0.3067
28835W        W47039   8.968   5.611   1.965 -0.2062 -0.0146  0.0068
28836W        W47040   4.508  16.245  16.495  0.2049  0.1616 -0.2808
28837W        W47041   1.932  15.038  16.921 -0.0120  0.1245  0.0430
28838W        W47042  12.272  12.622   3.466 -0.2766 -0.2767  0.1299
28839W        W47043  15.260  10.191  14.002 -0.1953 -0.3363  0.3699
28840W        W47044   6.907  10.883  12.884 -0.1462  0.2183  0.0459
28841W        W47045  15.375   5.791   3.428  0.5327 -0.2382  0.2677
28842W        W47046   0.013   7.977   4.082 -0.0950 -0.0222  0.0286
28843W        W47047   2.729   2.912  12.202  0.0946 -0.3141 -0.0741
28844W        W47048   7.875   3.747   2.817  0.2007 -0.0526  0.3453
28845W        W47049   2.352  16.100  16.561  0.2111  0.1570  0.1508
28846W        W47050  10.087   7.975  15.484 -0.3231 -0.1320 -0.0045
28847W        W47051  13.707  10.396   3.244  0.2182 -0.1297 -0.2921
28848W        W47052  10.182   1.014  15.359  0.0637  0.1478 -0.0271
28849W        W47053   2.998  11.588   0.042 -0.4088 -0.3320  0.2635
28850W        W47054  10.288   3.271   3.263  0.0162 -0.0184  0.0498
28851W        W47055  10.510  13.193   3.801  0.0276 -0.0439 -0.0199
28852W        W47056   5.808   7.669  14.621 -0.0344 -0.1156  0.2438
28853W        W47057   8.460   2.291  15.512  0.1933 -0.2414 -0.1011
28854W        W47058   9.812  16.096  14.044 -0.0855 -0.2155  0.0559
28855W        W47059   9.062   4.369  12.385 -0.0335  0.0649  0.0176
28856W        W47060   4.715   1.502  12.333 -0.0435 -0.0316 -0.0023
28857W        W47061   3.789  12.924  15.286  0.0300  0.0085  0.0399
28858W        W47062  15.879   5.140   2.424  0.3448  0.1699  0.2451
28859W        W47063   2.896  11.127  14.202  0.0693  0.0512  0.3205
28860W        W47064  12.774   3.950   2.347 -0.1340  0.1080 -0.0321
28861W        W47065   9.846  16.391   0.871 -0.1486  0.1298 -0.3154
28862W        W47066  11.367  16.942   3.512  0.1509 -0.2383  0.1648
28863W        W47067   7.836  14.776  11.383  0.3286 -0.2301 -0.1215
28864W        W47068   9.769  14.360  16.178 -0.0904 -0.1305 -0.1510
28865W        W47069  11.916   9.873  15.542  0.0997  0.1029  0.0097
28866W        W47070   0.032   1.592   0.109 -0.2761  0.0215  0.2110
28867W        W47071   5.227  14.921   0.117 -0.0688  0.0808 -0.0342
28868W        W47072   9.558  14.938  15.475 -0.2221 -0.0982 -0.0787
28869W        W47073  13.266   6.226   0.938 -0.1323  0.0040  0.0998
28870W        W47074   3.380  15.582   1.080  0.0339  0.0507 -0.1635
28871W        W47075  11.783  15.652  15.788  0.2972  0.1020 -0.0353
28872W        W47076  11.715  16.626  13.160 -0.0394  0.0844  0.1124
28873W        W47077   0.489   0.101  12.203  0.2556  0.3868  0.2560
28874W        W47078  12.375   0.211  13.675  0.0623  0.1585  0.0038
28875W        W47079   2.398   2.098  13.432 -0.0330 -0.2830  0.3047
28876W        W47080   3.582   6.417   3.779  0.1689  0.0958 -0.0720
28877W        W47081  15.235   9.226   3.076  0.0330 -0.0260  0.2040
28878W        W47082  11.724  12.083   1.568  0.1571 -0.0981  0.0875
28879W        W47083   6.084  13.771  12.757 -0.0031  0.0542  0.0692
28880W        W47084  12.399   7.192  13.663 -0.0316 -0.1850  0.2242
28881W        W47085  11.368  13.459  15.487  0.1269  0.1847  0.0467
28882W        W47086   0.098   2.437  16.872 -0.0938  0.1526  0.0395
28883W        W47087   5.265  13.074  15.359  0.2235  0.1483  0.1557
28884W        W47088   3.304   4.109   3.444 -0.0593  0.2604  0.0885
28885W        W47089   6.989   8.046   1.887  0.1479 -0.3146 -0.1133
28886W        W47090   7.636   4.532  12.499 -0.2888 -0.1644  0.1860
28887W        W47091  13.738   6.255   3.480  0.0279 -0.0232 -0.0162
28888W        W47092  16.865   3.457   3.609 -0.1964  0.1296 -0.0553
28889W        W47093   4.267  15.317  17.281  0.0792  0.2881 -0.1611
28890W        W47094   5.537   8.968  16.205 -0.3394 -0.2429  0.3225
28891W        W47095  15.979   7.663  14.253 -0.2390  0.1102  0.1672
28892W        W47096   8.060  11.652  13.792 -0.0225  0.1656  0.1166
28893W        W47097   7.707  15.584  15.603  0.0546 -0.0475  0.2322
28894W        W47098  15.711  13.411  13.492  0.2091 -0.6711  0.1927
28895W        W47099   6.708   1.860  11.935  0.1609  0.1802  0.3106
28896W        W47100   3.198  11.459   3.839 -0.1326 -0.3272 -0.0382
28897W        W47101  10.563   4.901  16.345  0.0727 -0.0645  0.2697
28898W        W47102   9.232  15.054  13.542 -0.3712  0.1281 -0.1250
28899W        W47103   1.211   8.128  15.020 -0.2324  0.3359 -0.0750
28900W        W47104  13.326   9.745  12.188 -0.0506 -0.3569 -0.0224
28901W        W47105   8.075   7.586   2.908  0.2608  0.2888 -0.0602
28902W        W47106   3.700  16.839   4.865  0.0182 -0.0272  0.1808
28903W        W47107   4.148   3.736   2.412  0.0634  0.2619 -0.1040
28904W        W47108  11.798  14.291   5.025  0.0218  0.1936  0.1986
28905W        W47109  16.343  11.849  13.213  0.3367 -0.1663  0.2503
28906W        W47110   0.233   9.712  14.370  0.0148 -0.1014  0.1235
28907W        W47111  15.882   2.022  17.008  0.4945  0.0918  0.1126
28908W        W47112  15.725   9.327  14.999 -0.0808 -0.0005 -0.4113
28909W        W47113  17.136  10.481  14.510  0.2108 -0.1059  0.0893
28910W        W47114   3.529   2.434  14.083  0.4855 -0.3714 -0.0294
28911W        W47115  12.254   6.344   0.596 -0.0016 -0.0649  0.1096
28912W        W47116   0.306   6.079  13.975  0.0922  0.2332 -0.0815
28913W        W47117  12.759  12.391  11.908 -0.0205  0.2129  0.1404
28914W        W47118   5.537   0.082  12.819 -0.2684 -0.1703  0.1121
28915W        W47119   0.913  10.266   4.513 -0.1030  0.0814  0.4917
28916W        W47120  15.530  12.844  16.702 -0.0991 -0.1379  0.2489
28917W        W47121   9.526   7.633  17.070 -0.2118  0.0144 -0.1689
28918W        W47122   7.200  16.112   2.935 -0.4931  0.1658  0.1894
28919W        W47123   9.648   9.770   2.373  0.0328 -0.0591  0.5250
28920W        W47124   4.688  14.043   1.281  0.2323  0.0739 -0.1388
28921W        W47125   1.352   7.223  13.299  0.0453 -0.0438 -0.1231
28922W        W47126  15.060  14.752  13.227  0.2538 -0.1387 -0.3197
28923W        W47127   1.041   0.092   1.796 -0.0831 -0.0713  0.0929
28924W        W47128  17.311   5.533  13.757 -0.1944  0.0733 -0.1743
28925W        W47129   7.848   8.869  15.792 -0.0073 -0.0185 -0.2465
28926W        W47130   8.627   3.720   4.152 -0.2253 -0.0219  0.1290
28927W        W47131  13.692   7.009   0.452 -0.0049 -0.1853 -0.1317
28928W        W47132   8.942  15.821   2.171  0.0371  0.1368 -0.2606
28929W        W47133  14.067   5.819   3.460 -0.1752 -0.2163  0.3956
28930W        W47134  14.325  17.240  15.446 -0.0445 -0.0396 -0.2901
28931W        W47135  16.840   5.001   3.644  0.1247 -0.3997  0.0977
28932W        W47136   8.439  10.423  13.160 -0.2407  0.0060 -0.1956
28933W        W47137   8.301   8.512   0.607 -0.0301 -0.0057 -0.0781
28934W        W47138   7.833  16.400  16.250  0.0698 -0.0830 -0.3408
28935W        W47139   5.964   0.570  13.475  0.0951  0.0857 -0.1288
28936W        W47140  13.800  13.103  16.046  0.0740 -0.0652 -0.1654
28937W        W47141   6.110   0.122  13.747 -0.1109  0.1966  0.0608
28938W        W47142  11.484  17.325  15.848 -0.4019 -0.2071  0.0213
28939W        W47143   6.728   8.607   1.142 -0.1564  0.2368 -0.0682
28940W        W47144   1.216  16.931   4.527  0.2603  0.2528  0.0980
28941W        W47145   4.647   3.614   2.227  0.0965 -0.2447 -0.2494
28942W        W47146  14.856  13.945   1.959 -0.0374  0.1892 -0.3296
28943W        W47147  10.884   7.240  13.439 -0.0632  0.0570  0.0431
28944W        W47148   5.718   0.562   0.148  0.1097  0.2283 -0.2426
28945W        W47149   1.775   1.431  13.110  0.2133 -0.1173  0.0662
28946W        W47150   9.980   5.107  15.097 -0.4286  0.1555 -0.1187
28947W        W47151  10.145   9.467  13.723 -0.1998  0.4501  0.0816
28948W        W47152   9.680   8.125  14.744 -0.1737 -0.0580 -0.1619
28949W        W47153   6.734   0.698   1.687  0.0977 -0.0325  0.3587
28950W        W47154   7.212  10.018   3.693 -0.1575  0.2178 -0.1931
28951W        W47155  12.419   9.623  16.711 -0.3242 -0.1698 -0.3381
28952W        W47156   2.569  13.096   4.122  0.0334 -0.0236  0.0523
28953W        W47157  11.875  14.770   5.521 -0.0205  0.0658  0.0319
28954W        W47158  12.573  15.599   1.234  0.1426 -0.2193  0.2143
28955W        W47159   2.192  10.364  12.035  0.0962  0.1443  0.2745
28956W        W47160   3.698  12.565   4.627 -0.2154  0.2209  0.1157
28957W        W47161  15.840   8.477  12.710 -0.3346  0.0651  0.1532
28958W        W47162  15.307   1.267  12.998  0.0832  0.0832 -0.2537
28959W        W47163   9.678  14.529  14.264 -0.0409 -0.0718  0.0623
28960W        W47164  15.449  16.012  15.667 -0.1980  0.0106  0.0106
28961W        W47165   7.681   1.795   1.572  0.1302 -0.0578 -0.4496
28962W        W47166   1.015   7.979   0.579  0.1399  0.1616  0.0558
28963W        W47167   9.510  15.108  12.524 -0.1009  0.1633  0.2035
28964W        W47168  14.537  16.448  16.998 -0.0452  0.0244 -0.2283
28965W        W47169   9.571   5.834  11.829 -0.3090 -0.2258  0.1602
28966W        W47170  17.390  15.288  14.873 -0.1943 -0.0298 -0.3269
28967W        W47171   9.110  12.505   1.968  0.0619 -0.2104  0.1598
28968W        W47172   1.544   5.139   4.461 -0.2191  0.0413 -0.2661
28969W        W47173  11.893  17.265  14.293  0.1266  0.0187  0.0348
28970W        W47174   5.872   4.033  13.399  0.0026  0.4210 -0.0237
28971W        W47175   1.585  16.281   3.961 -0.0694  0.0545  0.2037
28972W        W47176   5.840   9.811  13.205  0.1183  0.4051  0.0857
28973W        W47177  14.304   8.849   1.013 -0.1207 -0.3086  0.1165
28974W        W47178   4.930   6.688  13.530 -0.0147  0.2886 -0.2191
28975W        W47179   5.437  15.474   1.897 -0.1273  0.2417 -0.2172
28976W        W47180  15.250   5.108  16.184 -0.0346 -0.2168 -0.1504
28977W        W47181   3.353   6.778  14.583  0.0838 -0.2310 -0.1524
28978W        W47182  11.662  14.695   3.962  0.3091 -0.3331  0.1769
28979W        W47183   7.405  17.407  16.879 -0.0991 -0.1220  0.1117
28980W        W47184   3.416   9.280   0.359  0.0503  0.0623  0.1743
28981W        W47185  13.976   8.966   3.046  0.0177 -0.0733  0.1213
28982W        W47186  15.066  10.081  16.403  0.3207  0.0203 -0.2740
28983W        W47187   4.198   8.678  12.230 -0.0426  0.3683 -0.2839
28984W        W47188   9.297   9.542   2.740  0.4267  0.0635  0.2010
28985W        W47189   2.651   2.015  15.632 -0.0442  0.1076 -0.0785
28986W        W47190  10.135  11.536   3.566  0.0381 -0.0939 -0.3447
28987W        W47191   4.774  11.127  13.368  0.3092  0.0905 -0.1830
28988W        W47192   1.801  11.311  12.694  0.1011  0.4273 -0.0631
28989W        W47193  10.012   8.936   4.497  0.0593  0.5622 -0.2013
28990W        W47194   6.545  11.121   4.274 -0.1612  0.0259  0.0083
28991W        W47195  10.052   2.349  14.602 -0.3284  0.1479  0.2106
28992W        W47196   7.214   5.075  13.637  0.1256 -0.3861 -0.0889
28993W        W47197   1.608  15.724  13.428 -0.2094  0.2186 -0.0764
28994W        W47198   7.425   2.833  14.961 -0.1641  0.2068 -0.1375
28995W        W47199   7.712  10.132   1.193  0.2250 -0.0258 -0.0437
28996W        W47200   0.837   1.323  14.298 -0.3561 -0.4726  0.0212
28997W        W47201  16.049  16.944  12.114 -0.1059  0.0285 -0.0055
28998W        W47202   7.523   1.066   1.241  0.2453 -0.2442  0.1049
28999W        W47203  15.000   5.459  15.429  0.1740 -0.1354  0.0120
29000W        W47204   2.671  16.544   2.313  0.3640 -0.2057 -0.6505
29001W        W47205   9.353   3.789   1.388  0.0278 -0.3124  0.0736
29002W        W47206  15.722   5.727   4.216 -0.1414 -0.0797  0.0197
29003W        W47207  10.619   2.052  17.033 -0.0674 -0.1667 -0.0354
29004W        W47208   8.859   9.299  11.749  0.3074  0.1375  0.2797
29005W        W47209   6.802  15.122   4.777  0.1146  0.2104  0.2149
29006W        W47210   4.440   5.999   1.567  0.4804 -0.1889 -0.1100
29007W        W47211   3.042   5.930   1.559 -0.1143 -0.3200 -0.0424
29008W        W47212  15.203  12.339  16.670  0.0122 -0.2471  0.0982
29009W        W47213  11.955   9.785   3.376 -0.0623 -0.0584 -0.0282
29010W        W47214  10.439  14.457   0.826  0.1892 -0.0283 -0.2695
29011W        W47215   0.937  10.395   5.012  0.2233 -0.0607  0.2957
29012W        W47216   7.840   7.640   0.199 -0.0178  0.0068 -0.1293
29013W        W47217   0.506   5.872   3.241 -0.0690  0.1597  0.2351
29014W        W47218   2.948  16.271  14.434  0.2725 -0.1380 -0.2128
29015W        W47219   9.749   9.077   0.509  0.3006  0.1607  0.0973
29016W        W47220   0.414   7.625  15.067 -0.0739  0.0407 -0.3443
29017W        W47221   6.538  12.965   4.334 -0.0529 -0.1901  0.2470
29018W        W47222  10.481   3.476   4.076 -0.1853  0.1198  0.0905
29019W        W47223  12.775   2.219   1.116 -0.0324 -0.1611 -0.0115
29020W        W47224   5.286  11.683   3.036 -0.1845  0.1153 -0.0437
29021W        W47225  17.381  16.508  14.530  0.0208  0.0362 -0.1111
29022W        W47226  16.866   8.798  13.273  0.0517  0.2318 -0.2594
29023W        W47227   9.856   5.578  13.248  0.1959 -0.0916  0.0878
29024W        W47228   3.792   2.001  14.193  0.2311  0.0216 -0.1604
29025W        W47229   6.629  13.473   0.376 -0.3821  0.0520  0.1116
29026W        W47230   9.652   4.529   2.119 -0.0129 -0.1643 -0.0608
29027W        W47231   1.608  12.043  13.826  0.1382 -0.0392 -0.2542
29028W        W47232   1.857   1.369   1.311 -0.0372 -0.0225 -0.1969
29029W        W47233  10.493   5.372  12.648  0.1269  0.0945 -0.2008
29030W        W47234  14.646   2.227   2.369 -0.0820 -0.0210 -0.1444
29031W        W47235   6.973  13.129  12.831 -0.0749 -0.1744  0.0732
29032W        W47236  10.557  13.408  15.570  0.2451  0.0169 -0.0125
29033W        W47237  16.844   5.741   2.529  0.0229  0.1160 -0.0903
29034W        W47238   6.332  12.573  14.072  0.2452 -0.1458  0.0721
29035W        W47239  17.228   8.237   3.770  0.2714 -0.0302 -0.1957
29036W        W47240  11.880   5.274   3.341 -0.0731  0.4054  0.2271
29037W        W47241  11.984  10.521  17.187 -0.0373  0.2370  0.1619
29038W        W47242   5.890   7.173  16.936 -0.0060 -0.0710 -0.1463
29039W        W47243  10.044  12.711  12.829 -0.3352  0.1159  0.1750
29040W        W47244   6.738  13.899   3.379  0.1436  0.1237  0.1276
29041W        W47245  15.755  13.871  14.279 -0.1482  0.4269  0.0172
29042W        W47246   4.537  17.384   3.482  0.0173  0.0382  0.0456
29043W        W47247  12.689  15.754   0.781 -0.0102  0.1899 -0.0258
29044W        W47248  12.947   6.337   4.571 -0.1856  0.0063 -0.0675
29045W        W47249  11.470  11.378   0.574 -0.1084 -0.0709 -0.1392
29046W        W47250   4.103   9.468   3.426 -0.2415  0.0288 -0.2164
29047W        W47251  16.724  11.004  13.744  0.1795 -0.3961 -0.1342
29048W        W47252  14.796   2.644   5.115  0.0920  0.0523 -0.0065
29049W        W47253  17.297  13.993   1.097  0.3068 -0.0854  0.1738
29050W        W47254  13.308   8.193  15.478 -0.0289  0.1513 -0.0443
29051W        W47255   3.030  17.216   1.100  0.0367 -0.0699 -0.3350
29052W        W47256   5.992   6.305  14.814 -0.1038  0.0821  0.2744
29053W        W47257   4.641  15.428   5.597  0.2977  0.1058  0.2395
29054W        W47258  11.567   9.452  16.945 -0.0672 -0.0366  0.1813
29055W        W47259   7.584  17.226   3.683 -0.1408  0.1500 -0.1793
29056W        W47260  13.336   9.769   4.045 -0.2474  0.3281  0.1332
29057W        W47261  14.128  17.532   2.550 -0.2140  0.1469 -0.2308
29058W        W47262   3.416  12.050   1.770  0.1699  0.3435 -0.0266
29059W        W47263   4.285  13.005  15.178 -0.0305  0.0314  0.2908
29060W        W47264  12.945  16.437  16.230  0.1483  0.3440 -0.3662
29061W        W47265  16.554   4.247   4.703  0.4643 -0.0943 -0.1531
29062W        W47266  11.405   5.204  12.031 -0.0305 -0.3561  0.0331
29063W        W47267  16.321   7.385   3.092  0.1060  0.2768 -0.0953
29064W        W47268  11.134   0.482   2.944  0.1590 -0.2618  0.0076
29065W        W47269   3.771   1.408  12.780  0.0190 -0.0064  0.1939
29066W        W47270  12.425  12.146   0.886 -0.3102  0.0975 -0.2529
29067W        W47271   7.663  15.018   3.562 -0.2250 -0.2005 -0.0205
29068W        W47272   2.780  14.731  13.392  0.0659  0.1534 -0.2051
29069W        W47273   9.985  12.149   0.512  0.0154 -0.0545 -0.0466
29070W        W47274  13.901  10.545  14.326  0.1037  0.2554  0.0216
29071W        W47275  14.236  16.707  13.921  0.1347  0.0467  0.1269
29072W        W47276   2.024   5.575   4.416  0.1288 -0.2437 -0.1600
29073W        W47277   5.406   6.600   4.815 -0.3551  0.0739  0.0581
29074W        W47278   5.297  14.289  16.209 -0.1408  0.1844 -0.0974
29075W        W47279  12.272   6.070   4.918 -0.0917 -0.0124 -0.0380
29076W        W47280  14.268   0.250  16.684 -0.0520  0.2113  0.0504
29077W        W47281  11.197  15.550   4.816  0.1340 -0.1027  0.0927
29078W        W47282  10.425  10.821  11.848 -0.1773  0.2278  0.2949
29079W        W47283   7.377   8.750  13.891  0.1190  0.2030 -0.0262
29080W        W47284   9.866   8.395   2.154  0.0555  0.1313  0.0361
29081W        W47285   7.634   7.078   2.806 -0.1050 -0.3917  0.2809
29082W        W47286   7.718  13.143   1.686  0.1279  0.1065 -0.1334
29083W        W47287   4.786  14.992   3.179  0.2162 -0.0923  0.2332
29084W        W47288  15.693   3.403  16.752 -0.1066 -0.0255  0.0637
29085W        W47289   5.761  11.649  16.310 -0.0971 -0.1201 -0.0614
29086W        W47290  13.908  13.779   3.416 -0.0696 -0.0718 -0.1161
29087W        W47291   1.372  14.262   5.646  0.0846 -0.0792 -0.1343
29088W        W47292  13.050   2.438  13.531  0.1596 -0.0497 -0.2268
29089W        W47293   4.530   7.810  14.653  0.0639  0.0502 -0.3483
29090W        W47294   9.963  12.430  13.264 -0.0474  0.1507  0.4880
29091W        W47295   7.299  15.075  16.752 -0.2614 -0.0977  0.1402
29092W        W47296   6.110   2.657  16.845  0.1314 -0.2903 -0.2391
29093W        W47297  14.950  16.314  14.588 -0.1183  0.1866  0.3545
29094W        W47298  17.011  17.359  16.428  0.0303  0.1111 -0.0269
29095W        W47299  12.333   4.822   2.809 -0.2410  0.3844 -0.0564
29096W        W47300   0.809   1.118  15.508  0.1854  0.2938 -0.1193
29097W        W47301   5.553  16.480   3.664  0.1163 -0.0155  0.2571
29098W        W47302   2.463   8.809  15.678  0.1291 -0.0180  0.1168
29099W        W47303   7.474  15.842  14.748 -0.1621  0.1250  0.3279
29100W        W47304  17.536  13.823  13.700 -0.2837  0.1500 -0.0628
29101W        W47305   0.626   5.742  14.313  0.0411  0.1946  0.1852
29102W        W47306   5.620   0.467  12.367 -0.0137  0.0418  0.2248
29103W        W47307   9.411  17.175  16.786  0.0515  0.4812  0.1530
29104W        W47308  11.856  13.180   0.143  0.3768  0.1689 -0.2079
29105W        W47309  11.559   5.177   2.561  0.5717 -0.0403  0.1478
29106W        W47310   7.673   0.811   1.671  0.0079  0.1121  0.1035
29107W        W47311  15.478   3.868  14.135  0.1553 -0.0550  0.0732
29108W        W47312  13.711   1.352  14.484 -0.2615  0.6022 -0.0266
29109W        W47313   6.764  14.291  16.781  0.2544 -0.1182 -0.1780
29110W        W47314  11.570   7.403  12.242  0.0509  0.0153 -0.0946
29111W        W47315   8.334   4.529   1.490 -0.0548 -0.0134 -0.2542
29112W        W47316  12.392   8.069  16.488  0.0585 -0.2167 -0.0194
29113W        W47317   3.281   7.905  12.351  0.1695 -0.1919  0.2205
29114W        W47318  14.097  10.369  16.358 -0.0041  0.1263 -0.1323
29115W        W47319  13.974   7.336   1.664 -0.1022  0.0645  0.0745
29116W        W47320  10.367   9.909   4.752 -0.1442  0.1534  0.1014
29117W        W47321   4.156   2.309  15.509 -0.0157  0.0470 -0.2998
29118W        W47322   8.486  12.905  15.909  0.0587  0.1501  0.1074
29119W        W47323   8.586   8.288  16.552 -0.0479  0.1662 -0.1635
29120W        W47324  16.551   4.527  13.989  0.3401  0.2756  0.0468
29121W        W47325   0.288   5.790   0.376 -0.0856  0.3315  0.1450
29122W        W47326   5.728  12.661   0.689 -0.2658  0.0458  0.2299
29123W        W47327  13.286   5.409   3.122 -0.2643  0.0036 -0.1067
29124W        W47328   0.621   1.277   1.676 -0.0310 -0.0335  0.1240
29125W        W47329  10.720  10.534  15.170  0.0512 -0.1277  0.2716
29126W        W47330   0.380  15.390  12.666  0.0663  0.2714  0.1247
29127W        W47331   8.228  17.379   0.189  0.0396  0.0491  0.1765
29128W        W47332  11.610  11.953   3.513  0.0185  0.0339 -0.2344
29129W        W47333  13.367   4.710  14.478  0.1454  0.2655 -0.1799
29130W        W47334   6.063  11.872   1.234  0.1341  0.0973 -0.1778
29131W        W47335   5.162   1.960   4.868 -0.1232 -0.2094  0.0749
29132W        W47336   4.935  13.563   2.195  0.2529 -0.0995  0.0732
29133W        W47337  12.081  13.075  12.861  0.2851 -0.3398  0.0437
29134W        W47338   3.142   1.053   4.808 -0.0541  0.1556  0.0049
29135W        W47339  16.708   1.454  11.134  0.2729  0.2172 -0.1076
29136W        W47340   6.171  12.756  12.714  0.0102 -0.0493  0.3239
29137W        W47341  11.635  13.270  14.774 -0.0753 -0.2065  0.0019
29138W        W47342  12.248   9.361  14.153  0.0749  0.2902  0.0126
29139W        W47343   1.091  14.167  16.729 -0.2231  0.1761 -0.3984
29140W        W47344  10.904   6.568   1.772  0.1306  0.0461 -0.0731
29141W        W47345   0.451   3.223   1.415 -0.3048  0.1066 -0.2521
29142W        W47346  17.318   2.874  15.981  0.1592 -0.0449  0.1064
29143W        W47347   8.050  10.583  14.825  0.2088 -0.0928 -0.2238
29144W        W47348  13.739  11.553   4.195 -0.3275 -0.0860 -0.2772
29145W        W47349   6.968   3.788   0.460  0.1900  0.0238 -0.0132
29146W        W47350   0.553  14.389  13.458 -0.2148 -0.2857 -0.0373
29147W        W47351  12.055  14.699   1.807 -0.0052  0.1935  0.0484
29148W        W47352   9.421   9.913  16.805 -0.0716 -0.3038 -0.3177
29149W        W47353  14.985  12.268   2.373 -0.1143 -0.1622  0.3982
29150W        W47354   8.061  15.472   4.306  0.2194  0.1412 -0.1299
29151W        W47355   1.549  14.085  15.589 -0.0472  0.2067 -0.0818
29152W        W47356   2.215   6.245  16.755  0.0119 -0.2128 -0.2731
29153W        W47357  11.437   1.304  13.528 -0.2161  0.0603 -0.0332
29154W        W47358   8.593   7.872   4.177 -0.0590 -0.1522  0.0488
29155W        W47359   9.074   0.646  12.886  0.0406  0.0746 -0.2399
29156W        W47360  12.259   6.684  14.903  0.2323  0.3328  0.2274
29157W        W47361  14.881  12.462  13.376  0.0734  0.1974  0.0880
29158W        W47362  16.823   3.869  14.413  0.3356 -0.0535 -0.0479
29159W        W47363  16.942   4.704   1.476  0.0585 -0.0373  0.0200
29160W        W47364  12.067   8.694   5.485  0.0681  0.0412 -0.1102
29161W        W47365  13.087  17.511  12.632 -0.1995 -0.0423  0.2272
29162W        W47366  10.813   9.344   2.104 -0.1525  0.3368 -0.2099
29163W        W47367  10.153   4.787   3.811  0.2016 -0.1174 -0.1844
29164W        W47368  11.227  15.823   0.395  0.2605  0.0002 -0.0683
29165W        W47369   5.196  16.914   4.657  0.4028 -0.0833 -0.0118
29166W        W47370   4.662  12.514  14.707  0.1246 -0.0154  0.3000
29167W        W47371  14.880  13.850   1.402  0.1523 -0.1271 -0.2997
29168W        W47372  13.971  15.689   4.789  0.0497 -0.0042  0.0110
29169W        W47373   4.651   5.642  15.650  0.3000 -0.3035  0.0206
29170W        W47374  17.008  16.557  11.752  0.0466 -0.0523  0.1305
29171W        W47375  12.951  12.409   2.704 -0.1229 -0.1279  0.2093
29172W        W47376   5.673   3.195  15.735 -0.3137 -0.3387  0.1601
29173W        W47377   6.997  12.856   2.872  0.0496  0.4372  0.0312
29174W        W47378   1.527   0.355   0.785 -0.1725  0.0153  0.2717
29175W        W47379  11.598   3.326  12.853  0.3797  0.1536 -0.1281
29176W        W47380   3.594  10.622  13.361 -0.1852 -0.0681 -0.0623
29177W        W47381  13.662   5.137  16.421  0.1892  0.1821  0.2026
29178W        W47382  14.254  13.491   0.571 -0.1783 -0.3258 -0.0126
29179W        W47383  14.406   6.093  15.438  0.1644 -0.2988  0.2721
29180W        W47384  15.982  12.321   0.087  0.0625 -0.0524  0.0883
29181W        W47385  15.922   8.498  13.694  0.3231  0.0795 -0.2667
29182W        W47386  14.901  12.202  12.944  0.0526  0.0050 -0.1335
29183W        W47387   5.499  14.718  15.999 -0.2378  0.2182 -0.1957
29184W        W47388   0.288  16.680  16.458 -0.0719  0.1150 -0.0365
29185W        W47389   2.380   1.331   1.455 -0.0275 -0.1271  0.3744
29186W        W47390   1.144   8.816   0.483  0.0501 -0.0573  0.1969
29187W        W47391  16.686  12.914  11.411  0.1608  0.0363  0.1016
29188W        W47392  13.638   9.840  14.214  0.0992 -0.0372 -0.0481
29189W        W47393   0.276   4.798  14.359  0.2357  0.2821 -0.0484
29190W        W47394   5.816   2.962   0.839 -0.1697  0.1727 -0.1284
29191W        W47395   6.299   4.966  14.225  0.0358 -0.1465  0.0023
29192W        W47396  12.040   4.348  13.151 -0.1576 -0.1557 -0.1347
29193W        W47397   1.601   7.922  17.131 -0.2118  0.1283  0.0844
29194W        W47398   0.201   7.862  12.746 -0.2556  0.1693  0.2444
29195W        W47399   7.659  11.052  13.273  0.2706 -0.4595 -0.2408
29196W        W47400  15.945   6.485   5.514  0.1125 -0.0692 -0.0869
29197W        W47401  16.430  10.830  11.708 -0.1485 -0.0454 -0.0321
29198W        W47402   6.662   2.830  14.134  0.2905 -0.1157 -0.0378
29199W        W47403   7.730   3.910  13.968  0.2308  0.0469  0.2516
29200W        W47404  10.516  13.223  13.306 -0.0279 -0.1817  0.1815
29201W        W47405   4.304   4.374  16.984 -0.2801 -0.1532 -0.2748
29202W        W47406   5.770  12.435   3.387  0.3156 -0.0260  0.0355
29203W        W47407   6.842   2.640   4.401  0.0655 -0.2837 -0.1290
29204W        W47408   8.481  17.014   4.552  0.1138  0.3338 -0.0119
29205W        W47409   6.498   6.205  12.540 -0.0935 -0.2160 -0.0113
29206W        W47410   5.835   8.632  15.768 -0.0361 -0.1755 -0.1251
29207W        W47411  16.079  16.620  13.465 -0.0431 -0.1522 -0.1225
29208W        W47412   1.901   5.297   0.831 -0.2499 -0.0034  0.0785
29209W        W47413   4.144  17.309  14.560 -0.2666  0.3531  0.0079
29210W        W47414  13.919  13.904  15.195  0.2091  0.1620 -0.1467
29211W        W47415   2.126  10.875   4.193  0.0271 -0.2693 -0.0281
29212W        W47416  13.800   4.319   3.930  0.1881 -0.1796  0.0908
29213W        W47417   1.969   0.220  17.097 -0.0930 -0.0659 -0.4006
29214W        W47418  12.161  11.076  12.651 -0.0658  0.1400 -0.1202
29215W        W47419   6.849   7.046   0.710  0.1500 -0.1924  0.0277
29216W        W47420   9.345   0.996  16.579  0.0519 -0.1069  0.1141
29217W        W47421  14.746   4.340   3.485  0.1214  0.0631 -0.0697
29218W        W47422   5.544   9.985  13.630  0.0280  0.0591 -0.1239
29219W        W47423   0.944  16.879   1.122 -0.0182  0.2343  0.2564
29220W        W47424  16.458   6.986  11.889 -0.0485 -0.1444  0.1256
29221W        W47425  16.322   2.400   2.408 -0.0915  0.1292  0.2014
29222W        W47426   3.706   3.706   4.876 -0.2013 -0.0096  0.4251
29223W        W47427  15.815   8.502  12.209  0.1450 -0.0213  0.0197
29224W        W47428  14.366   4.732  13.525 -0.0162  0.1281 -0.1790
29225W        W47429   8.002  10.877  16.597  0.0222 -0.3759 -0.0228
29226W        W47430  16.098   3.674  13.722 -0.0901 -0.0784 -0.1350
29227W        W47431   6.073  14.535   3.032  0.2597 -0.2398  0.0603
29228W        W47432  11.674   0.481  12.585  0.0044 -0.1272  0.2176
29229W        W47433  12.678  14.766  15.305 -0.3962 -0.0597  0.3178
29230W        W47434  14.171  16.095  16.107 -0.1317 -0.3158  0.1557
29231W        W47435   2.864  13.578  15.438 -0.3167  0.2231 -0.1047
29232W        W47436   0.101  16.909  15.571 -0.0559 -0.4483  0.1043
29233W        W47437  14.520   5.838   3.772 -0.0015 -0.1036  0.0393
29234W        W47438   3.073  12.449  13.803  0.2163 -0.1338  0.1636
29235W        W47439  13.486  14.447  11.890 -0.2178 -0.0693  0.0039
29236W        W47440  13.234   6.761  16.499 -0.0210  0.2231 -0.0253
29237W        W47441  14.359   8.575  16.823 -0.0362  0.0647  0.3508
29238W        W47442   2.153  16.658   2.207  0.2661 -0.1538  0.3651
29239W        W47443   2.252  11.910  13.218 -0.0140 -0.3867 -0.0124
29240W        W47444   7.923   7.527  16.490 -0.1288 -0.0598 -0.1864
29241W        W47445   8.300   1.049  12.278 -0.0377 -0.3889  0.2269
29242W        W47446  13.128   7.986   4.178  0.2105  0.1944  0.1364
29243W        W47447  17.276   7.882  16.359 -0.0832 -0.1948 -0.0530
29244W        W47448  10.131  16.658   2.432 -0.1198 -0.0455 -0.0499
29245W        W47449  10.309   8.351   1.373  0.0915 -0.3050 -0.3728
29246W        W47450  14.007  13.799  16.659 -0.0549 -0.3662 -0.0174
29247W        W47451  15.735   4.585   0.844  0.1357 -0.1932  0.1553
29248W        W47452  14.443  12.298   3.528 -0.2553 -0.1494 -0.0314
29249W        W47453   1.540  14.651   0.157  0.1017 -0.1515 -0.3240
29250W        W47454   0.011  10.324   1.640 -0.0105 -0.1117 -0.0113
29251W        W47455  12.759   6.301   0.763 -0.0055  0.1689  0.0743
29252W        W47456   2.476  16.021   3.508 -0.0180  0.2292 -0.3612
29253W        W47457   9.762   5.136  13.068  0.0746 -0.2401  0.1504
29254W        W47458   0.534  12.787   2.376 -0.0743  0.1368  0.2351
29255W        W47459   9.357   9.360  17.016  0.0939  0.0192 -0.0803
29256W        W47460  15.746   6.825  12.430  0.0630 -0.2664 -0.0186
29257W        W47461   0.731   8.125  13.277  0.3555 -0.0859  0.0685
29258W        W47462   2.569   1.735  13.751  0.2414  0.0252 -0.2813
29259W        W47463  11.009  10.299   1.650  0.0439 -0.0711 -0.4096
29260W        W47464  13.838   5.654  12.779  0.0880 -0.1189 -0.2179
29261W        W47465  13.163   2.097  14.882  0.2016  0.1456  0.1875
29262W        W47466  10.658   0.572   2.815  0.1772 -0.1223  0.4113
29263W        W47467   3.247  15.961   5.270 -0.2712  0.0344 -0.0531
29264W        W47468   0.687  11.864   2.053 -0.1349 -0.0040 -0.1248
29265W        W47469  15.722   0.040   3.849  0.0807  0.0551 -0.4033
29266W        W47470  11.330  17.334  13.059  0.0480  0.2080 -0.0879
29267W        W47471   7.907   0.429   3.536 -0.4722 -0.3112  0.0224
29268W        W47472  16.590  11.245   4.219  0.1211 -0.2947  0.0962
29269W        W47473   7.786   3.434  14.242  0.1441 -0.0562 -0.2560
29270W        W47474   9.964   8.333  15.786 -0.0705 -0.4526 -0.1038
29271W        W47475   9.363   4.658   4.297  0.0866  0.1584  0.2088
29272W        W47476  16.136   0.416   2.959 -0.1123  0.1782 -0.1357
29273W        W47477   7.260  11.977   0.724 -0.0163 -0.1775  0.1288
29274W        W47478  11.462  12.000   2.008  0.0321  0.1415  0.4616
29275W        W47479   2.989  15.353  15.994 -0.0076 -0.0490  0.0309
29276W        W47480  16.571  15.194  15.633 -0.0011 -0.0842 -0.0566
29277W        W47481   5.504   8.007  13.915 -0.0264  0.0735  0.0862
29278W        W47482   1.026  14.043  17.241  0.1234  0.2153 -0.1248
29279W        W47483  10.635   0.338   2.162  0.0978  0.2596  0.3212
29280W        W47484   4.627  16.907   4.825  0.3590 -0.0269  0.0273
29281W        W47485   3.476   3.182  17.068  0.2112  0.1508  0.1806
29282W        W47486   7.823  15.577   5.463 -0.0198 -0.0354 -0.1229
29283W        W47487   7.643   5.417  12.233  0.1094  0.3286  0.0232
29284W        W47488   7.491  15.381  14.998  0.1318 -0.2063 -0.1396
29285W        W47489   3.693   7.331   1.128  0.0874  0.1930  0.1479
29286W        W47490   8.018   5.771  14.011  0.0385  0.0072 -0.1713
29287W        W47491  15.543   4.405   2.342 -0.1704 -0.2409  0.0489
29288W        W47492  13.483  16.877   0.638 -0.1227 -0.2101  0.0701
29289W        W47493  10.603  14.090   3.440  0.1672 -0.1214 -0.2413
29290W        W47494   6.365   3.553  14.541 -0.0386 -0.1292 -0.1766
29291W        W47495   8.236   4.352  14.463  0.3149  0.0863  0.2355
29292W        W47496   0.231   7.418  12.433 -0.1138  0.0533 -0.1154
29293W        W47497   5.346   8.170   2.927 -0.1748 -0.0893 -0.1120
29294W        W47498  15.142   3.498   4.848 -0.2264  0.1908  0.0320
29295W        W47499   2.182   0.361   4.683 -0.0124 -0.0686 -0.4596
29296W        W47500  16.468   1.324  12.148 -0.0906  0.0892  0.2582
29297W        W47501  13.348  13.849  11.971 -0.3484 -0.0956  0.0549
29298W        W47502  16.548  11.941   2.396  0.1279 -0.1570  0.0762
29299W        W47503  14.766  16.600   3.416 -0.0621 -0.1884 -0.1168
29300W        W47504   1.659   4.436   3.790  0.1171 -0.1370 -0.0052
29301W        W47505   7.715   4.537   5.804 -0.0294 -0.4103  0.0265
29302W        W47506   8.854  16.032   3.860 -0.2365  0.0380  0.1433
29303W        W47507   6.461   4.764   0.086 -0.2298  0.0442  0.0902
29304W        W47508   5.954   4.735   2.540  0.3568  0.3362  0.1170
29305W        W47509   3.315   5.054  15.125 -0.2297 -0.2900  0.1949
29306W        W47510   4.077   5.074   2.034 -0.1754 -0.0181  0.0159
29307W        W47511  14.261   7.563  14.312  0.3785 -0.0648  0.0971
29308W        W47512   1.899  14.428   3.912  0.1070 -0.4085  0.1000
29309W        W47513   4.294  10.906  15.192 -0.1503  0.2234  0.1782
29310W        W47514   9.481  11.758  16.444  0.1688  0.0184 -0.1803
29311W        W47515  16.405  10.576  13.008 -0.0361  0.4420 -0.0376
29312W        W47516  15.458  13.924  15.196 -0.0011 -0.2966  0.2879
29313W        W47517  13.197  16.303   4.547  0.2663  0.1321 -0.1612
29314W        W47518  15.192   9.834  15.372 -0.0306  0.1030 -0.2873
29315W        W47519  15.985   8.084   5.114  0.0855  0.2735  0.1745
29316W        W47520   2.949   9.518   1.502 -0.0271  0.0594  0.1324
29317W        W47521  15.699   7.546  14.642 -0.0830 -0.0728 -0.1234
29318W        W47522   7.515   4.511   3.318  0.1660 -0.0607 -0.4458
29319W        W47523   6.550   8.949   2.275  0.2741  0.1566 -0.4774
29320W        W47524   2.850  13.995  16.753  0.2120  0.3858 -0.2090
29321W        W47525  11.107   7.794   2.374  0.1656  0.1586 -0.0493
29322W        W47526  11.268  15.506   4.243 -0.0552  0.1573 -0.2432
29323W        W47527  16.131  16.790   0.606 -0.0308  0.2657 -0.0216
29324W        W47528  12.365  11.095  13.592 -0.0507 -0.0690  0.1698
29325W        W47529   5.863  14.515   1.670  0.0155 -0.1249 -0.2365
29326W        W47530   2.926   8.272  12.054  0.1069 -0.1948 -0.2703
29327W        W47531   9.583   6.636   2.742 -0.1376  0.1500 -0.1289
29328W        W47532   2.732  12.787  13.367  0.0703  0.1645 -0.0064
29329W        W47533   3.520   1.234  13.469 -0.1203 -0.1415  0.1166
29330W        W47534  13.602  16.555   3.719 -0.1808 -0.0016  0.0586
29331W        W47535   4.231   3.061   4.459 -0.2049  0.2393 -0.1481
29332W        W47536   9.934   5.726   4.882 -0.3560  0.2214  0.0243
29333W        W47537  15.886   4.029   2.328 -0.0034 -0.1262 -0.2149
29334W        W47538   3.118  10.123   3.905 -0.0470 -0.0492 -0.1680
29335W        W47539  11.671   8.435  17.245 -0.0610  0.0624 -0.2885
29336W        W47540  13.410  15.288  14.632  0.2604  0.1955 -0.1147
29337W        W47541  14.153  16.264   4.997  0.1055 -0.0038 -0.0898
29338W        W47542   1.586  14.197  16.847 -0.0183 -0.0801  0.4350
29339W        W47543   9.697   3.836  12.660 -0.1053 -0.2355 -0.0150
29340W        W47544   5.969  17.125  13.435  0.0085 -0.0584  0.2253
29341W        W47545  12.078  12.110  14.543  0.2652  0.1926  0.0757
29342W        W47546   3.006   0.311   0.539 -0.0217  0.0522 -0.2426
29343W        W47547  10.343  16.209  16.244  0.0925  0.3927 -0.0230
29344W        W47548   1.539  10.235   0.596 -0.2758  0.4768  0.3746
29345W        W47549   0.790   7.787   0.991  0.1010  0.2531 -0.0499
29346W        W47550  10.136   3.114   0.508  0.0537 -0.2501 -0.2544
29347W        W47551   7.832  16.933  16.113  0.2038  0.3829 -0.4344
29348W        W47552  16.365   5.961   2.085 -0.2379  0.4819 -0.2792
29349W        W47553   1.148   2.155  13.013 -0.1212  0.2126  0.1597
29350W        W47554   3.570   2.238   3.618 -0.0330  0.2986 -0.1097
29351W        W47555   8.438  12.399  12.471  0.2003  0.1539  0.1552
29352W        W47556   6.967  16.924   1.598 -0.0912  0.2529  0.1475
29353W        W47557   8.314  10.027   2.934 -0.0460  0.2799  0.0333
29354W        W47558  10.247  12.565   4.963 -0.3019  0.1409 -0.0592
29355W        W47559   4.990   7.614  14.408 -0.0416  0.0927 -0.2430
29356W        W47560   6.178  13.763  14.658 -0.1026 -0.0034  0.2533
29357W        W47561   8.739   5.199  15.087  0.2458 -0.0908  0.0096
29358W        W47562   4.809   2.209   4.554 -0.0142 -0.3249 -0.2058
29359W        W47563  12.897  15.541   4.529  0.0743 -0.2908 -0.0482
29360W        W47564   0.566   3.785   1.826  0.1240 -0.0659 -0.1397
29361W        W47565  12.039   7.988   2.398  0.2002  0.0043  0.1599
29362W        W47566  10.850   8.777   5.681 -0.1022 -0.1535  0.2118
29363W        W47567   0.039   0.648  14.728  0.3481 -0.1047 -0.2559
29364W        W47568  13.125   4.223   2.626 -0.1709  0.1169 -0.4079
29365W        W47569  16.031   1.961  12.218 -0.0626 -0.0165 -0.0973
29366W        W47570   7.773   2.329   3.363  0.2839 -0.1164 -0.1693
29367W        W47571  11.155   6.462   4.407  0.0575  0.0897  0.1471
29368W        W47572   3.744  11.895   0.242 -0.0743 -0.0160 -0.4688
29369W        W47573  13.720   7.469  14.437  0.2125  0.0187 -0.1193
29370W        W47574   7.886   4.930  17.035  0.1873  0.0632 -0.4228
29371W        W47575   4.506   4.337  14.360  0.0364 -0.1241 -0.1117
29372W        W47576   2.578  10.327  14.816  0.0185  0.1655 -0.0472
29373W        W47577  15.656  13.955   1.272 -0.1068  0.1372  0.0539
29374W        W47578   9.382  15.821  14.159  0.3075  0.0206 -0.1123
29375W        W47579  10.377   9.325   4.164 -0.0324  0.1183  0.1529
29376W        W47580  17.381   1.757  16.472  0.2217 -0.4260 -0.0126
29377W        W47581   9.799  10.260   2.512 -0.0162  0.2332 -0.2555
29378W        W47582   7.729  10.082   0.620  0.0538 -0.4437 -0.0729
29379W        W47583   6.237  14.194   2.686  0.0914 -0.0089 -0.0644
29380W        W47584   3.775  13.649   1.084  0.2098 -0.1479  0.0646
29381W        W47585   9.671  15.260   4.611 -0.1923 -0.1753 -0.1661
29382W        W47586  10.604  12.510  15.963  0.3282  0.1995 -0.0485
29383W        W47587   2.432   7.632   5.129  0.2278  0.1196  0.0360
29384W        W47588  13.271   2.279   3.838  0.0445  0.0002  0.0703
29385W        W47589   9.253   6.888  13.331  0.1348  0.3469  0.0240
29386W        W47590   1.836   9.455   0.344 -0.0454 -0.1180  0.0667
29387W        W47591   6.492  16.582   1.678 -0.1935 -0.0296 -0.0011
29388W        W47592  12.190  15.213   1.884  0.0734  0.1819  0.1376
29389W        W47593  12.318  13.562  11.918 -0.3667 -0.0717 -0.3776
29390W        W47594   8.292   1.697   2.340  0.2125  0.1987  0.1777
29391W        W47595  10.607   6.145   3.892 -0.0180  0.0539  0.2916
29392W        W47596   8.627  14.570   3.558  0.2035 -0.2348  0.4986
29393W        W47597   9.128   5.126  15.454  0.2717  0.1393 -0.1029
29394W        W47598  13.970   5.371   3.137  0.2298 -0.1027 -0.1509
29395W        W47599   4.685  14.941   3.677  0.0221  0.2265  0.0005
29396W        W47600  16.214   2.911  12.547  0.0986 -0.4113 -0.0286
29397W        W47601   2.743  12.424   4.326  0.1652  0.0166  0.1884
29398W        W47602   4.507   7.456  16.451  0.2719  0.1054 -0.3335
29399W        W47603  15.631  11.149  13.580 -0.0749  0.1598 -0.0506
29400W        W47604   4.664  15.716   1.107 -0.1474  0.3042 -0.0406
29401W        W47605   9.190  11.243  17.082  0.1647 -0.0806 -0.0202
29402W        W47606   5.215  14.148   1.664  0.0453 -0.1349 -0.0076
29403W        W47607  13.847   4.892   4.871  0.3848  0.1072  0.1501
29404W        W47608   8.660   2.883   3.732  0.1492 -0.0308  0.0169
29405W        W47609   3.800   4.570  17.107 -0.1505 -0.1811  0.0287
29406W        W47610   0.679   7.690  12.762 -0.3007 -0.0060  0.2521
29407W        W47611  15.366  12.336   3.283  0.2185 -0.0636 -0.1402
29408W        W47612   9.862  17.418  16.466 -0.0890  0.1493 -0.1450
29409W        W47613   4.380  16.490  16.091 -0.1592 -0.1726 -0.0454
29410W        W47614   4.878  16.656  13.642 -0.0729  0.2676 -0.1568
29411W        W47615   1.586   8.391  13.126  0.0966  0.2222  0.0774
29412W        W47616   5.823  13.100  16.633 -0.2566  0.1003 -0.1101
29413W        W47617   9.014   5.651   5.563 -0.0447  0.0758 -0.3240
29414W        W47618  13.408  10.353   5.360  0.0441  0.3346 -0.3809
29415W        W47619   5.730   8.463   3.770 -0.3351  0.0293  0.1689
29416W        W47620   0.723   9.734  12.136 -0.1454  0.0207  0.0933
29417W        W47621   5.590   6.105   4.668 -0.5906  0.0654 -0.0735
29418W        W47622   5.984   5.985  17.147 -0.0926  0.0303 -0.0359
29419W        W47623   4.990   7.762  13.853 -0.0012 -0.1735 -0.0550
29420W        W47624   8.969   5.338   5.978  0.0323 -0.0792  0.1893
29421W        W47625  11.563   0.202   0.468 -0.2925  0.0208 -0.0424
29422W        W47626   2.958   9.794  13.533 -0.0579  0.3586  0.1632
29423W        W47627  12.333  14.101  16.337  0.1528  0.2410 -0.0335
29424W        W47628  14.169  13.640   5.015  0.2381  0.1108 -0.1313
29425W        W47629   5.742   2.693   0.364 -0.0808  0.2020 -0.1019
29426W        W47630   5.159  16.971  12.210 -0.0354 -0.1287  0.3325
29427W        W47631  16.184  11.042  17.213 -0.0731 -0.0121 -0.6317
29428W        W47632   3.337   1.958   1.132  0.3067 -0.0026  0.0077
29429W        W47633   5.830  10.001  15.947 -0.4193 -0.0232  0.0205
29430W        W47634   0.293   3.250   3.764  0.1258 -0.0344  0.0928
29431W        W47635  16.581  12.184  11.735  0.0502 -0.1455  0.0973
29432W        W47636   1.313  10.856  17.189 -0.1151  0.0447 -0.1514
29433W        W47637   5.957   6.717   0.663  0.0998 -0.0699  0.0548
29434W        W47638   5.980   4.414   3.848 -0.0585 -0.2421 -0.2289
29435W        W47639  12.032   3.506   5.396  0.4054  0.0786 -0.1949
29436W        W47640   8.277  10.319  11.169  0.0710  0.0272  0.1790
29437W        W47641   9.465   7.070   0.521  0.0646 -0.1383 -0.1927
29438W        W47642   9.520   2.107   2.829  0.0403  0.1866  0.3201
29439W        W47643   0.228  10.345  15.905  0.0088 -0.0581 -0.2366
29440W        W47644  12.517   1.411   3.848  0.1239  0.0790 -0.1441
29441W        W47645   7.059  15.875   4.273 -0.0666 -0.0734  0.1162
29442W        W47646   7.564   9.436  12.675 -0.0730 -0.3173  0.0413
29443W        W47647   5.051   8.121  14.863 -0.1851 -0.2253  0.1077
29444W        W47648   9.058  14.024  13.488 -0.0055 -0.0390 -0.0042
29445W        W47649  15.493   4.098  13.156  0.1067 -0.0452  0.0091
29446W        W47650   3.044  12.021  14.733  0.0795  0.2414  0.0344
29447W        W47651   7.175   8.237   4.507  0.0130  0.2912 -0.2351
29448W        W47652   6.661  15.210  15.993  0.0874  0.2642  0.2172
29449W        W47653  10.844  12.923   4.048 -0.3566  0.1504  0.2640
29450W        W47654   8.148  14.154   3.634  0.0865  0.3277  0.1519
29451W        W47655   3.760   8.521   2.661  0.1181  0.2063  0.3191
29452W        W47656  13.858   4.758   0.680 -0.2128  0.1445  0.1841
29453W        W47657   7.944   1.644  17.103  0.0099  0.2477  0.1427
29454W        W47658   9.892   0.501  15.433  0.0434  0.1246  0.1133
29455W        W47659  10.513  15.732   2.470  0.1638  0.1069 -0.1256
29456W        W47660   9.169  13.468   4.357 -0.0474 -0.0594  0.1154
29457W        W47661   9.907  14.766  17.102  0.0131 -0.1338  0.0695
29458W        W47662  17.262   7.422  12.378 -0.0980 -0.0143 -0.0760
29459W        W47663  10.042   0.279  13.409 -0.0148  0.3953  0.1175
29460W        W47664  16.574   4.727   3.936 -0.0802 -0.2215 -0.2094
29461W        W47665  15.527   8.515  16.840 -0.1245 -0.0536 -0.0987
29462W        W47666  10.999   0.482  17.177 -0.1488  0.0000  0.0495
29463W        W47667  12.148   5.580   1.727  0.1365  0.2058 -0.0793
29464W        W47668  10.549   7.740   2.475  0.2854 -0.3047 -0.2674
29465W        W47669   2.911   7.388   4.360  0.1810  0.0471 -0.1194
29466W        W47670  12.300  15.154   6.621 -0.0261 -0.0699 -0.0082
29467W        W47671  16.432   9.482   3.593  0.0571  0.1810  0.1198
29468W        W47672   3.536  15.632   4.455 -0.1829  0.2178 -0.0380
29469W        W47673   4.785   2.360   0.006 -0.1984  0.1141  0.1446
29470W        W47674  11.315  14.611   4.470  0.0909 -0.0389 -0.3273
29471W        W47675   3.129  14.836   3.816 -0.1292  0.0819 -0.0073
29472W        W47676  10.964  12.544  14.498 -0.3487 -0.0450  0.0358
29473W        W47677   7.781   1.313  13.532  0.1273  0.0900  0.2131
29474W        W47678  13.905   1.684  13.634 -0.0974  0.2584 -0.0960
29475W        W47679   3.475   4.805  16.120  0.0110  0.0676 -0.1307
29476W        W47680  17.530   8.935  16.498 -0.0461  0.2160 -0.3022
29477W        W47681   6.144   3.214   1.826 -0.1556 -0.1915  0.0764
29478W        W47682   5.758  12.930  12.930  0.1974 -0.2539  0.0912
29479W        W47683  14.305   1.527   1.929  0.1327  0.2290  0.0455
29480W        W47684  14.908   1.631  13.229 -0.1693  0.1985  0.1432
29481W        W47685   4.994  16.939   2.001 -0.2357  0.3637  0.1302
29482W        W47686   1.669  15.762  12.956 -0.3199  0.0498 -0.3152
29483W        W47687   8.481  12.335  12.977  0.2013  0.1408 -0.0943
29484W        W47688  15.876  10.499  16.058 -0.1843  0.1978  0.2372
29485W        W47689   3.937   2.062   1.843  0.0557  0.4158 -0.1586
29486W        W47690   2.206  11.534   2.922  0.1631  0.0248 -0.0990
29487W        W47691  10.524  11.854   3.462  0.3282  0.1589  0.0874
29488W        W47692  16.174   9.149  17.152 -0.0750 -0.1026 -0.2007
29489W        W47693  10.658  16.724   5.175 -0.1086  0.2522 -0.1944
29490W        W47694  16.740   0.893  16.846  0.1814 -0.1261 -0.1774
29491W        W47695  10.979   6.472   5.307 -0.2214 -0.0814 -0.1902
29492W        W47696   4.413   0.820  15.650 -0.0878 -0.3899  0.0008
29493W        W47697   3.318  11.687  15.368  0.0448  0.1630  0.1193
29494W        W47698   7.237  15.075   1.672  0.1751  0.0168 -0.0496
29495W        W47699  11.506   8.768   2.723 -0.1116 -0.1444 -0.1525
29496W        W47700   7.610  10.865  12.440  0.4390  0.2786  0.0186
29497W        W47701   2.670   2.448  15.088  0.2411  0.3493 -0.3413
29498W        W47702   7.243  15.503  13.010  0.0309  0.5682  0.0493
29499W        W47703   8.853  11.215  12.006 -0.2910 -0.0128  0.1090
29500W        W47704   6.039   2.031   2.129  0.3335 -0.0108  0.0240
29501W        W47705  16.396  17.064   5.534 -0.0986  0.1225 -0.0454
29502W        W47706   4.759   2.645   0.437 -0.0935  0.0008 -0.2191
29503W        W47707   0.193   9.823  16.760 -0.1991  0.0721 -0.0245
29504W        W47708  10.866   6.185  15.154 -0.1992 -0.0762 -0.4552
29505ION     NA47709  11.935   3.000   6.133 -0.1152  0.0322 -0.0053
29506ION     NA47710   3.391  17.117   6.005 -0.0297 -0.3308  0.1614
29507ION     NA47711  12.362   9.599  11.190 -0.2718  0.4058 -0.1356
29508ION     NA47712  12.630  13.025   1.004 -0.0550 -0.1669  0.0669
29509ION     NA47713  14.712   5.486  11.328  0.0221 -0.3262  0.1347
29510ION     NA47714  16.889  13.273   4.225 -0.1820  0.2518  0.0836
29511ION     NA47715   7.306  16.456  13.077  0.0362 -0.0115 -0.1132
29512ION     NA47716   2.507   3.505  13.614  0.2323 -0.2610  0.0241
29513ION     NA47717  14.180   9.898  15.630  0.1468  0.1355 -0.2723
29514ION     NA47718   2.324  10.117  11.135  0.0866  0.0109  0.0207
29515ION     NA47719   6.222  11.679   5.504  0.1828  0.2377 -0.0574
29516ION     NA47720  11.806  16.656   6.187  0.1334  0.0106  0.2677
29517ION     NA47721  10.726  10.935  15.466  0.0292 -0.0901  0.0263
29518ION     NA47722  17.165   9.590  10.987 -0.3385  0.1680  0.0096
29519ION     NA47723   0.101   4.189   6.185  0.1261  0.0175  0.0469
29520ION     NA47724   7.087   2.925   5.617  0.0042 -0.1768  0.2230
29521ION     NA47725  13.596   5.077   6.216  0.2253 -0.0103  0.1301
29522ION     NA47726   9.408   1.389  11.838 -0.2911 -0.1113  0.1927
29523ION     NA47727  13.953   8.471  11.391  0.0307 -0.1382  0.1312
29524ION     NA47728   6.709  13.025  11.537  0.1219 -0.0543  0.0469
29525ION     NA47729  14.873  11.104  11.064  0.1740  0.0779 -0.0306
29526ION     NA47730   6.034  14.799  11.224  0.2250 -0.0599  0.1531
29527ION     NA47731   7.766   6.089   2.800 -0.1119  0.1420 -0.1564
29528ION     NA47732   4.094  12.823  12.210  0.1610  0.0192 -0.2419
29529ION     NA47733  16.987  14.090  10.961  0.2108  0.1107 -0.3152
29530ION     NA47734   6.392   4.351  11.295  0.1790  0.1020 -0.2160
29531ION     NA47735  15.596   2.853  11.303  0.1514 -0.3878  0.2004
29532ION     NA47736   5.068   7.567   6.046 -0.1864  0.0492  0.0301
29533ION     NA47737   5.225   1.542   2.951  0.0246 -0.2282  0.3474
29534ION     NA47738   3.410   0.680   5.928 -0.1398  0.0220  0.2240
29535ION     NA47739  14.875  12.795   6.269  0.1201 -0.0051  0.2081
29536ION     NA47740   1.877   5.570  11.318  0.1882 -0.0920 -0.2976
29537ION     NA47741  17.133  16.664   3.645  0.0762  0.4345  0.1571
29538ION     NA47742  13.478  15.854   6.397  0.0573 -0.3251 -0.0140
29539ION     NA47743   1.788  10.554   5.733 -0.3510  0.0096 -0.1803
29540ION     NA47744   3.860  14.827  15.679 -0.2958 -0.1098  0.0493
29541ION     NA47745   7.605  11.531  11.267  0.0448  0.1077  0.2130
29542ION     NA47746  12.330  15.412   0.843 -0.1183 -0.0785 -0.2106
29543ION     NA47747  16.181   3.014   1.471  0.0641  0.0793 -0.1619
29544ION     NA47748   3.337   3.146   5.960 -0.1856  0.0460  0.0275
29545ION     NA47749  16.512  13.831  12.129  0.1053  0.1175 -0.0630
29546ION     NA47750  13.797  11.337  15.945  0.1065  0.2381 -0.1338
29547ION     NA47751  10.454   1.890  16.179 -0.1067 -0.4549  0.0141
29548ION     NA47752  13.775  14.714  15.585 -0.1980 -0.1364  0.0103
29549ION     NA47753   8.988   1.230  11.595  0.0845 -0.0771  0.1046
29550ION     NA47754   9.011  16.732  11.332  0.0281  0.2084  0.2499
29551ION     NA47755   6.324   0.565  11.449 -0.0676 -0.0481 -0.1578
29552ION     NA47756  11.788   7.355  11.187  0.3191 -0.1163 -0.3374
29553ION     NA47757   1.774   7.873  10.873 -0.0109 -0.1597 -0.2382
29554ION     NA47758   0.573  13.653  17.217 -0.0899  0.0674 -0.0498
29555ION     NA47759   1.213   9.413   5.611  0.2242  0.2287 -0.1298
29556ION     NA47760   8.269  16.061  11.126  0.3261  0.0794 -0.0586
29557ION     NA47761   5.613   1.528   6.072  0.0843 -0.0745  0.2006
29558ION     NA47762  16.969   2.850   6.052 -0.0807 -0.2535 -0.0435
29559ION     NA47763   8.824  15.471   5.800  0.0689  0.1621  0.1193
29560ION     NA47764  13.197   9.282  16.356  0.1999  0.0926 -0.1694
29561ION     NA47765   2.234   3.495  11.417 -0.3503  0.1611  0.0283
29562ION     NA47766   0.465   9.748  11.034  0.2598  0.0608  0.0141
29563ION     NA47767  14.113  10.339   6.205  0.2324  0.0729  0.1900
29564ION     NA47768  17.309  11.671   5.757  0.1039  0.2131 -0.2091
29565ION     NA47769  12.365  17.403   6.326  0.2515  0.1352  0.3226
29566ION     NA47770   9.252   2.062  16.546  0.1690 -0.1476 -0.2043
29567ION     NA47771   3.706   7.637  11.122  0.0858 -0.4807 -0.1751
29568ION     NA47772   8.609  14.016   3.500 -0.0479  0.3480 -0.0362
29569ION     NA47773  11.209   5.584   6.092 -0.1074 -0.1801  0.1271
29570ION     NA47774  12.350  10.844   1.803 -0.2855 -0.2255  0.0717
29571ION     NA47775  11.573  12.782   6.490 -0.1461  0.0664 -0.2300
29572ION     NA47776   3.534  10.769   5.900 -0.0706 -0.1759  0.2885
29573ION     NA47777   3.503   8.962   5.727 -0.2551 -0.0746 -0.2234
29574ION     NA47778   1.885  13.260   3.391 -0.1134 -0.2693 -0.2264
29575ION     NA47779   5.762   0.460   5.961  0.0680 -0.0327  0.1180
29576ION     NA47780   5.397  15.552  17.118 -0.1121 -0.0066 -0.1984
29577ION     NA47781  10.640   8.584  11.385 -0.0978  0.0809  0.0303
29578ION     NA47782  13.878  11.521  17.280 -0.1911 -0.1303  0.0258
29579ION     NA47783   7.618  14.809  10.958  0.1496  0.0148 -0.0476
29580ION     NA47784  15.514   4.522   1.412  0.0266  0.0698  0.2673
29581ION     NA47785  11.713   8.478   5.803 -0.2565  0.2809 -0.2218
29582ION     NA47786   2.262  13.234  12.231 -0.0651 -0.1348 -0.1871
29583ION     NA47787   3.868  15.910   6.020 -0.0083  0.1024  0.0836
29584ION     NA47788   1.225   7.420   5.877 -0.1450 -0.0593  0.0203
29585ION     NA47789  16.591   1.091  16.377  0.1611  0.0780 -0.0849
29586ION     NA47790  17.477   0.037   3.011  0.2047 -0.1414 -0.2119
29587ION     NA47791   1.317   7.979  16.754  0.0739 -0.1134  0.2248
29588ION     NA47792  14.039  15.149   6.652  0.1627  0.2492  0.2394
29589ION     NA47793  12.775  13.545  16.200 -0.3511  0.0997 -0.3497
29590ION     NA47794   5.061   0.913   5.519  0.1486  0.0066 -0.1194
29591ION     NA47795  13.074  13.556   6.670  0.2202 -0.1268 -0.1098
29592ION     NA47796   5.431  13.164  11.548 -0.1701 -0.2493  0.2727
29593ION     NA47797  10.524   0.269   6.248 -0.1869  0.1633  0.1916
29594ION     NA47798  10.176   2.348  17.037 -0.1851  0.0924  0.0511
29595ION     NA47799   6.283  10.805   5.757  0.0086 -0.3960  0.0273
29596ION     NA47800   8.835   7.059   6.075 -0.2498  0.0890  0.2541
29597ION     NA47801  12.482   2.778   3.490 -0.1787  0.0785  0.1525
29598ION     NA47802   7.908   8.794   2.321 -0.0749  0.0825 -0.1410
29599ION     NA47803  11.891   1.298  14.799  0.1506  0.1988 -0.0129
29600ION     NA47804   9.444   1.726   6.368 -0.0462 -0.1427 -0.3127
29601ION     NA47805  15.939  12.788  11.185 -0.2797  0.0445 -0.1075
29602ION     NA47806  12.555  13.921  11.027  0.2240  0.0913 -0.0928
29603ION     NA47807  17.311   3.258   6.183  0.0137  0.2224  0.1992
29604ION     NA47808  13.135  14.531   6.426  0.1328 -0.1298  0.4885
29605ION     NA47809  15.492  14.529  11.050 -0.1319 -0.0325  0.1510
29606ION     NA47810  15.118  13.156   2.648 -0.2855  0.1282 -0.0777
29607ION     NA47811  14.513   7.262  16.768  0.1402  0.1419 -0.0257
29608ION     NA47812   0.082  13.050   5.440 -0.0202  0.2768 -0.0645
29609ION     NA47813  12.888   6.896   6.265 -0.0554  0.0455  0.0810
29610ION     NA47814  16.313   7.316   6.127 -0.2142  0.4124  0.1105
29611ION     NA47815  16.518   1.808   6.066  0.1926  0.4781  0.2050
29612ION     NA47816   8.165   2.399   5.734  0.2274  0.2124 -0.0527
29613ION     NA47817   3.647   6.001   6.030 -0.0806  0.1016  0.0909
29614ION     NA47818   4.919  10.806  11.368 -0.1208  0.0300 -0.0951
29615ION     NA47819   3.190  14.486   6.114 -0.1034  0.1487  0.2931
29616ION     NA47820   9.223   3.666   6.178  0.1141  0.0345  0.2179
29617ION     NA47821   3.412   7.318   5.726  0.2770  0.1012  0.0556
29618ION     NA47822  14.111  11.191   6.139 -0.0336 -0.0002  0.0035
29619ION     NA47823   4.809   5.441  11.175 -0.2717 -0.0916 -0.1676
29620ION     NA47824  10.031   3.448   6.310  0.1227  0.1671  0.2418
29621ION     NA47825  16.540  10.438   0.663  0.0923 -0.0195 -0.1177
29622ION     NA47826  11.515   0.224   6.206 -0.3039 -0.1222  0.0633
29623ION     NA47827   7.751   4.862   6.225  0.0036  0.0753 -0.0456
29624ION     NA47828   6.613  16.025  16.272  0.1183  0.2394  0.1663
29625ION     NA47829   1.696  16.673  13.828 -0.1930 -0.3006 -0.5365
29626ION     NA47830   4.523   9.262   5.540  0.2430  0.1972 -0.1724
29627ION     NA47831   9.079   8.610  10.965 -0.1003 -0.1860  0.0289
29628ION     NA47832   5.335   2.786  11.600 -0.0763  0.1611 -0.0044
29629ION     NA47833   7.436  12.513  10.994  0.0693 -0.0607 -0.1137
29630ION     NA47834  15.479   4.480   6.185 -0.1114 -0.1933  0.1346
29631ION     NA47835   4.586  13.186   6.114  0.1882  0.0423 -0.1005
29632ION     NA47836  10.133  11.610   4.420 -0.0043  0.2015 -0.0528
29633ION     NA47837   7.359  12.126   6.098 -0.1307 -0.3201  0.0016
29634ION     NA47838   9.898  15.349   6.013  0.1355  0.3182  0.0111
29635ION     NA47839  17.523   3.143   2.878 -0.4023  0.1831 -0.1285
29636ION     NA47840  17.363   1.066  11.397  0.1523  0.0484  0.2410
29637ION     NA47841  15.254  13.133  11.006 -0.4168 -0.0182 -0.3492
29638ION     NA47842   0.884  17.395  11.513 -0.2475 -0.0101 -0.1117
29639ION     NA47843   8.764  16.482  14.650 -0.3573  0.2907 -0.0868
29640ION     NA47844   7.011  13.926  11.812  0.2325 -0.0611  0.1849
29641ION     NA47845   2.410  14.314   6.200 -0.0049 -0.0812  0.1243
29642ION     NA47846   6.730   2.637   0.990 -0.2684 -0.1169  0.0612
29643ION     NA47847   0.734  14.738   5.862  0.0783  0.1001 -0.0595
29644ION     NA47848   2.686   8.791   4.164  0.1376  0.1835  0.3083
29645ION     NA47849  14.511  16.042  11.347  0.0011 -0.6949 -0.2124
29646ION     NA47850  16.889  10.050  15.088  0.2737  0.2777  0.1026
29647ION     NA47851  15.022   7.800  12.089 -0.3141  0.0956  0.0998
29648ION     NA47852   8.043   0.379  11.367 -0.1855  0.3629 -0.0116
29649ION     NA47853   3.628   2.724  11.458  0.2279 -0.1226  0.1310
29650ION     NA47854   5.115   2.181   6.004 -0.2669  0.1081  0.0213
29651ION     NA47855   3.839  15.111  11.638  0.0510  0.2796 -0.0212
29652ION     NA47856   4.712   2.790  12.229  0.1427 -0.2600 -0.0196
29653ION     NA47857   7.498  16.288  11.246  0.1322  0.2916  0.2789
29654ION     NA47858  16.628   7.060  11.404 -0.1501  0.0302  0.1344
29655ION     NA47859  15.841   4.108   6.055 -0.0891 -0.2772  0.1464
29656ION     NA47860   4.935   5.128   6.166 -0.0051 -0.0754  0.1698
29657ION     NA47861  10.334   1.011  11.667  0.0595  0.1721 -0.0549
29658ION     NA47862   9.188   0.657   4.942 -0.3821 -0.0231  0.2475
29659ION     NA47863   1.152  11.388  10.890 -0.0641 -0.2383  0.1177
29660ION     NA47864  10.333   0.050  11.364  0.0180  0.0697 -0.0026
29661ION     NA47865  12.867  13.042  11.242 -0.0639 -0.0385  0.1783
29662ION     NA47866   9.874  16.750  11.407  0.2487 -0.0801  0.3945
29663ION     NA47867   1.528   6.133   5.993  0.2964  0.3253  0.2526
29664ION     NA47868   5.780   3.742  15.689  0.4157  0.0649 -0.3549
29665ION     NA47869   8.225   6.279   5.820 -0.0382 -0.0017  0.0532
29666ION     NA47870   2.620   6.075  11.300  0.0483 -0.0775 -0.0035
29667ION     NA47871   0.855  16.634   5.435  0.4610  0.1106  0.0504
29668ION     NA47872   0.980  16.041  12.343  0.1140  0.1186 -0.0394
29669ION     NA47873  17.515  13.122   5.941  0.0260  0.0500 -0.2336
29670ION     NA47874  13.369  15.521  11.457 -0.0857  0.2245 -0.2692
29671ION     NA47875   1.988   1.504  11.454  0.0082 -0.2320 -0.0774
29672ION     NA47876  14.713   0.129  12.588  0.2542  0.1362 -0.1267
29673ION     NA47877   5.181  11.706  11.318 -0.0596  0.3151 -0.1428
29674ION     NA47878   6.941  10.955   2.988  0.1604  0.4317  0.1896
29675ION     NA47879   8.528  10.662   5.925  0.1014  0.0308 -0.0749
29676ION     NA47880  17.524  12.220  13.802 -0.0156  0.1252 -0.0570
29677ION     NA47881   7.246   1.956   5.930  0.1271 -0.1435 -0.3718
29678ION     NA47882  11.340   5.114  11.463 -0.0285 -0.1737  0.2322
29679ION     NA47883  13.962   6.153  11.317 -0.2195 -0.1209 -0.0674
29680ION     NA47884   2.759   0.226   6.138  0.1846 -0.1815 -0.0679
29681ION     NA47885  14.396   1.636   6.233 -0.0630  0.1856 -0.0318
29682ION     NA47886  13.160  11.002   3.094 -0.0665 -0.3058  0.2890
29683ION     NA47887   5.387   7.763   5.557 -0.1958 -0.1536  0.0123
29684ION     NA47888  15.709  13.730   2.992 -0.0971  0.2107  0.1009
29685ION     NA47889  16.662   3.977  11.656 -0.0106  0.0104  0.1167
29686ION     NA47890  14.190   6.986  12.408  0.3023 -0.1309  0.4611
29687ION     NA47891   1.937   4.717  11.152  0.0716 -0.3063 -0.0039
29688ION     NA47892   2.365   6.796   1.035  0.2738  0.1714 -0.1234
29689ION     NA47893   2.888  10.987  15.144 -0.0582  0.0993 -0.2697
29690ION     NA47894   5.513   4.433   6.133  0.0788  0.3430  0.3278
29691ION     NA47895  10.918  11.766   2.718  0.0209  0.0267  0.3138
29692ION     NA47896   5.212   9.050   5.811  0.2471 -0.1825 -0.2686
29693ION     NA47897   9.872   5.701   5.799  0.3305 -0.1818  0.1100
29694ION     NA47898  12.555  12.204  10.947 -0.4043 -0.1270 -0.1741
29695ION     NA47899  14.011   5.092   0.241  0.1363  0.0514  0.0219
29696ION     NA47900   8.906  14.681  11.063  0.0244  0.4394  0.0710
29697ION     NA47901   1.251   7.168  10.991  0.0571 -0.1339  0.1154
29698ION     NA47902  14.604   7.007   5.977 -0.1002  0.2888 -0.0389
29699ION     NA47903  10.737   6.544   6.277 -0.0360  0.2329  0.1170
29700ION     NA47904   0.776   9.167  10.955 -0.0967  0.0796  0.0405
29701ION     NA47905  16.424   5.610  11.498  0.1668  0.5001  0.3231
29702ION     NA47906   5.962  15.658  11.197  0.0465  0.2352  0.0206
29703ION     NA47907   0.324  15.591  11.306  0.3338  0.0386 -0.0444
29704ION     NA47908  12.369   3.203  11.506 -0.1390  0.2153 -0.1222
29705ION     NA47909  15.431  11.673   4.474  0.1201  0.0009  0.3479
29706ION     NA47910   4.424   2.387  11.406 -0.1900  0.0600  0.2208
29707ION     NA47911  12.277   1.608   6.101  0.0259  0.3312 -0.0888
29708ION     NA47912   7.957  11.901  11.027  0.4580 -0.0838  0.0887
29709ION     NA47913  10.796   7.017  11.223 -0.1120 -0.0537 -0.0798
29710ION     NA47914   8.567  12.924   6.110 -0.1440  0.1271  0.2407
29711ION     NA47915   9.359  13.522  14.725  0.1679 -0.2076  0.0384
29712ION     NA47916   8.484   8.464  11.007  0.1847  0.1964  0.0683
29713ION     NA47917   1.238   2.175  11.340  0.0535 -0.1315  0.1769
29714ION     NA47918   4.797   4.285   2.022  0.2181 -0.1497 -0.1133
29715ION     NA47919   8.563  10.448   2.764  0.0321  0.2402  0.2156
29716ION     NA47920   6.166   5.047   5.967 -0.0802  0.0825  0.0233
29717ION     NA47921  10.885  12.206  11.116  0.2276  0.0166  0.3994
29718ION     NA47922   0.512  13.949  13.772 -0.2009 -0.0471 -0.0680
29719ION     NA47923   0.494   5.075  11.293  0.0212  0.1010  0.0526
29720ION     NA47924  16.429   1.758   3.055 -0.1472  0.2184  0.0860
29721ION     NA47925  10.830   5.684   1.880  0.1144 -0.0263 -0.2090
29722ION     NA47926   7.096  10.607   5.617  0.0321 -0.1740  0.5000
29723ION     NA47927  16.074  14.548  10.983  0.1104 -0.1626 -0.0049
29724ION     NA47928  16.070   3.107   6.050 -0.1654 -0.0751  0.0128
29725ION     NA47929   7.175  16.916   6.120  0.2679  0.0054 -0.1384
29726ION     NA47930   1.813   3.455  16.272 -0.2731  0.0803 -0.0260
29727ION     NA47931  16.881   7.804   5.443 -0.2065  0.1422  0.0877
29728ION     NA47932   5.505   5.925  16.107 -0.1548  0.2476 -0.1111
29729ION     NA47933  11.986  17.318   3.874  0.0975 -0.0957 -0.0846
29730ION     NA47934   0.522   1.283  11.393 -0.2181 -0.0170 -0.0950
29731ION     NA47935   7.161   3.947  11.457 -0.0222  0.2147  0.2721
29732ION     NA47936   8.474   9.284   5.324 -0.3146 -0.1784  0.3182
29733ION     NA47937   5.877   8.588  11.157 -0.0283 -0.2335  0.1985
29734ION     NA47938   2.866  10.136  11.312 -0.0431  0.1766  0.2121
29735ION     NA47939  16.399   9.243  11.189  0.2353  0.0449  0.0239
29736ION     NA47940  16.393  13.505   5.239  0.2182 -0.1262  0.1718
29737ION     NA47941  13.896   3.196  11.884  0.0450 -0.0109 -0.0094
29738ION     NA47942  16.780  12.948   6.324  0.1764  0.0268  0.0021
29739ION     NA47943  15.590   5.046  11.408 -0.1663 -0.0444  0.0363
29740ION     NA47944  16.017   3.866  11.381  0.3206  0.0041 -0.0602
29741ION     NA47945  15.155   8.805   3.845  0.0790 -0.0717 -0.0945
29742ION     NA47946   3.239   1.537   3.933  0.2612 -0.3376 -0.1435
29743ION     NA47947   0.905   8.217   5.418  0.1429 -0.0749  0.2865
29744ION     NA47948   5.343   1.297  10.982 -0.3134  0.3395 -0.4185
29745ION     NA47949  15.793  11.640   2.181  0.1746  0.2665  0.1595
29746ION     NA47950  17.525   6.170   5.803 -0.2385  0.1397 -0.1552
29747ION     NA47951  10.240   0.403   4.774 -0.0454 -0.0555 -0.0603
29748ION     NA47952   4.748   6.438  11.209 -0.0992  0.2389  0.2098
29749ION     NA47953  14.761   6.017   6.174 -0.1271  0.2657 -0.1120
29750ION     NA47954   1.428  11.934   6.133 -0.0379  0.0934  0.1866
29751ION     NA47955   3.508   4.037   6.235  0.0844  0.1668  0.1215
29752ION     NA47956  13.591   6.643  11.431 -0.0596  0.1237 -0.0162
29753ION     NA47957  16.470   3.023  11.426 -0.0766  0.0536 -0.0081
29754ION     NA47958  12.061   1.781  11.520  0.2232 -0.2262 -0.4497
29755ION     NA47959   2.831   7.550  11.628  0.3775 -0.0624 -0.2395
29756ION     NA47960  11.302   9.180   5.786 -0.0598 -0.5591  0.0491
29757ION     NA47961   4.221  10.262  13.865 -0.0218  0.2641 -0.0646
29758ION     NA47962   4.168  10.054   5.956 -0.0749 -0.0472 -0.1143
29759ION     NA47963  11.162   9.132  11.985 -0.0241 -0.0981 -0.1649
29760ION     NA47964   7.947   9.960  11.148 -0.2178  0.4176  0.0012
29761ION     NA47965  14.795   0.770   6.151  0.1845  0.1129 -0.2392
29762ION     NA47966   1.885  15.076  11.146  0.1623  0.0095  0.1365
29763ION     NA47967   9.424   6.788   1.539  0.1248 -0.0333 -0.2290
29764ION     NA47968   3.008  16.159  12.833  0.2505 -0.2002 -0.0655
29765ION     NA47969  10.930   6.699   0.762 -0.3498  0.0745 -0.0972
29766ION     NA47970  13.938   9.437  11.096  0.2414  0.0079 -0.1526
29767ION     NA47971   8.035  10.533   5.911  0.2991 -0.1057 -0.1082
29768ION     NA47972   3.657  10.755  11.257 -0.0167 -0.0923  0.1877
29769ION     NA47973  14.286  17.295  16.529 -0.1292  0.2459  0.0365
29770ION     NA47974   1.382   9.850  11.046 -0.2904 -0.0862 -0.0128
29771ION     NA47975   9.333  13.614   6.122  0.1467  0.3680  0.0137
29772ION     NA47976   0.238  16.808  11.232  0.2766  0.2663  0.2700
29773ION     NA47977   7.525  14.929  17.192  0.2493 -0.1463  0.0398
29774ION     NA47978  16.029   8.765   5.599 -0.2496 -0.1191 -0.0300
29775ION     NA47979   7.199  11.927   5.147  0.1843 -0.4475 -0.2219
29776ION     NA47980  14.583  16.739  11.635 -0.1563  0.2026  0.2769
29777ION     NA47981   7.247   4.805   0.307 -0.0894 -0.0810 -0.1359
29778ION     NA47982   0.298  16.959   0.137 -0.2346  0.1500 -0.3683
29779ION     NA47983   2.579  12.682   3.803  0.2231  0.0448  0.0551
29780ION     NA47984   5.245   6.895  13.823 -0.0482  0.1285  0.3037
29781ION     NA47985   1.698  12.661  11.112 -0.0752  0.2116 -0.0589
29782ION     NA47986   1.465   4.248   6.082  0.2370  0.3126  0.0658
29783ION     NA47987   7.414  13.918  11.065 -0.0577 -0.2249 -0.0945
29784ION     NA47988   6.457   8.004   5.745  0.1040 -0.1237  0.1311
29785ION     NA47989  17.147  16.122  11.479 -0.1462  0.0280  0.2801
29786ION     NA47990  15.692  13.863  13.765 -0.2065 -0.2096  0.2195
29787ION     NA47991   2.179   9.384   5.644 -0.1551 -0.3097 -0.1233
29788ION     NA47992   7.698   3.510   6.144 -0.1240  0.2167 -0.0625
29789ION     NA47993   7.254   9.470  16.699 -0.2068 -0.1429  0.1279
29790ION     NA47994  14.694  10.566  11.937  0.1336 -0.1429  0.1506
29791ION     NA47995   4.125  15.918  12.834  0.0303  0.0062 -0.0568
29792ION     NA47996   4.820  17.408  11.302 -0.1777  0.0340  0.2186
29793ION     NA47997   7.424   6.637   3.595  0.0914  0.0367 -0.0159
29794ION     NA47998   9.843   4.761  14.209 -0.0916 -0.1268  0.1454
29795ION     NA47999   1.324  15.657  11.213  0.3027 -0.1971  0.1383
29796ION     NA48000  11.382   1.519  11.689 -0.0872 -0.2378  0.1915
29797ION     NA48001   6.517  12.483  11.240  0.1522 -0.1077  0.2844
29798ION     NA48002   1.828   8.232   5.601 -0.2824 -0.3030 -0.0034
29799ION     NA48003   3.766   0.048   5.978  0.3146 -0.3299 -0.1895
29800ION     NA48004   6.515  15.220  13.704 -0.2087 -0.1853  0.1993
29801ION     NA48005  13.896   9.559   5.916 -0.0762 -0.2305 -0.0601
29802ION     NA48006   4.685  16.487   5.972  0.2283 -0.0770 -0.1797
29803ION     NA48007  14.754  10.089  10.907 -0.0959 -0.3278  0.1876
29804ION     NA48008  12.596  10.190   5.975  0.1407 -0.2032  0.0216
29805ION     NA48009  12.991   3.856  14.015  0.2455 -0.2139  0.0267
29806ION     NA48010  14.461   7.968   5.842  0.1088  0.0223  0.2811
29807ION     NA48011   2.919  15.681  11.581 -0.0849  0.1959 -0.2350
29808ION     NA48012  10.071  16.192   6.114  0.1437 -0.0892  0.0105
29809ION     NA48013  16.764   6.409   6.074  0.0471  0.0265 -0.0156
29810ION     NA48014   3.442  17.381   0.157 -0.4920  0.0050 -0.3348
29811ION     NA48015  15.283   0.324  13.364 -0.2163  0.0373 -0.2285
29812ION     NA48016   8.069   6.960   5.329 -0.0686  0.1101 -0.1050
29813ION     NA48017   7.117  10.069  11.151  0.2421 -0.3270 -0.3986
29814ION     NA48018  16.170   9.409  16.680  0.1832 -0.0762 -0.1529
29815ION     NA48019  14.421  11.442  13.946 -0.0197  0.0755 -0.3915
29816ION     NA48020  15.650   0.306  11.619  0.0017  0.2055  0.3288
29817ION     NA48021   7.903   3.512   4.461 -0.0579 -0.0929 -0.0652
29818ION     NA48022   4.316   0.741   5.805 -0.1402 -0.0876  0.1743
29819ION     NA48023  14.585   6.307   2.283  0.4586 -0.1120 -0.0134
29820ION     NA48024   9.785  16.074  11.400 -0.2281  0.0619  0.2632
29821ION     NA48025   8.698   3.591  12.927 -0.1603  0.0839 -0.1852
29822ION     NA48026   6.811   1.930  15.469 -0.0036 -0.0976 -0.2418
29823ION     NA48027   1.965   1.006   5.355 -0.0910  0.1913 -0.1730
29824ION     NA48028  10.506   8.628   6.025 -0.2752 -0.0061  0.3221
29825ION     NA48029  13.205  15.032   6.731  0.0955 -0.6027  0.0487
29826ION     NA48030   6.494   9.515  11.136 -0.0165  0.2080  0.0633
29827ION     NA48031  13.631   6.586   6.286  0.0634 -0.1771  0.2535
29828ION     NA48032   7.954  14.711   5.844 -0.2360  0.0525 -0.4323
29829ION     NA48033   2.429   9.259  11.132  0.1257  0.0352 -0.3064
29830ION     NA48034   6.715   9.392   5.757 -0.2871 -0.0540  0.0396
29831ION     NA48035  14.064  13.206   6.566 -0.0252 -0.0722  0.0008
29832ION     NA48036   7.498  16.107   6.120  0.1471  0.0468  0.2358
29833ION     NA48037  15.593  11.474  11.281 -0.0236  0.3376  0.0559
29834ION     NA48038  15.668   6.354  11.806  0.0768  0.1718 -0.1400
29835ION     NA48039  16.163  17.078   6.591  0.1919 -0.2149  0.1048
29836ION     NA48040   1.955  13.287   6.135  0.0785  0.2543  0.1647
29837ION     NA48041   4.888   9.860  11.387  0.0526  0.0305  0.1605
29838ION     NA48042  15.219   3.564   6.232  0.3981  0.1266  0.0484
29839ION     NA48043  15.167   8.464   5.843  0.1279  0.2516  0.0993
29840ION     NA48044   8.642  14.230   1.360  0.3890 -0.0239 -0.0537
29841ION     NA48045   7.751  11.311   5.820  0.1194 -0.3926 -0.0519
29842ION     NA48046   2.753   8.509   5.925 -0.1732  0.1336 -0.1000
29843ION     NA48047   4.003   6.577   6.087  0.1592 -0.2841 -0.0404
29844ION     NA48048   2.692   3.892   6.193  0.0991  0.2747  0.1935
29845ION     NA48049  12.182  15.043  11.663  0.2895  0.2326  0.0821
29846ION     NA48050   7.754   5.049  11.350  0.1707 -0.0051  0.0839
29847ION     NA48051   6.548  10.976  11.040  0.1038 -0.1414 -0.1328
29848ION     NA48052   8.516   7.774  11.172  0.2318 -0.2507 -0.1951
29849ION     NA48053  12.963  16.317   2.908  0.0054 -0.1656 -0.2821
29850ION     NA48054   3.377  16.544  11.308 -0.0825  0.0186 -0.0510
29851ION     NA48055   4.571   9.540   3.812  0.1423 -0.1261  0.0493
29852ION     NA48056  12.498   4.094  11.208 -0.0214 -0.0741  0.2248
29853ION     NA48057  12.170  11.519   2.215 -0.0969  0.0559  0.1309
29854ION     NA48058  15.275  14.982  15.891 -0.4181  0.0670 -0.1969
29855ION     NA48059  11.668  15.507  11.155 -0.0022 -0.0854 -0.1348
29856ION     NA48060   5.900   3.116  14.459  0.0526 -0.2041  0.0366
29857ION     NA48061  16.227   2.236   5.996 -0.1553  0.2369  0.3474
29858ION     NA48062  11.552  13.583  10.981  0.2597  0.0200  0.0631
29859ION     NA48063  12.448   6.304   6.347 -0.1333  0.0079  0.1073
29860ION     NA48064   8.748   6.313  11.483  0.0301  0.1249 -0.1924
29861ION     NA48065  12.318   0.809   6.386  0.3149 -0.1205 -0.0085
29862ION     NA48066  13.789   2.774   6.071  0.2217  0.0639  0.1269
29863ION     NA48067   9.891   2.746   6.005  0.1666  0.0746  0.0594
29864ION     NA48068  13.084   9.609   5.808 -0.2306 -0.3057 -0.1205
29865ION     NA48069   1.896   6.572  11.282  0.0128 -0.1322 -0.0778
29866ION     NA48070   8.276  14.223  10.826  0.0934 -0.2089 -0.1623
29867ION     NA48071   5.772  13.391   2.448  0.3011  0.2897  0.0005
29868ION     NA48072   9.975  14.386   6.187 -0.0123 -0.1657 -0.1237
29869ION     NA48073   3.608   0.462  11.359 -0.0460  0.3217 -0.1675
29870ION     NA48074   2.087   2.422  11.395 -0.3561 -0.0846  0.0040
29871ION     NA48075  17.296  14.374   6.228  0.0854  0.5182 -0.3315
29872ION     NA48076  16.500   7.058   0.290  0.0073 -0.1758  0.1786
29873ION     NA48077   9.173   5.809   6.030 -0.1817  0.1052  0.1166
29874ION     NA48078  12.813  16.550  11.823 -0.2491  0.1877  0.1108
29875ION     NA48079   3.729  13.498   3.221  0.1122 -0.0088 -0.0758
29876ION     NA48080   2.170  17.439   1.632 -0.0409 -0.0855 -0.0769
29877ION     NA48081   2.641  11.204   5.693  0.0136  0.3380 -0.0344
29878ION     NA48082  16.318  17.162  11.692  0.0742  0.0823  0.1010
29879ION     NA48083   5.495  13.856   6.046  0.0324  0.0125  0.0030
29880ION     NA48084   2.927   6.478   5.741  0.2760 -0.1968  0.0895
29881ION     NA48085   8.485   3.333   5.725 -0.3415 -0.0496  0.4391
29882ION     NA48086   6.593  17.303  11.543  0.3147  0.1400 -0.2871
29883ION     NA48087   7.464  13.016  12.003 -0.4296 -0.1514 -0.2793
29884ION     NA48088  14.801   5.904  15.134 -0.1751  0.0582 -0.0663
29885ION     NA48089  10.971   9.783  16.156  0.0783  0.0110 -0.1521
29886ION     NA48090   7.129   6.267   5.810 -0.1613 -0.0808 -0.0107
29887ION     NA48091   4.541  12.287   5.984 -0.0830  0.0211 -0.0165
29888ION     NA48092  13.133   5.943   6.146 -0.0038  0.1337 -0.1042
29889ION     NA48093   2.744   1.913   6.095 -0.2789 -0.0543  0.1024
29890ION     NA48094   2.341  13.245  16.631 -0.1093  0.0171 -0.0257
29891ION     NA48095   6.497  11.516  14.102 -0.0004  0.1238  0.1046
29892ION     NA48096   7.668  17.265  11.585  0.1132 -0.0440  0.3262
29893ION     NA48097   5.203  13.092   0.100  0.1314 -0.0464  0.1579
29894ION     NA48098  12.178   8.700  11.314 -0.0608  0.4752  0.3202
29895ION     NA48099   0.536   2.091   5.394  0.0863 -0.1017  0.2327
29896ION     NA48100   6.784   1.616   5.932  0.2853  0.0399 -0.0536
29897ION     NA48101   7.021  16.945  11.505  0.0646 -0.1478 -0.0427
29898ION     NA48102  11.920  16.340  12.810 -0.3555 -0.0717  0.0213
29899ION     NA48103  12.123  11.444  10.970  0.0057  0.0505  0.0957
29900ION     NA48104   4.541  15.707  11.842 -0.2323  0.1663 -0.0732
29901ION     NA48105   3.690   1.793  11.601 -0.2004  0.0515 -0.0020
29902ION     NA48106   7.908   0.006  13.025  0.0256 -0.0652 -0.2591
29903ION     NA48107   6.066  15.513   5.993  0.1986  0.0169 -0.0904
29904ION     NA48108   0.765   6.462   6.079 -0.0369 -0.0079  0.1107
29905ION     NA48109  13.371  14.500   3.011  0.0450 -0.0411 -0.1238
29906ION     NA48110  16.813   4.577   6.263  0.1889 -0.1623  0.3500
29907ION     NA48111  16.557  15.627   6.320  0.1678  0.3327  0.1578
29908ION     NA48112  12.096   1.457   3.523 -0.0423 -0.0959  0.1816
29909ION     NA48113  16.282   6.566  13.466 -0.2254 -0.0449  0.1240
29910ION     NA48114   4.127  13.054  11.429 -0.2710  0.1362  0.0419
29911ION     NA48115   7.616   2.852  11.307  0.1934  0.0464 -0.0965
29912ION     NA48116   5.491   1.757  16.266 -0.0336  0.1734  0.0414
29913ION     NA48117  15.068   9.984   6.140 -0.0786  0.0415 -0.0316
29914ION     NA48118   2.524   4.989   6.148 -0.1536 -0.1865  0.2745
29915ION     NA48119   6.371  14.591   5.811 -0.0593 -0.1164 -0.3358
29916ION     NA48120   8.204   5.355  16.576 -0.0414  0.1354 -0.1458
29917ION     NA48121   5.329   9.877   5.873  0.0794  0.2439  0.1935
29918ION     NA48122  11.819  10.804   6.041  0.2697  0.0789  0.0145
29919ION     NA48123   4.964   2.768  16.386  0.1460  0.0562 -0.2474
29920ION     NA48124  14.870   9.258  11.422  0.2670  0.0605 -0.1597
29921ION     NA48125  12.814   2.370  11.613 -0.3346  0.1955  0.0631
29922ION     NA48126   6.930   4.895  11.346 -0.2311 -0.3020 -0.1014
29923ION     NA48127  13.779   7.252   6.172  0.1612  0.0199 -0.0787
29924ION     NA48128   6.416   5.389  11.241 -0.1940  0.0207 -0.0392
29925ION     NA48129   0.701   3.875   0.351  0.0838 -0.0481  0.0075
29926ION     NA48130   0.977   8.678   1.313 -0.0456  0.1317  0.0588
29927ION     NA48131  16.055   5.672   5.955  0.1312 -0.2282 -0.3186
29928ION     NA48132   5.823   9.875   5.942  0.0758  0.0362  0.0459
29929ION     NA48133   5.332  17.023   6.052 -0.3753  0.0527  0.1210
29930ION     NA48134  14.516  17.161   6.432 -0.0735  0.0916 -0.1520
29931ION     NA48135   4.809  15.412  11.533  0.1434  0.0891  0.1622
29932ION     NA48136  14.342   9.017   3.509 -0.2541 -0.1202  0.0743
29933ION     NA48137  14.586   6.495  11.692  0.1026  0.2538 -0.2257
29934ION     NA48138  12.936   3.107   5.173  0.2933 -0.0911 -0.1930
29935ION     NA48139  10.704   4.379  11.344 -0.0372 -0.2577  0.1629
29936ION     NA48140   3.034  13.580   6.096 -0.1859  0.1770 -0.1186
29937ION     NA48141  11.425  16.277  15.076  0.2060  0.2599 -0.0375
29938ION     NA48142   6.336   4.077  14.755 -0.3054 -0.1712 -0.1894
29939ION     NA48143   8.474  16.019   3.248 -0.2310 -0.1825  0.2443
29940ION     NA48144   0.027   3.590   3.011 -0.0594 -0.3542  0.0074
29941ION     NA48145  17.440  12.569  12.660  0.0122 -0.0038  0.0228
29942ION     NA48146   7.199  12.345   1.851 -0.0318 -0.0441 -0.2007
29943ION     NA48147   7.903   7.121  11.154  0.3075  0.0296  0.1095
29944ION     NA48148   5.004   8.407  11.602 -0.0400 -0.1659  0.1131
29945ION     NA48149  13.372  17.054   6.426  0.1914  0.0767 -0.0846
29946ION     NA48150   2.095  10.870   0.562  0.0255 -0.0207 -0.2550
29947ION     NA48151   5.407  11.728   5.960  0.4102 -0.0341 -0.0172
29948ION     NA48152   3.424  11.510  11.156 -0.0245  0.2408 -0.0005
29949ION     NA48153  11.022  11.065   5.825 -0.0577 -0.1419  0.0237
29950ION     NA48154  14.934  15.421   6.790 -0.1339  0.1044  0.2545
29951ION     NA48155   1.362  17.167   6.156  0.0712  0.1085  0.1315
29952ION     NA48156  17.538  11.465  12.755  0.0259  0.0952 -0.1676
29953ION     NA48157  16.837  14.968  11.069 -0.1169  0.3329  0.2354
29954ION     NA48158   1.906   1.974   6.091 -0.0833 -0.0925  0.3451
29955ION     NA48159  15.565   5.801  11.641 -0.0640 -0.1371  0.1068
29956ION     NA48160  14.157  10.143  11.331 -0.0425 -0.1673 -0.2480
29957ION     NA48161  15.619   3.123  11.690 -0.2046  0.2597  0.0029
29958ION     NA48162   7.158   7.250   5.760 -0.0925  0.0196  0.2560
29959ION     NA48163   5.139   1.986  11.159 -0.1310  0.2923 -0.0398
29960ION     NA48164   7.444  10.811  11.051 -0.0227  0.2404 -0.2084
29961ION     NA48165   2.276   6.293  12.780  0.0194  0.0517  0.0491
29962ION     NA48166   6.587  14.038  11.406  0.1449 -0.1813 -0.3371
29963ION     NA48167   8.095   3.631  11.672  0.4767  0.0844 -0.1528
29964ION     NA48168   6.158   1.959  12.657  0.0429  0.0572  0.0667
29965ION     NA48169  13.731   7.553  11.327  0.3244 -0.0607  0.0520
29966ION     NA48170   9.476  13.820  10.906 -0.1245 -0.2609  0.0448
29967ION     NA48171   1.179  14.474   2.077 -0.1701 -0.0105 -0.0209
29968ION     NA48172   0.963   0.728   4.362 -0.0179 -0.0762  0.0851
29969ION     NA48173  14.737  14.548   6.447  0.2180  0.3788  0.0007
29970ION     NA48174  11.228   4.549   5.882 -0.0629 -0.1767  0.0954
29971ION     NA48175   7.249   1.068  15.445 -0.1545 -0.1390  0.1696
29972ION     NA48176   4.012  11.452   5.911 -0.5707  0.0833 -0.1724
29973ION     NA48177  16.714   3.152  15.590  0.1308 -0.1664  0.3023
29974ION     NA48178   0.552   4.962   6.087  0.1928  0.0323 -0.0234
29975ION     NA48179  17.442  10.429  11.079 -0.1770 -0.3219  0.0632
29976ION     NA48180   9.734  12.811   6.349 -0.1508  0.0298 -0.1002
29977ION     NA48181   9.817   4.330   6.247 -0.2197  0.1345  0.0452
29978ION     NA48182  12.919   1.474  11.508  0.3050  0.1340  0.0465
29979ION     NA48183   9.530  10.896   5.811  0.0024  0.2826 -0.0047
29980ION     NA48184   0.579   5.361   3.047 -0.5978  0.1682  0.3490
29981ION     NA48185   1.387   3.750  11.631  0.1406 -0.0859  0.0564
29982ION     NA48186   8.668   3.487   6.155  0.0236 -0.0750  0.0111
29983ION     NA48187  15.690   7.060  11.430 -0.0695 -0.1680  0.2747
29984ION     NA48188   2.066   6.810   6.057 -0.2308 -0.0960 -0.0576
29985ION     NA48189  16.828  12.562   6.030 -0.0455 -0.1717  0.0687
29986ION     NA48190   7.683  14.209  12.697 -0.0330  0.2090 -0.0485
29987ION     NA48191  10.866   9.987  12.301  0.4876 -0.1158  0.0385
29988ION     NA48192  12.971  10.955  10.838 -0.1008  0.0451 -0.0484
29989ION     NA48193   1.837   5.278   4.040 -0.0098 -0.1601 -0.0164
29990ION     NA48194   7.709  15.665   5.968 -0.0830  0.3477 -0.0930
29991ION     NA48195  15.155  17.088   6.922  0.3777  0.5204  0.1086
29992ION     NA48196   3.056  15.123   6.223  0.0573 -0.0015  0.3494
29993ION     NA48197  10.183   6.941   6.154  0.3416  0.0844 -0.0256
29994ION     NA48198  10.841   6.634  12.604 -0.0265  0.3232  0.0292
29995ION     NA48199   6.359   3.358  11.483  0.3170 -0.1424  0.1744
29996ION     NA48200   7.505   1.075   5.892  0.1085  0.1604 -0.0700
29997ION     NA48201   6.170   6.041   2.483  0.0371  0.0626 -0.0770
29998ION     NA48202  13.910  14.295   6.784 -0.0876 -0.0442 -0.0592
29999ION     NA48203   2.723  10.982  11.168 -0.0997 -0.1510  0.0319
30000ION     NA48204   2.483  10.772   3.513 -0.3301 -0.0639 -0.0544
30001ION     NA48205  11.658   9.948   5.741  0.0173 -0.2866 -0.0588
30002ION     NA48206   0.797  13.001  10.905 -0.1532  0.3848  0.0949
30003ION     NA48207   6.014  10.867   2.344  0.1582  0.0838 -0.0426
30004ION     NA48208  12.842   7.446  11.379 -0.0167 -0.1054 -0.3113
30005ION     NA48209   8.202  12.585   5.845  0.2461 -0.2713 -0.1674
30006ION     NA48210  15.011  12.855  16.610  0.4362  0.2456  0.0589
30007ION     NA48211   8.814  14.250   5.932 -0.4056 -0.2435 -0.1060
30008ION     NA48212   9.176   6.618  11.626  0.3979 -0.1918 -0.0132
30009ION     NA48213   9.800   7.454   0.847 -0.2191 -0.0817 -0.1670
30010ION     NA48214   8.988  11.453   5.920 -0.3557 -0.0268  0.0769
30011ION     NA48215   2.189  11.367   5.882  0.1398  0.3101 -0.2853
30012ION     NA48216  11.804  12.417  12.293 -0.4153  0.0268  0.0335
30013ION     NA48217  13.038   3.307  11.156 -0.0203  0.0920 -0.3386
30014ION     NA48218   5.493  14.142  11.670  0.2296 -0.0499 -0.2642
30015ION     NA48219  11.600   1.260   6.111  0.1948 -0.4975  0.1465
30016ION     NA48220  12.016  17.459  11.481  0.0723  0.1189  0.0088
30017ION     NA48221   7.702  15.620  11.734 -0.0588  0.1931 -0.2529
30018ION     NA48222   9.517   1.651  15.028 -0.1193 -0.0402  0.1063
30019ION     NA48223   0.367   3.222   6.241  0.0557 -0.1486 -0.0369
30020ION     NA48224   0.171  10.874   5.350  0.2212 -0.1102  0.0101
30021ION     NA48225  16.112  14.050  12.889 -0.2231 -0.1763 -0.2571
30022ION     NA48226   2.873   4.093  12.869  0.0875 -0.0877 -0.1235
30023ION     NA48227   9.949   6.510  11.119 -0.0787  0.0110  0.0279
30024ION     NA48228   3.421  12.547  11.299 -0.1282 -0.0521  0.2538
30025ION     NA48229  16.056  13.071   6.058  0.0577 -0.3355 -0.2755
30026ION     NA48230  16.346  13.829   6.230  0.0847  0.1292  0.0337
30027ION     NA48231  16.189  16.160   6.402 -0.0849  0.0070 -0.1353
30028ION     NA48232  11.353  11.068  11.032  0.2719 -0.1381 -0.4757
30029ION     NA48233  14.713  12.060  11.107 -0.2086 -0.3454  0.1953
30030ION     NA48234  10.224  13.474   6.348  0.2713  0.2977  0.1491
30031ION     NA48235   6.225   6.392  11.161 -0.0571 -0.0787 -0.1018
30032ION     NA48236  15.856  16.419   0.819 -0.2805 -0.1579  0.0050
30033ION     NA48237  17.156  16.878  11.411 -0.3213 -0.0660  0.0421
30034ION     NA48238   4.889  15.666   5.973  0.2681  0.0147 -0.1531
30035ION     NA48239   5.465  12.755  15.037 -0.0438  0.0025 -0.2684
30036ION     NA48240   5.637   5.950  11.092 -0.2645  0.0777 -0.1351
30037ION     NA48241  13.636   2.910   3.992 -0.2168 -0.0314 -0.1607
30038ION     NA48242   4.491  10.448   5.989  0.1044 -0.3957 -0.0134
30039ION     NA48243   8.689   9.809   5.937  0.2453  0.3142  0.1829
30040ION     NA48244   7.040  11.661  11.285  0.1227 -0.2062  0.1255
30041ION     NA48245  15.893  11.315   6.009  0.0863 -0.1679  0.0646
30042ION     NA48246   1.316   7.106  14.154  0.0283  0.1159 -0.0839
30043ION     NA48247  17.365  15.307   6.290 -0.0098 -0.0757  0.0457
30044ION     NA48248  16.428  10.574   2.762  0.2385 -0.2062  0.2298
30045ION     NA48249   6.654   1.306  11.424 -0.0884  0.0618  0.1435
30046ION     NA48250   8.139  13.622   5.862 -0.1526  0.2449 -0.2050
30047ION     NA48251   8.564  17.336  11.841 -0.0365 -0.0292  0.1755
30048ION     NA48252   3.472  14.387  11.596 -0.0270  0.1882 -0.0477
30049ION     NA48253   8.976  16.898   5.856  0.1000 -0.2857  0.0461
30050ION     NA48254   3.295   2.372  16.004 -0.2554  0.0077  0.0023
30051ION     NA48255   8.217  12.033   6.162  0.1634 -0.1077 -0.1180
30052ION     NA48256   0.236   2.364   6.304  0.1669  0.3886  0.0299
30053ION     NA48257   2.773   4.364  11.372  0.1319 -0.0015 -0.0563
30054ION     NA48258   8.784   8.111   5.806 -0.1274 -0.0133 -0.1556
30055ION     NA48259  15.272  17.186  11.648 -0.0031 -0.1154 -0.1116
30056ION     NA48260   7.031  12.966   5.819 -0.1999  0.2421 -0.1051
30057ION     NA48261   0.554  17.072   5.912  0.0581 -0.0803  0.1002
30058ION     NA48262   9.504   0.735   6.161 -0.1048 -0.0324  0.1778
30059ION     NA48263   9.432   7.466  11.198  0.2556  0.2360 -0.4105
30060ION     NA48264  16.852  11.128  10.809  0.3078  0.1227  0.1847
30061ION     NA48265   7.617  10.282  15.586  0.0009  0.1811 -0.1356
30062ION     NA48266  10.314   8.001  16.733  0.0707  0.2650  0.2366
30063ION     NA48267   4.407  17.246   5.861  0.1133 -0.0433 -0.0458
30064ION     NA48268   7.210  13.239   3.766  0.1943 -0.0540 -0.3276
30065ION     NA48269   4.263   0.753   1.776  0.1113  0.3182 -0.0402
30066ION     NA48270  10.677   7.888   1.431  0.0121 -0.1312  0.1297
30067ION     NA48271  10.871  16.890  11.275 -0.0401 -0.1254 -0.1319
30068ION     NA48272   9.929   0.880   6.334  0.0574  0.2623 -0.4750
30069ION     NA48273  14.763  16.297   6.774  0.2444  0.2281 -0.0844
30070ION     NA48274  17.344   9.069  11.156  0.2292 -0.0188 -0.1134
30071ION     NA48275   2.986   8.298   4.896  0.1638  0.0011 -0.1945
30072ION     NA48276   3.322   2.447   5.730 -0.2323  0.0012 -0.1665
30073ION     NA48277   1.123   6.342  11.250 -0.1584  0.0094 -0.0461
30074ION     NA48278   6.053   2.231   5.897  0.3790  0.0477  0.1757
30075ION     NA48279   8.369   1.427   5.743  0.2547 -0.0324 -0.1084
30076ION     NA48280   7.537  14.108   4.393  0.0171  0.0244  0.0927
30077ION     NA48281   0.571  17.172  12.453 -0.1940 -0.0063  0.1573
30078ION     NA48282   7.822   1.500   5.905  0.2667 -0.1329 -0.1183
30079ION     NA48283  11.601   4.858   5.931 -0.0727 -0.0463  0.1071
30080ION     NA48284   2.848   8.701  12.325  0.2795 -0.2221 -0.4267
30081ION     NA48285  13.836  10.895  11.011  0.0312 -0.1684  0.1310
30082ION     NA48286   4.654   6.494  16.615 -0.3689  0.0673 -0.0947
30083ION     NA48287  12.911   5.866  11.184 -0.0712  0.2342 -0.0464
30084ION     NA48288   1.382  16.108   6.375  0.0086 -0.0061  0.0603
30085ION     NA48289  11.876   7.867   5.124 -0.2764 -0.3622  0.1270
30086ION     NA48290  11.389   8.308  11.299  0.1267 -0.1590 -0.1921
30087ION     NA48291   5.465  14.805   5.506 -0.0297 -0.3297  0.0492
30088ION     NA48292  10.031   8.815   2.614 -0.2112 -0.2402  0.0968
30089ION     NA48293  16.463   7.809  12.226  0.3145  0.0303  0.0811
30090ION     NA48294   4.894   6.925   5.890  0.1209 -0.1804  0.0193
30091ION     NA48295   4.858   7.558   2.205 -0.1529 -0.2522 -0.0976
30092ION     NA48296   2.631  14.642  11.378  0.0103 -0.2866  0.1108
30093ION     NA48297   3.670   2.122   5.933 -0.1709 -0.0111  0.0891
30094ION     NA48298  10.830   9.566  11.425  0.2539  0.0166  0.4273
30095ION     NA48299   2.339  12.048   6.069 -0.0920  0.0877  0.4563
30096ION     NA48300   7.972   0.020   3.759 -0.0749  0.1767  0.0979
30097ION     NA48301   2.754  16.700   1.539  0.1288 -0.0701 -0.0822
30098ION     NA48302   4.914  17.279   0.778  0.1793 -0.0692 -0.0159
30099ION     NA48303  14.182  12.479   6.040 -0.0101  0.4953  0.2092
30100ION     NA48304  11.251   2.174   6.230 -0.0187 -0.0990 -0.0998
30101ION     NA48305   9.483   7.566   2.139 -0.1447  0.0108 -0.2327
30102ION     NA48306  15.822   8.126   6.289  0.1599 -0.1211  0.0058
30103ION     NA48307   5.003  14.089   6.172 -0.0395  0.0544 -0.1616
30104ION     NA48308   5.884   9.031   5.865  0.1031  0.1375  0.0428
30105ION     NA48309  15.690   5.436  16.750  0.2142  0.1889 -0.3201
30106ION     NA48310   9.402   2.850  11.471 -0.2690 -0.1641 -0.0378
30107ION     NA48311   9.852   0.689  11.537 -0.1321 -0.0481 -0.2147
30108ION     NA48312   4.699   5.957   5.608  0.0877 -0.1462  0.0368
30109ION     NA48313  13.121   4.865  11.315  0.0096 -0.2242  0.1144
30110ION     NA48314  13.537   3.498   6.134 -0.4072  0.2947 -0.0703
30111ION     NA48315   1.821   2.035   4.448  0.1917 -0.2272 -0.0775
30112ION     NA48316   1.753  12.802   6.368 -0.1556 -0.4047  0.0502
30113ION     NA48317  15.746  15.236   6.214 -0.0002  0.1564 -0.0844
30114ION     NA48318   9.552  13.206   0.205  0.1084 -0.2818 -0.1642
30115ION     NA48319  16.070   0.408  15.838  0.0049 -0.1357  0.0153
30116ION     NA48320   4.563  14.577   6.219 -0.1529 -0.0263  0.0628
30117ION     NA48321   4.937   8.568  11.047 -0.0541 -0.1448  0.0322
30118ION     NA48322   1.318  14.712  14.104 -0.2696  0.2833  0.2267
30119ION     NA48323  13.472   3.615  11.203  0.1286 -0.2521 -0.2814
30120ION     NA48324  10.521  16.636  11.019  0.1120 -0.3085 -0.1027
30121ION     NA48325   7.796   4.523  11.362 -0.1571  0.0589  0.1342
30122ION     NA48326   9.087  15.533  11.247  0.1384 -0.2812 -0.1561
30123ION     NA48327   7.486   9.849   5.866  0.0303 -0.1430  0.0457
30124ION     NA48328   7.345   5.675   1.158 -0.1149  0.1830 -0.0982
30125ION     NA48329   8.556  11.583  11.451 -0.4717  0.3421 -0.0423
30126ION     NA48330  17.533  12.806  10.885  0.0082  0.0304  0.1405
30127ION     NA48331   8.137   1.949  11.264 -0.0698  0.0429  0.4042
30128ION     NA48332  16.922   2.304  11.494  0.0822  0.0164  0.2498
30129ION     NA48333  10.233   9.204  11.107  0.1774 -0.0639  0.1244
30130ION     NA48334   0.730  16.363   6.308  0.2326 -0.0590 -0.2573
30131ION     NA48335   5.650  16.344   5.958 -0.0980  0.2781 -0.1062
30132ION     NA48336  13.439  13.619  10.997 -0.0565  0.1495 -0.1280
30133ION     NA48337   5.214  16.166  11.296  0.4591  0.2612  0.1121
30134ION     NA48338  10.851   0.783   6.416 -0.0052  0.1972 -0.3341
30135ION     NA48339  10.307  10.825   6.134  0.0134  0.1269 -0.1393
30136ION     NA48340   3.885  10.079   1.868  0.0845 -0.1794  0.1347
30137ION     NA48341  11.808   3.484  11.576  0.3276  0.2167 -0.2262
30138ION     NA48342   8.787   4.722  16.056 -0.0322 -0.2178 -0.2095
30139ION     NA48343   5.433   4.851   5.445 -0.0052  0.0170  0.2899
30140ION     NA48344   3.437   6.741  11.177 -0.1197 -0.3399  0.0443
30141ION     NA48345  15.650   1.259  11.263 -0.0644  0.1082  0.0367
30142ION     NA48346  11.721   0.774  11.509 -0.3181 -0.0845  0.1541
30143ION     NA48347  11.738  14.515   6.049  0.0314 -0.1290  0.0655
30144ION     NA48348   3.219   2.550  11.224  0.0950 -0.0165 -0.3287
30145ION     NA48349  13.083   1.634   6.203 -0.0937  0.3660  0.2827
30146ION     NA48350  17.290   5.175   6.130  0.2072  0.1863  0.0234
30147ION     NA48351   7.939  16.841   4.364 -0.1924 -0.0123  0.0095
30148ION     NA48352   1.273   4.707   0.491 -0.0465  0.1008 -0.0502
30149ION     NA48353   1.358   2.511   4.856 -0.1684  0.0003  0.0387
30150ION     NA48354  13.288   2.726   0.191  0.0353  0.1846  0.0306
30151ION     NA48355   4.809  15.150  14.223  0.2670  0.0937  0.3103
30152ION     NA48356  13.723   1.018   4.068 -0.0171  0.2085  0.0736
30153ION     NA48357   0.380  15.813   6.363  0.3330  0.0263 -0.0879
30154ION     NA48358   8.494   2.009   2.758  0.3115 -0.1268  0.2910
30155ION     NA48359  16.368   0.275   6.154  0.0435  0.2944 -0.2391
30156ION     NA48360  13.927   5.791   6.343 -0.2158  0.0714 -0.0279
30157ION     NA48361  12.798  11.858   3.887 -0.1778  0.0574 -0.1393
30158ION     NA48362   0.914  14.902  11.305  0.0510 -0.0124  0.1523
30159ION     NA48363  16.777  13.040  10.668  0.3645 -0.0564  0.0234
30160ION     NA48364   4.275   3.546   6.024 -0.1182  0.0189 -0.0326
30161ION     NA48365  11.877   4.325  11.489  0.0053  0.0835  0.0903
30162ION     NA48366  12.138   6.862  11.471  0.3965 -0.2807 -0.1272
30163ION     NA48367   8.468  16.342   6.173  0.2109  0.3071  0.2144
30164ION     NA48368   4.471   1.469  11.385  0.2484  0.1367  0.2690
30165ION     NA48369  10.031   4.978  11.734  0.0264 -0.1369  0.0150
30166ION     NA48370  17.116   0.890   6.218  0.2503  0.0394  0.3590
30167ION     NA48371   5.692   2.603  13.123  0.0283  0.0244  0.2730
30168ION     NA48372   0.575   7.933  11.064  0.2869  0.1380 -0.0944
30169ION     NA48373  14.460   5.035   6.262 -0.2101  0.0758  0.0342
30170ION     NA48374  14.421   3.483   5.462 -0.0375  0.0213 -0.2215
30171ION     NA48375  13.164   0.301   6.256  0.2103 -0.1478  0.6196
30172ION     NA48376   6.687   0.755   6.087  0.0616 -0.1210  0.0535
30173ION     NA48377  14.287   2.462  13.255  0.0004 -0.0523  0.1952
30174ION     NA48378  10.733  15.962  11.104  0.1566  0.0390 -0.2193
30175ION     NA48379   7.342   9.222  11.124 -0.0363 -0.0778 -0.2208
30176ION     NA48380   9.247  12.015   1.220 -0.0974 -0.0160 -0.0418
30177ION     NA48381  14.267  15.844   6.199 -0.3222  0.2871  0.1397
30178ION     NA48382   5.625   5.038  11.297  0.0622  0.0207 -0.0588
30179ION     NA48383   7.457  13.852   5.912 -0.0372  0.2945  0.1827
30180ION     NA48384  15.245   5.665   6.269  0.0424  0.2091  0.0310
30181ION     NA48385  13.203   8.012   6.146  0.2010  0.0457  0.2435
30182ION     NA48386  13.985   1.730   2.272 -0.0833 -0.1129 -0.3658
30183ION     NA48387  15.159   7.312  11.556 -0.4372  0.1902  0.1522
30184ION     NA48388  14.914   6.627   3.596 -0.3081 -0.1664 -0.1472
30185ION     NA48389   2.640   1.128   5.984  0.2577 -0.3195 -0.0896
30186ION     NA48390   7.071  14.672   4.861  0.2227 -0.0011 -0.1811
30187ION     NA48391   0.237  12.368   5.981 -0.0620  0.3524 -0.3585
30188ION     NA48392  12.828   6.043  15.751 -0.2672 -0.0342 -0.2687
30189ION     NA48393  10.627   5.065   6.151 -0.0724 -0.0939  0.1023
30190ION     NA48394  14.869  12.916  13.465  0.0564  0.0048  0.0883
30191ION     NA48395   1.880  11.774  11.319 -0.0154 -0.1833  0.2841
30192ION     NA48396   6.263  13.837   0.389  0.3319 -0.1926 -0.1627
30193ION     NA48397  17.305  15.651  11.262  0.2275 -0.0165 -0.1688
30194ION     NA48398   8.963   9.313  11.261  0.1923  0.1396 -0.3150
30195ION     NA48399   9.453  10.007   4.555  0.0556 -0.5278 -0.2751
30196ION     NA48400  17.232   0.065   6.037 -0.1010  0.1736 -0.0317
30197ION     NA48401   1.387  12.046   5.656 -0.1747 -0.2228 -0.1345
30198ION     NA48402   5.354   7.101  11.183  0.0347  0.3406 -0.1069
30199ION     NA48403   4.073   5.782  11.474  0.1058 -0.0165 -0.0299
30200ION     NA48404   1.031   0.336   6.064  0.1752  0.1433  0.1446
30201ION     NA48405   2.526   7.234   5.960 -0.0573  0.1205 -0.0859
30202ION     NA48406  13.202   3.340   2.272 -0.1431 -0.1573 -0.0022
30203ION     NA48407  16.830  13.563   6.370  0.0699  0.1293 -0.0696
30204ION     NA48408  11.849   9.700  11.260 -0.3854 -0.0477  0.2254
30205ION     NA48409   9.610   8.876   0.071 -0.1750 -0.0435 -0.3031
30206ION     NA48410   0.278   2.577  11.606 -0.4487 -0.0962  0.1809
30207ION     NA48411  10.659   2.850   6.204  0.2554 -0.0919  0.3109
30208ION     NA48412  17.180   7.045   2.102  0.1252  0.0834  0.2655
30209ION     NA48413   3.922   1.787   3.003  0.1508  0.0321  0.0918
30210ION     NA48414   9.101  13.073  10.836  0.1827 -0.0842 -0.2823
30211ION     NA48415   9.882   9.646  11.224 -0.0738 -0.0672  0.6359
30212ION     NA48416  17.266   5.401  11.290  0.1014  0.2186 -0.3009
30213ION     NA48417   1.304  10.303   2.084 -0.0522 -0.1427  0.0102
30214ION     NA48418   5.207   5.486   2.742  0.0975 -0.0319 -0.1121
30215ION     NA48419  12.604  10.432   4.133 -0.0862 -0.1870 -0.0372
30216ION     NA48420  17.345   5.061  13.553  0.0035  0.2421 -0.0971
30217ION     NA48421   0.313   5.954  11.316  0.1955 -0.1682 -0.0446
30218ION     NA48422  17.215   7.139   6.000  0.1372  0.1234  0.1829
30219ION     NA48423  14.462   8.902   6.206 -0.2791 -0.4326 -0.1348
30220ION     NA48424   9.110   6.719  12.875 -0.2359  0.1719 -0.0957
30221ION     NA48425  12.180   5.962  11.510 -0.0574  0.2159  0.1391
30222ION     NA48426  11.539   6.204   6.107 -0.1334  0.1097 -0.3121
30223ION     NA48427   5.609   5.937   6.009  0.1767  0.0477 -0.1319
30224ION     NA48428   1.134   1.325   5.644 -0.1936  0.0358 -0.1157
30225ION     NA48429  17.425  12.161   2.209  0.1103 -0.4516  0.0665
30226ION     NA48430   3.945  12.875  13.482  0.3043  0.0739 -0.1954
30227ION     NA48431  16.332  10.116  11.172 -0.1325 -0.0605  0.1187
30228ION     NA48432  10.319  16.785  15.480  0.1823 -0.2080 -0.0445
30229ION     NA48433  14.471  12.409  11.524  0.1542 -0.4985 -0.0437
30230ION     NA48434   4.083   3.905  11.810 -0.3082 -0.4889 -0.2006
30231ION     NA48435  17.164  12.040  10.840  0.0768  0.2836  0.1642
30232ION     NA48436  11.003  14.818   6.119  0.4667  0.0083  0.1947
30233ION     NA48437   0.717  11.008  17.125  0.4901  0.0947  0.1109
30234ION     NA48438   3.867   5.545   6.083 -0.0945 -0.0153 -0.1103
30235ION     NA48439   3.758  11.969  12.913 -0.1201 -0.2629  0.3011
30236ION     NA48440   6.398   8.832   5.861  0.0281 -0.1195  0.0587
30237ION     NA48441   8.151   2.961   3.631  0.1404  0.7154 -0.1280
30238ION     NA48442  13.924   4.254   6.188  0.0546  0.3365  0.0208
30239ION     NA48443  12.753  11.602   5.997  0.0191  0.0141 -0.0800
30240ION     NA48444   1.388   4.699  11.317  0.0878 -0.0211  0.2391
30241ION     NA48445   7.411   0.201   6.077 -0.1669  0.1973  0.4275
30242ION     NA48446   4.927   2.904   6.011  0.1011  0.1406  0.3201
30243ION     NA48447  13.291  12.798   6.434 -0.0492  0.1939  0.0949
30244ION     NA48448   9.113   0.435  11.401 -0.0754  0.2189 -0.0746
30245ION     NA48449   9.134   6.324   6.208  0.1080  0.0467 -0.1800
30246ION     NA48450   8.254   0.543   5.825  0.1337  0.3073  0.1422
30247ION     NA48451  10.926   1.336  11.662  0.0082  0.1180  0.0639
30248ION     NA48452   3.798  16.658   5.903 -0.3618  0.1141  0.0968
30249ION     NA48453  15.838   7.732  15.102 -0.1631 -0.1330  0.1617
30250ION     NA48454   9.461   8.717   5.911  0.1628 -0.1142  0.1894
30251ION     NA48455   3.412   5.057  11.455 -0.0345 -0.2269 -0.0051
30252ION     NA48456   6.144   3.143   5.857  0.1569  0.0209  0.0108
30253ION     NA48457  17.043   0.217  16.203  0.1917 -0.0450  0.1309
30254ION     NA48458   4.617  13.615  11.382 -0.0299 -0.0099  0.2598
30255ION     NA48459   7.412   8.604   1.108 -0.2206  0.1335  0.0525
30256ION     NA48460   8.939   2.639   5.991 -0.0220  0.2159 -0.0455
30257ION     NA48461   1.658  17.000  11.372  0.3104 -0.1057  0.1250
30258ION     NA48462  13.906   0.891   6.374 -0.0730  0.0503  0.2357
30259ION     NA48463   5.191  14.637  11.454 -0.0089  0.0707  0.1311
30260ION     NA48464   7.266   0.494  11.476  0.0068  0.1954  0.3898
30261ION     NA48465   0.165  10.012   3.694  0.3285  0.2082 -0.0324
30262ION     NA48466   4.791  11.342   6.024  0.0962  0.1544 -0.0080
30263ION     NA48467  16.624  10.099   6.222  0.3653  0.0241  0.1604
30264ION     NA48468   4.879  12.377  11.370 -0.1852 -0.1175 -0.0767
30265ION     NA48469   0.455   8.479  11.156 -0.2605  0.1322 -0.1860
30266ION     NA48470  16.270   8.920   6.156  0.2764  0.0731  0.2212
30267ION     NA48471   0.623   2.854  11.369  0.0924  0.0044 -0.0408
30268ION     NA48472   2.114  16.280   6.095 -0.2895 -0.0086 -0.1385
30269ION     NA48473  10.478   6.069   4.803 -0.1467 -0.2500 -0.0919
30270ION     NA48474  16.373   3.642   6.215 -0.1258 -0.0472 -0.1170
30271ION     NA48475   2.423   7.455  10.984 -0.1117  0.1172 -0.1576
30272ION     NA48476  13.546   5.394  11.830  0.2060  0.1645 -0.2727
30273ION     NA48477   0.773  10.599  10.916  0.1620 -0.1168 -0.0277
30274ION     NA48478  11.763  14.507  10.917 -0.2142 -0.1723  0.0625
30275ION     NA48479   8.024  10.106   4.817  0.4000 -0.4783 -0.0956
30276ION     NA48480  12.676  15.520   6.368  0.1393 -0.1727 -0.1607
30277ION     NA48481   1.083   5.501  11.111 -0.1497 -0.1982 -0.1815
30278ION     NA48482   1.663  15.496  16.938 -0.2853 -0.0963 -0.0409
30279ION     NA48483   3.741  10.958   5.210 -0.1137  0.2282  0.1853
30280ION     NA48484  11.746  15.041   2.066  0.2589 -0.0583 -0.0118
30281ION     NA48485  15.406  13.670  17.192  0.0754  0.1974  0.2864
30282ION     NA48486  14.556   3.951   5.583 -0.1849  0.0006 -0.1404
30283ION     NA48487   6.708  14.534  11.231 -0.3751  0.2311  0.2003
30284ION     NA48488   1.947   0.370   5.968  0.1858  0.3030 -0.0681
30285ION     NA48489   6.770  15.266   6.025 -0.1872  0.0164  0.1316
30286ION     NA48490   8.286  12.735  10.944  0.3853  0.1387 -0.0277
30287ION     NA48491   8.980  11.191   0.265  0.0181  0.2547 -0.1572
30288ION     NA48492   6.177  13.085   5.970  0.1070  0.0417 -0.0292
30289ION     NA48493   9.698   0.562  15.893  0.2326  0.0489  0.2602
30290ION     NA48494   1.537  13.350   0.784  0.0704 -0.0337  0.0540
30291ION     NA48495   6.240   3.663   5.919  0.1362  0.0509  0.1547
30292ION     NA48496  14.128  14.786  14.150  0.2010  0.1813  0.2224
30293ION     NA48497   0.768  11.457   5.966  0.1728 -0.0160  0.1288
30294ION     NA48498   8.550  11.024   1.421 -0.2515 -0.0740 -0.1054
30295ION     NA48499   6.139   7.687  11.205  0.0633  0.0289  0.0802
30296ION     NA48500   7.124   5.244   5.799 -0.2315  0.2145  0.1226
30297ION     NA48501   4.176   5.154   6.048 -0.1327  0.1017 -0.0498
30298ION     NA48502   5.782   8.793  13.238 -0.0678  0.3643  0.0447
30299ION     NA48503  13.124   4.259   5.897  0.2138  0.3006  0.0200
30300ION     NA48504  14.046  11.879  12.850 -0.0647  0.1115  0.2185
30301ION     NA48505   7.359   0.721  14.553  0.1081 -0.1493 -0.0110
30302ION     NA48506  12.257   8.961   5.955 -0.0545 -0.2810  0.0397
30303ION     NA48507   9.241  10.291  11.346  0.0192 -0.2815 -0.1199
30304ION     NA48508   7.111   4.249   3.547 -0.0060 -0.1366  0.0111
30305ION     NA48509   9.458  11.849  10.926 -0.3682  0.0812 -0.0735
30306ION     NA48510   3.318  12.384  12.180 -0.0138 -0.0089  0.0981
30307ION     NA48511  14.990  11.845   2.062 -0.0220  0.4117  0.0491
30308ION     NA48512  13.665  16.319  11.470  0.1736  0.0261  0.2794
30309ION     NA48513  12.271  10.659  11.166 -0.0063 -0.2698 -0.0500
30310ION     NA48514  10.346   1.999   6.236  0.2260  0.5900 -0.1794
30311ION     NA48515  14.000   4.794  11.523  0.1088  0.1447 -0.4403
30312ION     NA48516   0.611   9.498   3.055 -0.2831  0.1414  0.1749
30313ION     NA48517  12.124   4.436   4.704 -0.1257  0.1152  0.0829
30314ION     NA48518   2.699  12.788  11.088  0.0479 -0.0553  0.1128
30315ION     NA48519   6.652   4.545   5.915  0.0809  0.1452 -0.0284
30316ION     NA48520   9.466   1.093   2.510 -0.1542 -0.2068 -0.0188
30317ION     NA48521  14.298   3.713  11.508  0.1501 -0.1454  0.2557
30318ION     NA48522   0.721   8.191  14.291 -0.2841  0.0844  0.1208
30319ION     NA48523  13.282   8.279   5.221  0.0379 -0.0284  0.0006
30320ION     NA48524   7.131  11.738   4.482  0.0476 -0.0034 -0.1283
30321ION     NA48525   2.461   2.653   5.917 -0.0115 -0.0928 -0.0015
30322ION     NA48526  14.243   2.196   6.237 -0.1642  0.1770  0.2362
30323ION     NA48527   8.526   4.392   6.129  0.0742 -0.0457 -0.1906
30324ION     NA48528   1.345   0.702  11.360  0.1527 -0.1630 -0.1238
30325ION     NA48529   4.496  10.263  11.434  0.2125 -0.0702  0.1851
30326ION     NA48530   0.555  14.946   6.277  0.2488  0.0698 -0.2966
30327ION     NA48531  10.366   7.872   6.029 -0.0852  0.1043 -0.3349
30328ION     NA48532   9.879  12.964  10.945  0.0662 -0.0221 -0.1113
30329ION     NA48533   8.937  15.027   6.075 -0.1417  0.1199  0.1380
30330ION     NA48534   9.620   8.018   5.365  0.2983  0.2271 -0.0966
30331ION     NA48535  12.939  14.765  11.121 -0.1351 -0.1736  0.1017
30332ION     NA48536   1.428   0.320   0.210 -0.0552  0.1120  0.2812
30333ION     NA48537  11.689   1.418   4.455 -0.1946  0.0010  0.3880
30334ION     NA48538   0.636  10.182   5.825  0.1050  0.1520 -0.0916
30335ION     NA48539   1.440  16.578  11.567 -0.1523  0.0626 -0.1921
30336ION     NA48540   8.465   5.457   5.691 -0.4200 -0.2235  0.0580
30337ION     NA48541   6.806  17.494  14.766  0.1390 -0.1916 -0.0785
30338ION     NA48542   0.679   4.055  11.343 -0.1436 -0.1887 -0.2975
30339ION     NA48543  13.860   8.338  13.018  0.6292 -0.0011 -0.0346
30340ION     NA48544  17.098  16.155   6.353 -0.0912  0.2061 -0.1395
30341ION     NA48545   6.176  11.752  11.116  0.1961  0.1219 -0.0998
30342ION     NA48546  15.969  13.516  10.973  0.3491 -0.1240 -0.0444
30343ION     NA48547  10.677  12.738   6.089  0.1205 -0.0258 -0.1425
30344ION     NA48548   4.922   7.504   0.354 -0.1989 -0.1748  0.1910
30345ION     NA48549  14.630  15.030  11.200  0.1816 -0.0029  0.1964
30346ION     NA48550  16.304  11.829  10.819  0.2649 -0.1736 -0.1657
30347ION     NA48551   5.828   4.010  11.385 -0.0619  0.0398 -0.1167
30348ION     NA48552  17.044   6.229  11.199 -0.0149  0.0523  0.0531
30349ION     NA48553   5.288  13.050  12.733 -0.0206  0.2326  0.1803
30350ION     NA48554   2.215   4.231  11.269 -0.0245  0.2288 -0.0061
30351ION     NA48555   7.468   4.321   6.126 -0.1315  0.0351  0.0473
30352ION     NA48556  10.731  15.621   6.098  0.0810 -0.2599  0.0874
30353ION     NA48557   6.207  17.223   6.073  0.0736  0.0859 -0.2180
30354ION     NA48558   0.550  11.569   5.249  0.0075 -0.1928  0.1891
30355ION     NA48559   2.625   2.938  11.276  0.3317  0.1349  0.1257
30356ION     NA48560   1.220   0.859   2.487  0.1115  0.1140  0.1454
30357ION     NA48561   3.474   8.835  11.242  0.0095 -0.1549  0.0808
30358ION     NA48562  16.102   2.291  11.465 -0.1930  0.0617  0.0675
30359ION     NA48563  12.542   4.711   5.836  0.2546 -0.3098 -0.3278
30360ION     NA48564   9.308  16.326   3.817 -0.2921  0.0054 -0.1680
30361ION     NA48565  11.643   2.483  11.709 -0.0809  0.0821 -0.1826
30362ION     NA48566   6.565  12.259   5.811 -0.1438  0.0802  0.0905
30363ION     NA48567   4.837   4.118  11.362 -0.1842 -0.0710  0.1778
30364ION     NA48568  12.852   3.249   6.185  0.2098 -0.1144 -0.0186
30365ION     NA48569  14.708  13.717   6.470  0.2397  0.0624 -0.2552
30366ION     NA48570   9.216   4.934   6.030  0.0756 -0.3470 -0.0258
30367ION     NA48571  11.168   0.124  11.455 -0.2563 -0.0361 -0.0647
30368ION     NA48572   9.869  11.935   5.804 -0.0140  0.2044 -0.2576
30369ION     NA48573   0.088  14.653  11.244  0.0317  0.2143  0.1735
30370ION     NA48574   1.400   3.376   5.820  0.1361  0.2324  0.1832
30371ION     NA48575  16.135  11.956   3.783 -0.2272 -0.1652  0.1888
30372ION     NA48576   8.099  17.052   6.070  0.0687  0.1740  0.3263
30373ION     NA48577  14.125   8.182   6.226  0.3503 -0.1027  0.0458
30374ION     NA48578   4.918  17.128   5.210  0.0560  0.0928 -0.0001
30375ION     NA48579  17.296   9.792  12.757  0.0046 -0.0137  0.2714
30376ION     NA48580  11.571  13.896   6.599 -0.2021 -0.0802 -0.0540
30377ION     NA48581  11.342  16.727  11.167  0.1114 -0.0274  0.2939
30378ION     NA48582   8.704   1.859  15.597 -0.2507  0.1963  0.2129
30379ION     NA48583   5.614   0.946  14.472 -0.1052  0.0339 -0.4206
30380ION     NA48584   0.612  10.938  13.920  0.0290 -0.2147 -0.2558
30381ION     NA48585   1.308  15.597   6.330 -0.0873 -0.0466 -0.0884
30382ION     NA48586   3.414  16.066  13.854  0.1583  0.3920  0.0550
30383ION     NA48587   1.555  14.637   6.453 -0.1682 -0.3737 -0.2097
30384ION     NA48588   5.455   9.323  11.178 -0.0724 -0.0591 -0.2337
30385ION     NA48589   2.109  15.513   6.146 -0.0543 -0.0611 -0.2914
30386ION     NA48590   1.958  16.572   0.520  0.0700 -0.1959 -0.1897
30387ION     NA48591  17.478   5.745   6.077 -0.1428 -0.2219 -0.4786
30388ION     NA48592   9.293   5.210  11.413  0.1497  0.2414  0.1050
30389ION     NA48593  14.995   8.399  11.374 -0.1969  0.0335  0.0677
30390ION     NA48594  17.200   2.452   4.734 -0.3429  0.0911 -0.3113
30391ION     NA48595  13.102   0.232  11.595  0.0227 -0.0388 -0.3682
30392ION     NA48596   3.553   8.091   5.764 -0.1950  0.1738  0.0229
30393ION     NA48597   1.635   2.869  11.480 -0.1087  0.0226  0.0460
30394ION     NA48598   0.490  12.118  10.804 -0.0664  0.0534 -0.1365
30395ION     NA48599   2.107   1.474   2.678  0.0972  0.1525  0.0296
30396ION     NA48600   5.693  11.007  10.966  0.0044  0.0681  0.1457
30397ION     NA48601  15.182  14.032  15.585  0.0391  0.0278 -0.0375
30398ION     NA48602  10.058   6.497   1.240 -0.1000  0.0896 -0.1255
30399ION     NA48603   2.853  10.656   5.501  0.1283 -0.3872  0.2738
30400ION     NA48604   2.302  14.737  17.082  0.3692  0.1663  0.2702
30401ION     NA48605  10.763  17.218   6.059 -0.1981 -0.2831 -0.2744
30402ION     NA48606  13.883   2.906  11.403  0.0398  0.1336  0.0461
30403ION     NA48607   3.503   1.158   5.857  0.0440 -0.4252  0.1853
30404ION     NA48608   8.754  11.724  11.932 -0.0526 -0.2678 -0.3703
30405ION     NA48609  15.165  13.286  14.709  0.2741 -0.2564 -0.0787
30406ION     NA48610   1.046   6.305   0.374  0.0521  0.0784  0.2150
30407ION     NA48611   4.264   7.654   5.739  0.0722  0.2584  0.0193
30408ION     NA48612  17.238   3.207  11.461 -0.1257 -0.1286  0.1487
30409ION     NA48613  11.915  12.007   6.095 -0.0680  0.0327  0.2389
30410ION     NA48614   7.790   2.551   4.676  0.2221 -0.0645 -0.3263
30411ION     NA48615  13.502   8.836   6.130 -0.1313 -0.1560 -0.0655
30412ION     NA48616  11.934  15.823   3.262  0.0966 -0.2499 -0.1416
30413ION     NA48617   6.232   9.462  15.573 -0.1436 -0.0098  0.0734
30414ION     NA48618   4.160   8.299  11.219  0.0892 -0.0016  0.0058
30415ION     NA48619  10.650   5.859  11.545 -0.1386  0.3007  0.0474
30416ION     NA48620   0.262   0.555  11.869 -0.1171  0.1362  0.0093
30417ION     NA48621  12.307   8.222  11.180  0.2084  0.2502 -0.2336
30418ION     NA48622  17.086   8.054  11.301 -0.1151 -0.1438 -0.0727
30419ION     NA48623   2.097  17.088   5.773 -0.1510  0.2971 -0.0341
30420ION     NA48624  14.158   8.471   4.443  0.0439 -0.0987 -0.0359
30421ION     NA48625   1.414  14.159   4.626  0.0280  0.1215 -0.1228
30422ION     NA48626   8.575   5.320  11.363 -0.0719  0.1163 -0.1912
30423ION     NA48627   9.133  12.216   5.966 -0.2750 -0.1228 -0.2837
30424ION     NA48628   5.683   8.154   5.960  0.0409  0.4590 -0.1702
30425ION     NA48629   4.370  11.575  11.253  0.0594  0.0561  0.2729
30426ION     NA48630  13.305  10.892   6.058  0.4334 -0.4912  0.1427
30427ION     NA48631   4.193   0.604  11.395  0.1504  0.3537 -0.0479
30428ION     NA48632  11.461   7.616   5.929  0.2317 -0.2093 -0.3308
30429ION     NA48633   4.677   6.000   6.071  0.0099 -0.0063  0.1231
30430ION     NA48634   1.664  10.672  10.999 -0.1084 -0.0522 -0.2286
30431ION     NA48635   6.925  11.405   5.909  0.0321 -0.3796  0.3291
30432ION     NA48636  15.838  14.501   6.499  0.1221 -0.1507  0.0093
30433ION     NA48637   2.667   5.046   5.173 -0.0393 -0.1101 -0.1030
30434ION     NA48638  11.709  11.925  11.236 -0.0722  0.2522 -0.0959
30435ION     NA48639   5.108   4.085   4.047  0.0405  0.1640 -0.1310
30436ION     NA48640   7.897   7.714   5.866 -0.0420  0.0795 -0.0162
30437ION     NA48641  14.736   1.115  11.573  0.0355 -0.0809  0.1496
30438ION     NA48642   0.064   0.795   2.367 -0.0830 -0.3309  0.0116
30439ION     NA48643  10.061  10.540  12.032  0.0863  0.0223  0.1968
30440ION     NA48644   5.263  10.707   5.968 -0.0421  0.1246  0.1934
30441ION     NA48645   0.381   1.439   6.180 -0.1751  0.0278 -0.1667
30442ION     NA48646   8.287   0.979   3.355  0.0516  0.4165  0.0069
30443ION     NA48647   0.096  11.236  10.957  0.0184  0.1134 -0.1166
30444ION     NA48648   4.553   5.974  14.081 -0.1232 -0.1609 -0.0245
30445ION     NA48649  13.277   4.382  11.023 -0.1483  0.0506  0.0946
30446ION     NA48650   2.074   1.713   1.737 -0.0088 -0.3530  0.2099
30447ION     NA48651  11.002  13.449   6.562  0.1094  0.0023 -0.2632
30448ION     NA48652  12.637   2.241   0.614  0.1814  0.0335  0.2476
30449ION     NA48653   9.604   9.706   5.925 -0.0272  0.0944  0.2294
30450ION     NA48654   3.973  17.194  12.979 -0.1805  0.1352 -0.1506
30451ION     NA48655   2.786  10.221   5.739  0.0852 -0.2961 -0.0887
30452ION     NA48656   2.815  11.989  11.412  0.1957  0.0913  0.1095
30453ION     NA48657  16.714   8.744   6.095 -0.2630  0.3175 -0.2459
30454ION     NA48658  16.257  10.868   4.031  0.0319  0.0534 -0.1025
30455ION     NA48659   3.017   4.938   6.216 -0.4311  0.0115  0.0672
30456ION     NA48660   4.458   4.339   6.234 -0.0420 -0.2271 -0.0465
30457ION     NA48661  11.199   8.191   4.420  0.0821 -0.0572 -0.0783
30458ION     NA48662  12.130   5.262  11.498 -0.1023 -0.1166 -0.0411
30459ION     NA48663   0.266  13.665  11.064 -0.1738 -0.2688  0.3332
30460ION     NA48664  16.501   1.433  11.574  0.3134  0.2323 -0.0990
30461ION     NA48665   2.808  16.292   6.133 -0.1649  0.2659 -0.0329
30462ION     NA48666   1.967  17.489  11.389 -0.0065 -0.1791  0.0652
30463ION     NA48667   3.943  13.108   6.150 -0.2125  0.0873  0.0695
30464ION     NA48668  14.726   2.539   6.164 -0.2059 -0.2674 -0.0236
30465ION     NA48669   8.520   2.897  11.364 -0.0246  0.0069  0.1362
30466ION     NA48670  10.378  10.364  11.081  0.0285 -0.1923 -0.1351
30467ION     NA48671  16.433   4.767   5.910  0.1147 -0.4522 -0.0423
30468ION     NA48672   6.778  16.895   3.141  0.1636 -0.1910  0.1363
30469ION     NA48673   2.198   0.962  11.398  0.3789  0.0474  0.0968
30470ION     NA48674  15.470   7.224   6.308 -0.3950  0.0939 -0.2510
30471ION     NA48675  15.196  16.150   6.515 -0.1528  0.1590 -0.1056
30472ION     NA48676  13.676  12.729  11.152 -0.0507 -0.2713  0.1968
30473ION     NA48677   8.979   2.089   1.658  0.2218 -0.1786 -0.0603
30474ION     NA48678   9.778   6.612   6.096  0.1751 -0.1774  0.1412
30475ION     NA48679  13.484   1.131  12.040 -0.0953  0.1947 -0.1639
30476ION     NA48680   2.070   2.982   3.795 -0.3532  0.1302 -0.1091
30477ION     NA48681   6.079   1.912  11.303  0.1537 -0.4426 -0.1464
30478ION     NA48682  15.852  12.250   5.962 -0.0794 -0.1955 -0.0983
30479ION     NA48683  14.912  11.498  16.077  0.2197  0.1431 -0.3857
30480ION     NA48684   6.222   9.269  16.936  0.0706  0.0021 -0.1068
30481ION     NA48685   2.777   1.914   1.972 -0.0476  0.0538 -0.0995
30482ION     NA48686   5.714  17.428  11.324  0.2610  0.0120  0.0948
30483ION     NA48687  16.167   4.603  12.491 -0.0197  0.0491 -0.2516
30484ION     NA48688   2.912   0.141  11.509 -0.3862 -0.1225 -0.2003
30485ION     NA48689  16.256  15.372  11.179  0.1574  0.2126 -0.1837
30486ION     NA48690  14.649   0.197  11.732 -0.0560  0.1280 -0.2082
30487ION     NA48691   2.431  16.531  11.442 -0.2416  0.0806  0.2900
30488ION     NA48692   5.683  11.082   4.714 -0.1990  0.0547 -0.1471
30489ION     NA48693  17.481   7.343  11.897 -0.1414 -0.0192 -0.0915
30490ION     NA48694  13.780   0.280  11.694 -0.1126  0.2431  0.0606
30491ION     NA48695   5.650   3.015   5.713 -0.2985  0.0131 -0.0343
30492ION     NA48696  15.406   3.739  15.451  0.1240 -0.1531 -0.0066
30493ION     NA48697  15.851  10.393   6.147  0.2140  0.0509  0.1764
30494ION     NA48698   1.583   8.821  11.073  0.2481  0.2781  0.2227
30495ION     NA48699   0.254   0.847   6.083  0.1704  0.0754  0.1848
30496ION     NA48700   2.314  15.385  11.196 -0.1097  0.0100  0.4068
30497ION     NA48701  10.847  12.235   6.023  0.3532 -0.0279 -0.2446
30498ION     NA48702  15.407   2.667   6.040 -0.0418  0.4088  0.5095
30499ION     NA48703   0.905  17.126  17.022  0.0554 -0.1292  0.1042
30500ION     NA48704  16.151   7.754  11.528 -0.0565 -0.2384 -0.2411
30501ION     NA48705  10.076   8.096  11.131  0.0407  0.2744  0.1052
30502ION     NA48706   6.574  16.095   6.187 -0.0398  0.1480 -0.2468
30503ION     NA48707  17.254  13.151   0.926  0.0429 -0.2798 -0.0759
30504ION     NA48708   2.296   8.440  10.951  0.1493 -0.0391 -0.1139
30505ION     NA48709   8.292  10.930  11.253  0.0559  0.0086 -0.1907
30506ION     NA48710   4.391   9.048   0.196  0.0243 -0.0650  0.0869
30507ION     NA48711  15.820   9.568   6.062 -0.1027  0.3957 -0.1715
30508ION     NA48712  13.345  16.973  11.313  0.3167 -0.2005  0.1419
30509ION     NA48713   7.221  15.122   4.020 -0.1899 -0.1355  0.1956
30510ION     NA48714  13.174   1.208   5.919 -0.0680  0.1219 -0.0343
30511ION     NA48715  16.816   5.544  15.999  0.2072  0.0771 -0.0469
30512ION     NA48716   3.777  17.276  11.428  0.1108 -0.0219 -0.2232
30513ION     NA48717  11.041   3.206   6.244  0.1158 -0.2230 -0.1825
30514ION     NA48718  15.555  10.548  11.545 -0.2178  0.0558  0.0101
30515ION     NA48719   5.545  12.248   5.992  0.0026 -0.1141  0.0924
30516ION     NA48720  12.514   2.384   6.161  0.0472  0.4517 -0.1297
30517ION     NA48721   4.419   6.797  11.234 -0.1127  0.0214 -0.0409
30518ION     NA48722  12.369  14.021   6.540  0.0160  0.1135 -0.0483
30519ION     NA48723  15.538  16.258  12.585 -0.2757 -0.1770 -0.1057
30520ION     NA48724  10.397  13.766  10.857  0.0889  0.0609  0.0427
30521ION     NA48725  11.628  15.716   6.542 -0.0990 -0.0762  0.1279
30522ION     NA48726   1.079   2.634   6.011 -0.0065  0.3041  0.0357
30523ION     NA48727  10.662  15.503   3.512  0.0988  0.1935 -0.1941
30524ION     NA48728   8.244   8.579   6.041  0.2225 -0.1507  0.1821
30525ION     NA48729   7.649   7.894  11.164  0.2453  0.4481  0.0143
30526ION     NA48730   6.005   4.118  13.880 -0.1115 -0.1962  0.0393
30527ION     NA48731   4.505   3.625  14.188  0.0392 -0.1344  0.1530
30528ION     NA48732   2.796   1.469  11.216  0.2600  0.1546  0.3266
30529ION     NA48733  14.348  13.423  11.142 -0.1385  0.0676  0.2640
30530ION     NA48734  15.564   9.639  11.118 -0.1256  0.2858  0.0767
30531ION     NA48735  10.678   4.131   6.236  0.1603 -0.2077 -0.0939
30532ION     NA48736   9.306   7.219   5.740 -0.1963  0.2150 -0.0080
30533ION     NA48737  12.392   7.836   6.041 -0.0523 -0.0148  0.1499
30534ION     NA48738   7.716   5.658   6.212 -0.1467  0.2041  0.2225
30535ION     NA48739  13.512  11.780   6.136 -0.1389 -0.2248  0.2135
30536ION     NA48740  16.657  10.917   6.183 -0.1676 -0.1797 -0.0277
30537ION     NA48741  10.246   0.324   2.580  0.0630  0.1824  0.1236
30538ION     NA48742   4.401  14.551  11.364 -0.2516 -0.0571 -0.0456
30539ION     NA48743   4.155  17.199   4.118  0.1914  0.1016  0.0227
30540ION     NA48744  14.831  11.957   5.881  0.2438 -0.0106  0.0467
30541ION     NA48745  15.357  16.322  11.496 -0.0632 -0.0658  0.2235
30542ION     NA48746   7.329   8.913   6.072  0.1926  0.1732 -0.1026
30543ION     NA48747  11.621  14.736   1.385 -0.0164 -0.0865 -0.0883
30544ION     NA48748   7.631   4.765  13.707  0.1947 -0.0106  0.0446
30545ION     NA48749   6.719   8.519  10.962  0.0317 -0.1249 -0.1617
30546ION     NA48750   8.212   0.831  11.325  0.0511  0.0977  0.1151
30547ION     NA48751  17.081   0.148  11.464 -0.0922 -0.1364  0.2772
30548ION     NA48752   2.961  12.435   0.563 -0.2155  0.1292 -0.0920
30549ION     NA48753   6.823   3.737   6.064  0.1743 -0.0979  0.1005
30550ION     NA48754   8.832   5.012   5.044 -0.0394  0.2544 -0.1272
30551ION     NA48755  10.122  11.142   2.437 -0.1751 -0.2046  0.0700
30552ION     NA48756  11.227   6.290  11.570  0.0727  0.4342 -0.0139
30553ION     NA48757  17.392   9.959   5.923 -0.0004  0.2864  0.1203
30554ION     NA48758   3.118  12.415   5.946  0.1151 -0.0854 -0.0337
30555ION     NA48759   5.496   7.741  11.233 -0.0916  0.1722  0.3260
30556ION     NA48760   8.614  17.061   0.070  0.0291 -0.2423 -0.1499
30557ION     NA48761   4.452  15.569  11.179  0.0453 -0.0963 -0.3304
30558ION     NA48762   4.343  16.523  11.494 -0.1289  0.0889 -0.1632
30559ION     NA48763   6.101   6.644   1.144  0.4314  0.0378 -0.3940
30560ION     NA48764   9.890  14.394  11.201 -0.0264  0.0052  0.1999
30561ION     NA48765  16.863   7.762   4.556  0.1988 -0.1746  0.1025
30562ION     NA48766  15.214   0.558  11.462 -0.1684 -0.0085 -0.2727
30563ION     NA48767   3.478   1.525   4.980 -0.1536  0.0131  0.1716
30564ION     NA48768  15.183   2.147  11.336 -0.0393  0.1965 -0.1494
30565ION     NA48769   4.727  16.228  17.288 -0.1611  0.0751  0.1492
30566ION     NA48770  12.758  16.404   6.597 -0.4226  0.1328 -0.0510
30567ION     NA48771   2.723   5.799   5.869 -0.1272 -0.0521 -0.1992
30568ION     NA48772   2.026  13.704  11.019 -0.1576  0.2386 -0.0706
30569ION     NA48773  12.024   6.930   6.099 -0.3750  0.3141 -0.2156
30570ION     NA48774  10.414   1.491   6.226 -0.2501  0.0072  0.0196
30571ION     NA48775  14.938   4.516  11.540  0.0735 -0.1209 -0.2226
30572ION     NA48776   2.199   1.102   6.228  0.1262  0.1668 -0.0907
30573ION     NA48777   6.914   7.147  11.208 -0.0426  0.3282  0.1329
30574ION     NA48778   9.778  11.166   3.298 -0.0486  0.2540 -0.3336
30575ION     NA48779   1.063   3.873  12.866 -0.0383  0.0254  0.0215
30576ION     NA48780  16.224  16.182  11.448  0.0429 -0.3216  0.1795
30577ION     NA48781   5.182   9.411   3.170 -0.1452 -0.2824 -0.3608
30578ION     NA48782   4.346   4.400   3.363  0.0577 -0.1235  0.1322
30579ION     NA48783   9.069   4.450  11.478  0.4055  0.1712 -0.1347
30580ION     NA48784   9.014  15.479  13.389 -0.0817  0.1975  0.0612
30581ION     NA48785   3.183  13.377  11.695 -0.2742 -0.2406 -0.0826
30582ION     NA48786   9.874   5.785  11.395  0.0843  0.0022  0.3979
30583ION     NA48787   1.000   4.387  16.328  0.1789  0.1053  0.2470
30584ION     NA48788  10.508   9.591   5.899  0.0396 -0.0240  0.0674
30585ION     NA48789  10.668  14.585  10.898  0.2981 -0.2595 -0.0356
30586ION     NA48790   7.798   6.637  11.259 -0.1006  0.1415 -0.0588
30587ION     NA48791  14.217   0.270   5.821 -0.5028 -0.2146  0.1483
30588ION     NA48792  10.292  11.335  10.995  0.0041  0.0220 -0.3186
30589ION     NA48793   1.711   5.505   6.068  0.0566  0.0084 -0.1126
30590ION     NA48794   2.431  17.396   3.383 -0.1853 -0.0082 -0.1378
30591ION     NA48795  13.266  11.784  11.168  0.1448 -0.0070 -0.1826
30592ION     NA48796   2.598  12.840   6.276 -0.1164 -0.2383 -0.0075
30593ION     NA48797   4.196   4.827  11.730  0.4675 -0.0179  0.1859
30594ION     NA48798   3.223   5.891  11.159  0.1366  0.0611 -0.0524
30595ION     NA48799  12.246   1.905  12.483  0.1342 -0.0627  0.1378
30596ION     NA48800  17.475   4.462  11.637 -0.2805  0.0279 -0.1993
30597ION     NA48801  17.062   8.984   5.759 -0.1658 -0.3788  0.3014
30598ION     NA48802   1.322  11.057   5.884  0.1214 -0.0237 -0.0296
30599ION     NA48803   6.097  16.654  11.247  0.0346  0.4874 -0.6529
30600ION     NA48804   3.894  10.234  11.306  0.1082 -0.4603  0.0298
30601ION     NA48805  12.787  11.362   3.571  0.0756 -0.0792 -0.3817
30602ION     NA48806   8.897   2.096  11.603 -0.1426  0.1860  0.2028
30603ION     NA48807   2.551  11.077   1.687  0.4598 -0.2510  0.3467
30604ION     NA48808   2.205   2.939  12.587 -0.1446  0.1771  0.1282
30605ION     NA48809   1.538  14.273  11.151 -0.1901  0.1146  0.1113
30606ION     NA48810   0.707   5.485   6.112 -0.0608  0.0646 -0.1449
30607ION     NA48811   9.766  17.360   6.191  0.1232  0.2892  0.1593
30608ION     NA48812   1.111  13.953  11.227 -0.1091  0.0357  0.0615
30609ION     NA48813   9.793   7.821   6.058 -0.2137 -0.0785  0.3474
30610ION     NA48814   2.376   9.017  13.848  0.0106  0.2416  0.1534
30611ION     NA48815  12.643  17.019   5.961 -0.1565 -0.0868 -0.3093
30612ION     NA48816   6.664  17.351   1.494  0.0429 -0.1304  0.0632
30613ION     NA48817  13.367   2.447   6.265  0.0368 -0.2393  0.1629
30614ION     NA48818   3.274   3.486  11.318  0.4599  0.1799 -0.2966
30615ION     NA48819  17.002  15.467  13.142 -0.0302 -0.2296  0.2113
30616ION     NA48820   9.306  15.975   6.138  0.1461 -0.1300  0.1311
30617ION     NA48821  15.542  13.492   6.343  0.0925 -0.1581  0.0436
30618ION     NA48822   5.027   0.453  11.331 -0.1817 -0.1251 -0.0676
30619ION     NA48823  15.472  17.545   6.342 -0.0948  0.0922  0.0607
30620ION     NA48824  13.154   8.337  11.355  0.1147  0.3134 -0.0839
30621ION     NA48825  10.720   0.681   3.319 -0.2721 -0.0446  0.1334
30622ION     NA48826   3.337   1.473   1.269  0.0753  0.0667  0.2817
30623ION     NA48827  15.668   0.804   6.068  0.0878  0.0454 -0.1767
30624ION     NA48828  17.204   8.321  12.239  0.1464 -0.0224  0.2028
30625ION     NA48829   2.075   9.322  17.105  0.2255  0.1172  0.1304
30626ION     NA48830  12.314  12.686   6.244 -0.0097 -0.3084  0.2490
30627ION     NA48831   0.269  17.489  13.327 -0.0526  0.1935  0.0288
30628ION     NA48832  14.102  11.564  11.010  0.0583  0.1167  0.0475
30629ION     NA48833  15.113  10.844   6.308  0.4084 -0.3104  0.0259
30630ION     NA48834  14.780   2.901  11.329 -0.2034 -0.1184  0.1757
30631ION     NA48835   2.488  14.137  11.343 -0.2148  0.0820 -0.3843
30632ION     NA48836   0.436   9.147   5.797  0.0582  0.0287 -0.1722
30633ION     NA48837  15.939   8.026   5.802  0.1345  0.1759  0.2368
30634ION     NA48838  10.687  10.103   5.935  0.0561  0.6003  0.0999
30635ION     NA48839  14.379   2.134  11.713 -0.2050  0.1536 -0.2493
30636ION     NA48840   1.140  16.500   0.911 -0.0207  0.3082  0.2229
30637ION     NA48841   6.842   2.467  11.470  0.2226 -0.0412 -0.0107
30638ION     NA48842   4.716   6.313   3.564  0.2112  0.0717  0.2050
30639ION     NA48843   9.556   3.656  11.900  0.4112 -0.2717 -0.0524
30640ION     NA48844  14.858   4.827  12.740  0.2434  0.1396 -0.0967
30641ION     NA48845  15.237  15.507  11.420  0.1209  0.1735  0.1584
30642ION     NA48846   6.457  13.910   5.928 -0.3133  0.0496  0.0376
30643ION     NA48847   2.576   2.297   1.291  0.1704 -0.2361  0.1029
30644ION     NA48848   7.917   5.909  11.330  0.0544  0.0909 -0.0353
30645ION     NA48849   2.579   5.145  11.306 -0.0316  0.1579 -0.1418
30646ION     NA48850   8.823   0.118   6.079  0.0732 -0.0676 -0.0373
30647ION     NA48851   0.860  13.038   6.174  0.1568  0.1057  0.1235
30648ION     NA48852   6.325   2.725  11.288  0.0580 -0.0778 -0.0790
30649ION     NA48853   4.588   3.357  11.566  0.1965  0.0684  0.3195
30650ION     NA48854  10.343   3.607  11.361  0.1569  0.0461 -0.0871
  17.54729  17.54729  17.28865
