INSANE! Membrane UpperLeaflet>loPI:POPI:DPPI:PYPI:ERGO=140.0:15.0:9.0:6.0:30.0 LowerLeaflet>loPI:POPI:DPPI:PYPI:ERGO=140.0:15.0:9.0:6.0:30.0
48854
    1loPI    C1    1   3.543   7.112  11.204 -0.2278 -0.0125  0.0356
    1loPI    C2    2   3.664   6.733  11.253 -0.3451 -0.0786 -0.1759
    1loPI    C3    3   3.273   6.820  11.251 -0.3180  0.0470 -0.1069
    1loPI   PO4    4   3.641   7.132  10.982 -0.3327 -0.3727 -0.0570
    1loPI   GL1    5   3.621   7.264  10.582  0.0004  0.1096  0.1485
    1loPI   GL2    6   3.601   7.574  10.624 -0.0183  0.2417 -0.0035
    1loPI   C1A    7   3.602   7.292  10.116 -0.2097 -0.0574  0.1773
    1loPI   C2A    8   3.636   7.273   9.765  0.0280 -0.2619 -0.0889
    1loPI   C3A    9   3.570   7.366   9.308  0.0696 -0.1216  0.1179
    1loPI   C4A   10   3.581   7.348   8.885 -0.1660  0.1206  0.0266
    1loPI   C5A   11   3.583   7.244   8.465  0.2818  0.0077  0.0349
    1loPI   C6A   12   3.264   7.197   8.106  0.0181 -0.3905  0.0466
    1loPI   C1B   13   3.914   7.620  10.400  0.0446 -0.1072 -0.1024
    1loPI   C2B   14   3.854   7.715   9.958 -0.3534 -0.0706  0.3378
    1loPI   C3B   15   3.907   7.656   9.508  0.1565  0.1497 -0.1544
    1loPI   C4B   16   3.765   7.755   9.080 -0.1432  0.0360  0.1959
    2loPI    C1   17  13.031   6.966  11.317 -0.0260 -0.1626  0.0034
    2loPI    C2   18  12.676   7.021  11.141 -0.0205  0.1062  0.0722
    2loPI    C3   19  12.698   6.827  11.491 -0.1199  0.2309  0.1487
    2loPI   PO4   20  13.157   7.186  11.243 -0.0479  0.0490  0.1631
    2loPI   GL1   21  13.336   7.236  10.811 -0.0303  0.0012 -0.1157
    2loPI   GL2   22  13.000   7.036  10.722  0.0629 -0.0715  0.0625
    2loPI   C1A   23  13.149   7.438  10.428 -0.2050  0.1528 -0.1655
    2loPI   C2A   24  13.065   7.561  10.040 -0.2289 -0.3852 -0.1138
    2loPI   C3A   25  13.068   7.724   9.589 -0.4348  0.1414 -0.1501
    2loPI   C4A   26  13.212   7.612   9.154 -0.1288  0.1947 -0.1783
    2loPI   C5A   27  13.249   7.477   8.825  0.1647  0.0512  0.2782
    2loPI   C6A   28  13.166   7.506   8.370 -0.2760 -0.0665 -0.0908
    2loPI   C1B   29  12.727   7.204  10.300 -0.0092  0.0995  0.1062
    2loPI   C2B   30  12.790   7.111   9.939 -0.0364 -0.1869  0.0359
    2loPI   C3B   31  12.942   7.124   9.471 -0.1478 -0.0101 -0.0344
    2loPI   C4B   32  12.973   7.101   8.998 -0.0445 -0.0419 -0.3246
    3loPI    C1   33  12.206   3.437  11.115  0.1917 -0.1465  0.1437
    3loPI    C2   34  11.835   3.549  11.212  0.1170 -0.0339 -0.2549
    3loPI    C3   35  12.101   3.471  11.500 -0.1394  0.1317  0.0342
    3loPI   PO4   36  12.226   3.568  10.858 -0.2008  0.3070 -0.1205
    3loPI   GL1   37  12.169   3.476  10.448 -0.0669 -0.2438 -0.0719
    3loPI   GL2   38  12.353   3.278  10.207 -0.1098  0.0159  0.1728
    3loPI   C1A   39  12.103   3.702  10.100  0.2002 -0.0284  0.2358
    3loPI   C2A   40  12.103   3.698   9.694  0.0758  0.0035  0.1216
    3loPI   C3A   41  11.923   3.793   9.284 -0.1951 -0.0631 -0.1046
    3loPI   C4A   42  11.925   3.938   8.783  0.2066  0.0939  0.1265
    3loPI   C5A   43  11.822   3.753   8.338 -0.2644 -0.2908  0.2322
    3loPI   C6A   44  11.515   4.025   8.030 -0.0622 -0.0970 -0.0032
    3loPI   C1B   45  12.279   3.189   9.750 -0.1455 -0.1352 -0.0141
    3loPI   C2B   46  12.318   3.133   9.326 -0.0904 -0.0691 -0.0339
    3loPI   C3B   47  12.391   3.191   8.899 -0.1404 -0.1849  0.0471
    3loPI   C4B   48  12.743   3.420   8.783  0.1491 -0.4064  0.0219
    4loPI    C1   49  12.886  14.745  10.650 -0.0182 -0.0451  0.0357
    4loPI    C2   50  12.708  15.103  10.656 -0.0472 -0.0605  0.1241
    4loPI    C3   51  12.672  14.857  10.969  0.1192 -0.0691  0.1372
    4loPI   PO4   52  12.813  14.664  10.453  0.0601  0.3604 -0.0349
    4loPI   GL1   53  12.887  14.708  10.037  0.1576 -0.2416 -0.3061
    4loPI   GL2   54  12.663  14.850   9.814  0.2045  0.0492 -0.0617
    4loPI   C1A   55  12.779  14.414   9.720  0.2477 -0.0373 -0.0100
    4loPI   C2A   56  12.723  14.260   9.331  0.0812 -0.2690 -0.0306
    4loPI   C3A   57  12.625  14.011   9.007  0.0633  0.0053  0.1533
    4loPI   C4A   58  12.601  13.903   8.465  0.0990  0.0708  0.1136
    4loPI   C5A   59  12.533  13.982   8.020 -0.1206 -0.0230 -0.0517
    4loPI   C6A   60  12.554  13.691   7.598  0.1157 -0.1777  0.0024
    4loPI   C1B   61  12.860  14.817   9.478 -0.0167 -0.2880  0.2030
    4loPI   C2B   62  12.908  14.658   9.015  0.1287 -0.0095 -0.4182
    4loPI   C3B   63  12.913  14.841   8.550 -0.1486 -0.1371  0.0542
    4loPI   C4B   64  13.060  14.868   8.117  0.0412 -0.1720 -0.0820
    5loPI    C1   65  15.127  16.843  10.589  0.2753  0.0538 -0.1460
    5loPI    C2   66  15.001  17.003  10.934  0.4083 -0.1553  0.0019
    5loPI    C3   67  14.747  16.796  10.704  0.2899  0.0841 -0.0852
    5loPI   PO4   68  15.299  16.960  10.445  0.1467  0.0600 -0.1293
    5loPI   GL1   69  15.235  17.059  10.076 -0.5590 -0.1806 -0.1153
    5loPI   GL2   70  15.068  17.448  10.002 -0.0536  0.2071 -0.1170
    5loPI   C1A   71  15.181  17.087   9.656 -0.0586 -0.2713 -0.0831
    5loPI   C2A   72  15.425  17.198   9.290 -0.1810  0.2551 -0.3049
    5loPI   C3A   73  15.495  17.023   8.878 -0.2569  0.2171 -0.0629
    5loPI   C4A   74  15.396  16.931   8.354 -0.2391 -0.1334  0.0259
    5loPI   C5A   75  15.047  16.674   8.109  0.2483  0.2941  0.0555
    5loPI   C6A   76  14.834  16.278   8.197 -0.0125  0.2314  0.1410
    5loPI   C1B   77  15.123  17.616   9.655  0.3885 -0.2674  0.2667
    5loPI   C2B   78  15.264  17.674   9.273  0.1515 -0.0422  0.0837
    5loPI   C3B   79  15.352  17.617   8.861  0.0162 -0.1044 -0.2444
    5loPI   C4B   80  15.443  17.405   8.496  0.0211 -0.2675 -0.0461
    6loPI    C1   81  11.573   9.188  11.222  0.2635 -0.1430 -0.0059
    6loPI    C2   82  11.925   9.305  11.373  0.1718 -0.0733  0.1565
    6loPI    C3   83  11.650   9.139  11.612 -0.0134  0.1297  0.0873
    6loPI   PO4   84  11.626   9.173  10.924 -0.2631 -0.1164 -0.1364
    6loPI   GL1   85  11.511   9.416  10.608 -0.0251  0.0587 -0.2707
    6loPI   GL2   86  11.396   9.659  10.504 -0.0588  0.0466  0.0277
    6loPI   C1A   87  11.618   9.180  10.239  0.1856  0.1515  0.0638
    6loPI   C2A   88  11.663   9.206   9.813 -0.0663  0.1621  0.0700
    6loPI   C3A   89  11.753   9.269   9.457  0.0171 -0.2751 -0.4756
    6loPI   C4A   90  11.875   9.314   9.004  0.1644  0.1621 -0.0947
    6loPI   C5A   91  11.864   9.218   8.577  0.1321  0.2133  0.1474
    6loPI   C6A   92  12.016   9.135   8.180 -0.2417 -0.2530  0.2431
    6loPI   C1B   93  11.382   9.584  10.174 -0.2209 -0.1528 -0.0276
    6loPI   C2B   94  11.396   9.630   9.695 -0.0659  0.2293  0.2434
    6loPI   C3B   95  11.518   9.665   9.223  0.0408 -0.0664 -0.2816
    6loPI   C4B   96  11.522   9.585   8.790  0.1944  0.0877  0.2885
    7loPI    C1   97  17.657   2.946  10.727 -0.0746  0.1264  0.2095
    7loPI    C2   98  17.969   2.719  10.834 -0.0520  0.0244 -0.0647
    7loPI    C3   99  17.600   2.622  10.953 -0.0002  0.0491  0.1186
    7loPI   PO4  100  17.688   3.033  10.456 -0.0697 -0.1290  0.2516
    7loPI   GL1  101  17.997   3.146  10.073 -0.0905 -0.1062 -0.0699
    7loPI   GL2  102  17.806   3.304   9.871 -0.2459  0.0243  0.0840
    7loPI   C1A  103  18.173   2.879   9.894 -0.1421 -0.3476 -0.0457
    7loPI   C2A  104  18.419   2.889   9.447 -0.1927 -0.3864  0.2381
    7loPI   C3A  105  18.571   3.037   9.094  0.0626 -0.0185 -0.0998
    7loPI   C4A  106  18.796   2.847   8.789  0.0876 -0.0526 -0.4146
    7loPI   C5A  107  18.772   2.812   8.406  0.1275  0.0934 -0.3244
    7loPI   C6A  108  18.506   2.934   8.121 -0.0537 -0.1795 -0.3547
    7loPI   C1B  109  17.651   3.377   9.488  0.2180 -0.0171 -0.0034
    7loPI   C2B  110  17.693   3.429   9.058 -0.1757  0.2141  0.0578
    7loPI   C3B  111  17.732   3.277   8.664  0.0940 -0.1240 -0.0355
    7loPI   C4B  112  17.552   3.096   8.239 -0.1941  0.1998  0.0323
    8loPI    C1  113   2.425   4.989  10.700 -0.0094 -0.0895  0.0358
    8loPI    C2  114   2.411   5.224  11.024 -0.0445 -0.0289 -0.0092
    8loPI    C3  115   2.375   4.827  11.062 -0.0713 -0.0200  0.0586
    8loPI   PO4  116   2.608   5.000  10.588 -0.0297  0.1147  0.0047
    8loPI   GL1  117   2.714   4.722  10.294  0.0302 -0.3122 -0.1823
    8loPI   GL2  118   2.402   4.630  10.246  0.3731  0.0622 -0.0674
    8loPI   C1A  119   2.728   4.468   9.964 -0.0737  0.0774  0.3990
    8loPI   C2A  120   2.705   4.530   9.540 -0.1126  0.0404 -0.3212
    8loPI   C3A  121   2.732   4.664   9.102  0.1141 -0.0457 -0.1181
    8loPI   C4A  122   2.876   4.578   8.584  0.1479 -0.0030 -0.1972
    8loPI   C5A  123   2.903   4.410   8.118  0.1532 -0.1774  0.0549
    8loPI   C6A  124   2.708   4.652   7.793  0.1493 -0.2262 -0.2867
    8loPI   C1B  125   2.213   4.518   9.782  0.1685 -0.1182 -0.1048
    8loPI   C2B  126   2.247   4.624   9.339  0.2719 -0.3038 -0.1227
    8loPI   C3B  127   2.206   4.635   8.852  0.0178  0.0118  0.0592
    8loPI   C4B  128   2.334   4.564   8.373 -0.1195 -0.1913 -0.0837
    9loPI    C1  129   4.860  13.992  10.729 -0.0344 -0.2969  0.0532
    9loPI    C2  130   5.023  14.258  10.979 -0.1397 -0.0484 -0.1370
    9loPI    C3  131   4.645  14.303  10.859 -0.1819 -0.3267 -0.1162
    9loPI   PO4  132   5.053  13.963  10.504  0.1776 -0.4388 -0.0280
    9loPI   GL1  133   4.989  13.760  10.161 -0.0676  0.2337 -0.0122
    9loPI   GL2  134   4.618  13.747  10.123  0.3500  0.1208 -0.0405
    9loPI   C1A  135   5.014  13.721   9.827  0.2304 -0.0954 -0.0855
    9loPI   C2A  136   4.934  13.717   9.347  0.1816 -0.0125 -0.1486
    9loPI   C3A  137   4.763  13.764   8.952 -0.0210 -0.1735  0.0183
    9loPI   C4A  138   4.661  13.850   8.505  0.0279 -0.0862 -0.0688
    9loPI   C5A  139   4.948  14.035   8.192 -0.0719  0.0536  0.4178
    9loPI   C6A  140   4.887  13.934   7.799  0.1617 -0.2984 -0.2036
    9loPI   C1B  141   4.519  13.936   9.771 -0.0643  0.3840 -0.0919
    9loPI   C2B  142   4.460  14.035   9.358  0.1950  0.0678 -0.1016
    9loPI   C3B  143   4.487  14.176   8.936  0.2284 -0.2910 -0.0454
    9loPI   C4B  144   4.462  14.486   8.625  0.1511  0.2103 -0.0743
   10loPI    C1  145  16.217   1.543  10.557  0.1484  0.0312  0.3693
   10loPI    C2  146  16.214   1.239  10.298 -0.2521  0.3657 -0.0329
   10loPI    C3  147  16.160   1.170  10.688 -0.0813 -0.0996 -0.0861
   10loPI   PO4  148  16.058   1.686  10.443 -0.1046 -0.1533  0.1290
   10loPI   GL1  149  15.743   1.814  10.274 -0.2634  0.1001 -0.0309
   10loPI   GL2  150  15.546   1.621  10.289 -0.0230  0.2786 -0.1262
   10loPI   C1A  151  15.688   1.773   9.772  0.0516  0.1406 -0.0575
   10loPI   C2A  152  15.605   1.798   9.407 -0.2181  0.1087  0.0801
   10loPI   C3A  153  15.508   1.943   9.013 -0.3911  0.0734 -0.2279
   10loPI   C4A  154  15.678   1.956   8.606  0.0633 -0.3222 -0.3290
   10loPI   C5A  155  15.603   2.046   8.091 -0.1415  0.0095 -0.2094
   10loPI   C6A  156  15.299   2.191   7.829 -0.0751 -0.1730 -0.1315
   10loPI   C1B  157  15.392   1.386   9.936 -0.0265 -0.2790 -0.2195
   10loPI   C2B  158  15.409   1.358   9.481 -0.0557 -0.0029  0.2091
   10loPI   C3B  159  15.419   1.081   9.123 -0.2051 -0.1523  0.0989
   10loPI   C4B  160  15.265   1.054   8.682  0.0746  0.0487 -0.1620
   11loPI    C1  161  17.049   0.295  10.448  0.0094 -0.0444  0.0093
   11loPI    C2  162  16.993   0.690  10.426  0.1855 -0.0238 -0.0886
   11loPI    C3  163  17.311   0.543  10.619  0.1077 -0.1190 -0.0322
   11loPI   PO4  164  16.937   0.285  10.176  0.0647  0.2405 -0.0838
   11loPI   GL1  165  16.772   0.470   9.937  0.1749 -0.0415  0.1567
   11loPI   GL2  166  16.736   0.174   9.771 -0.0329  0.0196 -0.2966
   11loPI   C1A  167  16.643   0.792   9.569 -0.0513  0.1373  0.1721
   11loPI   C2A  168  16.478   0.933   9.185  0.0230 -0.2477  0.1714
   11loPI   C3A  169  16.259   0.743   8.757 -0.0493 -0.2585  0.3412
   11loPI   C4A  170  16.085   0.548   8.314 -0.1091  0.2064  0.1411
   11loPI   C5A  171  16.358   0.441   7.968  0.1118  0.1207  0.0218
   11loPI   C6A  172  16.208   0.482   7.568  0.3328 -0.0981  0.0837
   11loPI   C1B  173  16.906   0.338   9.397  0.2658  0.0195 -0.1470
   11loPI   C2B  174  16.995   0.706   9.070 -0.2676  0.4315  0.2754
   11loPI   C3B  175  16.726   0.986   8.790 -0.2091  0.1472 -0.0218
   11loPI   C4B  176  16.386   1.094   8.385 -0.1771  0.1862 -0.0519
   12loPI    C1  177   3.023   2.079  10.905  0.0364 -0.1002  0.1733
   12loPI    C2  178   2.872   2.443  10.837 -0.0472 -0.1301  0.1988
   12loPI    C3  179   3.031   2.356  11.194 -0.2144 -0.1829  0.2615
   12loPI   PO4  180   3.155   2.032  10.642 -0.0436 -0.1411  0.1821
   12loPI   GL1  181   3.105   1.999  10.147  0.2087 -0.0961 -0.0569
   12loPI   GL2  182   3.233   1.808   9.993  0.2830  0.2187  0.1396
   12loPI   C1A  183   2.997   2.179   9.770  0.0799 -0.0699  0.1023
   12loPI   C2A  184   2.967   2.238   9.388  0.0034  0.1348  0.2835
   12loPI   C3A  185   3.023   2.317   8.913  0.0111  0.3324 -0.1193
   12loPI   C4A  186   3.035   2.324   8.482  0.0405 -0.2339 -0.2833
   12loPI   C5A  187   2.958   2.525   8.016  0.0460  0.0141 -0.1132
   12loPI   C6A  188   2.829   2.896   7.943  0.2094  0.0474 -0.2681
   12loPI   C1B  189   3.039   1.643   9.529  0.0303  0.0721 -0.1385
   12loPI   C2B  190   2.900   1.434   9.194 -0.0131 -0.0270  0.2211
   12loPI   C3B  191   2.899   1.358   8.820 -0.0672  0.0399  0.0632
   12loPI   C4B  192   2.798   1.442   8.386 -0.3390 -0.2889  0.2754
   13loPI    C1  193   2.124   9.283  11.228  0.0050 -0.1672  0.1770
   13loPI    C2  194   2.522   9.244  11.228  0.0464  0.1617 -0.2979
   13loPI    C3  195   2.341   9.446  11.522  0.2485  0.1826 -0.1859
   13loPI   PO4  196   2.001   9.522  10.923  0.2472  0.1308  0.1702
   13loPI   GL1  197   2.082   9.372  10.520 -0.0626 -0.1215  0.1104
   13loPI   GL2  198   2.352   9.417  10.333  0.1479  0.1772  0.1767
   13loPI   C1A  199   1.934   9.575  10.157  0.0978 -0.0042  0.2446
   13loPI   C2A  200   1.697   9.493   9.720  0.1069 -0.0477 -0.0658
   13loPI   C3A  201   1.754   9.532   9.292  0.1796 -0.0731  0.1482
   13loPI   C4A  202   1.752   9.576   8.821  0.0228  0.0948 -0.0345
   13loPI   C5A  203   1.783   9.364   8.436  0.0805 -0.0588 -0.4285
   13loPI   C6A  204   1.716   9.281   7.956 -0.2526 -0.1838  0.0117
   13loPI   C1B  205   2.298   9.555   9.860  0.0033 -0.0298 -0.2216
   13loPI   C2B  206   2.190   9.599   9.486 -0.2830  0.4430 -0.0008
   13loPI   C3B  207   2.227   9.518   9.113 -0.3014  0.1506 -0.1353
   13loPI   C4B  208   2.230   9.514   8.681  0.0911  0.2659 -0.1063
   14loPI    C1  209  10.299   2.476  11.110 -0.2833 -0.2555 -0.0753
   14loPI    C2  210  10.122   2.823  11.198  0.0774 -0.0561 -0.1166
   14loPI    C3  211  10.037   2.496  11.411 -0.0642  0.1172  0.0979
   14loPI   PO4  212  10.200   2.460  10.807  0.0113 -0.3956 -0.0955
   14loPI   GL1  213  10.432   2.379  10.452  0.0363  0.2706 -0.1974
   14loPI   GL2  214  10.773   2.629  10.375  0.1318  0.1415  0.3496
   14loPI   C1A  215  10.657   2.218  10.029  0.0192 -0.0444 -0.3159
   14loPI   C2A  216  10.836   2.084   9.613  0.2694 -0.3230  0.0307
   14loPI   C3A  217  10.820   2.098   9.121 -0.0833 -0.0893  0.5390
   14loPI   C4A  218  10.777   2.269   8.781 -0.1741  0.0393 -0.1118
   14loPI   C5A  219  10.562   2.287   8.413 -0.0656 -0.1450 -0.0949
   14loPI   C6A  220  10.502   2.044   7.908  0.0802 -0.0529  0.1673
   14loPI   C1B  221  11.004   2.565   9.929  0.0882 -0.0122 -0.1340
   14loPI   C2B  222  11.163   2.622   9.553  0.2547  0.0049 -0.0102
   14loPI   C3B  223  11.119   2.614   9.101  0.3210 -0.1174 -0.1776
   14loPI   C4B  224  11.220   2.688   8.610 -0.3687  0.0786  0.2106
   15loPI    C1  225  13.910  12.357  11.013 -0.2339 -0.1386  0.5172
   15loPI    C2  226  14.253  12.545  11.097 -0.1777  0.0824 -0.1504
   15loPI    C3  227  13.906  12.744  11.113 -0.2000  0.0426 -0.1379
   15loPI   PO4  228  13.970  12.174  10.845 -0.2224  0.1346 -0.4101
   15loPI   GL1  229  13.805  12.096  10.434  0.1485 -0.3865 -0.0863
   15loPI   GL2  230  13.518  12.210  10.518  0.0570 -0.1362  0.2066
   15loPI   C1A  231  13.960  12.328  10.083 -0.3212  0.0297  0.0374
   15loPI   C2A  232  13.932  12.300   9.620 -0.0267 -0.3676 -0.3309
   15loPI   C3A  233  13.921  12.268   9.164  0.0654 -0.0263 -0.0307
   15loPI   C4A  234  13.982  12.261   8.797  0.1044  0.0279 -0.0819
   15loPI   C5A  235  13.954  12.303   8.350 -0.0857 -0.1135 -0.1958
   15loPI   C6A  236  14.100  12.522   8.005 -0.1246  0.4032 -0.1584
   15loPI   C1B  237  13.490  12.156  10.076  0.1380  0.0350 -0.0614
   15loPI   C2B  238  13.359  12.271   9.526  0.1069  0.2072 -0.0103
   15loPI   C3B  239  13.364  12.222   9.138 -0.0511  0.1304  0.1241
   15loPI   C4B  240  13.433  12.182   8.707  0.2101 -0.2101 -0.3263
   16loPI    C1  241   7.430  17.251  10.366  0.1483  0.0737 -0.0225
   16loPI    C2  242   7.136  17.466  10.532 -0.0764 -0.0232 -0.2858
   16loPI    C3  243   7.261  17.129  10.708 -0.0882  0.0436 -0.1481
   16loPI   PO4  244   7.406  17.199  10.052 -0.0000  0.1455 -0.0587
   16loPI   GL1  245   7.411  17.463   9.665 -0.1214 -0.1641 -0.3403
   16loPI   GL2  246   7.677  17.588   9.505 -0.1953 -0.2012  0.1798
   16loPI   C1A  247   7.254  17.371   9.319 -0.2242 -0.3480 -0.0014
   16loPI   C2A  248   7.155  17.275   8.962 -0.2301  0.2093  0.1750
   16loPI   C3A  249   7.087  17.388   8.484  0.1900 -0.0495  0.0922
   16loPI   C4A  250   6.895  17.182   8.150 -0.0099 -0.3347 -0.0507
   16loPI   C5A  251   6.783  16.875   7.911  0.0560  0.1463  0.0101
   16loPI   C6A  252   6.362  16.855   7.693 -0.0054 -0.1555  0.2278
   16loPI   C1B  253   7.583  17.640   9.075 -0.1955 -0.1220  0.1808
   16loPI   C2B  254   7.430  17.635   8.662 -0.1361  0.0304 -0.1398
   16loPI   C3B  255   7.539  17.565   8.320  0.1747 -0.2065  0.4327
   16loPI   C4B  256   7.282  17.507   7.942  0.0061 -0.0857  0.2025
   17loPI    C1  257   0.510  10.097  11.235 -0.0648  0.1092 -0.3796
   17loPI    C2  258   0.118  10.029  11.283 -0.0232  0.1709  0.0985
   17loPI    C3  259   0.385   9.820  11.496  0.1958  0.2938 -0.0517
   17loPI   PO4  260   0.554  10.044  10.978  0.0789 -0.1456  0.1361
   17loPI   GL1  261   0.693  10.101  10.604  0.3053  0.0046  0.0088
   17loPI   GL2  262   0.911  10.315  10.574  0.1490  0.0153  0.1932
   17loPI   C1A  263   0.510   9.821  10.268  0.1183  0.0786  0.1799
   17loPI   C2A  264   0.206   9.784  10.004 -0.2734 -0.0790  0.1361
   17loPI   C3A  265   0.209   9.690   9.608 -0.0707 -0.2369 -0.2103
   17loPI   C4A  266  -0.069   9.440   9.345  0.0760  0.0747 -0.0164
   17loPI   C5A  267  -0.452   9.475   9.092  0.3240  0.1480 -0.0649
   17loPI   C6A  268  -0.561   9.404   8.738  0.1208  0.2255 -0.1502
   17loPI   C1B  269   0.965   9.973  10.196  0.1838  0.0387  0.1181
   17loPI   C2B  270   0.977   9.721   9.925 -0.1719  0.1853 -0.2343
   17loPI   C3B  271   0.696   9.785   9.604  0.2030  0.2106  0.0275
   17loPI   C4B  272   0.801   9.759   9.209 -0.1786 -0.2650 -0.1773
   18loPI    C1  273  17.603   6.805  10.735 -0.1040 -0.0240 -0.0401
   18loPI    C2  274  17.852   7.095  10.619 -0.2845  0.0882 -0.1502
   18loPI    C3  275  17.604   7.156  10.927 -0.1110 -0.0567  0.0201
   18loPI   PO4  276  17.656   6.629  10.512  0.1748 -0.0274  0.4082
   18loPI   GL1  277  17.468   6.490  10.144  0.0597  0.0283 -0.1058
   18loPI   GL2  278  17.186   6.354  10.084  0.1059  0.2534 -0.1841
   18loPI   C1A  279  17.532   6.433   9.745 -0.1023 -0.3764  0.5223
   18loPI   C2A  280  17.552   6.413   9.321  0.0319 -0.0300  0.1172
   18loPI   C3A  281  17.622   6.673   9.002  0.0884  0.0083  0.0372
   18loPI   C4A  282  17.412   6.841   8.701 -0.0524  0.0623  0.0352
   18loPI   C5A  283  17.394   7.125   8.359 -0.2546  0.4398  0.0894
   18loPI   C6A  284  17.083   7.290   8.213 -0.1272  0.2822 -0.0046
   18loPI   C1B  285  16.969   6.177   9.712 -0.0797  0.0943 -0.0293
   18loPI   C2B  286  17.008   6.220   9.320 -0.1406 -0.1917 -0.1590
   18loPI   C3B  287  17.215   6.389   8.904 -0.1248 -0.0254  0.0014
   18loPI   C4B  288  17.036   6.483   8.549 -0.0572  0.0944 -0.3003
   19loPI    C1  289   6.376  15.771  10.684 -0.1245  0.0909  0.0699
   19loPI    C2  290   6.348  16.071  10.947 -0.1164  0.1497  0.0042
   19loPI    C3  291   6.083  15.771  10.956 -0.2496  0.2643 -0.0623
   19loPI   PO4  292   6.414  15.842  10.534  0.0785 -0.1625  0.1334
   19loPI   GL1  293   6.594  15.740  10.163  0.2349 -0.0604  0.0199
   19loPI   GL2  294   6.835  15.842  10.100 -0.1297  0.2371 -0.2495
   19loPI   C1A  295   6.477  15.566   9.751  0.3208  0.0011 -0.3450
   19loPI   C2A  296   6.484  15.568   9.351 -0.1356 -0.4298 -0.1371
   19loPI   C3A  297   6.482  15.592   8.909  0.0363 -0.2395 -0.1092
   19loPI   C4A  298   6.698  15.548   8.548 -0.0816 -0.0310  0.3073
   19loPI   C5A  299   6.742  15.580   8.067  0.1905 -0.0027 -0.1331
   19loPI   C6A  300   6.987  15.508   7.724  0.0195  0.0710 -0.1050
   19loPI   C1B  301   6.914  15.822   9.609 -0.0024  0.1755 -0.2901
   19loPI   C2B  302   6.878  15.971   9.202 -0.3004 -0.2725  0.2717
   19loPI   C3B  303   6.816  16.033   8.841  0.2271  0.1216 -0.0844
   19loPI   C4B  304   6.908  16.009   8.385  0.0028 -0.1179  0.2158
   20loPI    C1  305  10.336  11.374  10.911  0.0709  0.0258  0.0474
   20loPI    C2  306  10.294  11.379  11.309  0.3047 -0.3440  0.0811
   20loPI    C3  307  10.098  11.107  11.090  0.0523 -0.0415 -0.0767
   20loPI   PO4  308  10.288  11.545  10.796  0.0407  0.0428  0.1253
   20loPI   GL1  309  10.255  11.557  10.247  0.4860  0.0888 -0.2551
   20loPI   GL2  310  10.516  11.524  10.333  0.1929  0.1562 -0.2758
   20loPI   C1A  311  10.181  11.287   9.784  0.1130 -0.3387  0.5026
   20loPI   C2A  312  10.231  11.250   9.358 -0.0628 -0.0437 -0.0439
   20loPI   C3A  313  10.177  11.212   8.883 -0.0808  0.0591  0.0397
   20loPI   C4A  314  10.134  11.324   8.426  0.3815 -0.1437  0.2776
   20loPI   C5A  315  10.322  11.249   8.101 -0.0839  0.0310 -0.0689
   20loPI   C6A  316  10.501  10.879   7.844  0.0758 -0.1067 -0.1330
   20loPI   C1B  317  10.638  11.434   9.903  0.0704 -0.2644  0.2879
   20loPI   C2B  318  10.783  11.311   9.427  0.0544 -0.0585 -0.0735
   20loPI   C3B  319  10.700  11.359   9.056 -0.0039  0.1895 -0.1892
   20loPI   C4B  320  10.652  11.340   8.602  0.0862  0.2020  0.1701
   21loPI    C1  321   4.819  13.074  10.944  0.0671 -0.2699 -0.1365
   21loPI    C2  322   4.840  12.760  11.190 -0.1137 -0.0941  0.1086
   21loPI    C3  323   4.673  13.101  11.315  0.0284  0.0830 -0.1736
   21loPI   PO4  324   4.815  13.084  10.722 -0.0204  0.2026 -0.1655
   21loPI   GL1  325   4.809  12.981  10.364 -0.1373 -0.0264  0.1342
   21loPI   GL2  326   4.515  12.778  10.234  0.1999  0.1869  0.0358
   21loPI   C1A  327   4.803  13.246   9.969 -0.1825  0.0142 -0.0783
   21loPI   C2A  328   4.801  13.334   9.556  0.2453  0.2956 -0.0767
   21loPI   C3A  329   4.813  13.267   9.099  0.2408 -0.1146  0.0092
   21loPI   C4A  330   4.628  13.311   8.727  0.1049 -0.1227  0.0093
   21loPI   C5A  331   4.487  13.351   8.335 -0.0880 -0.4075  0.0576
   21loPI   C6A  332   4.772  13.394   8.009 -0.0170  0.2916 -0.3362
   21loPI   C1B  333   4.567  12.845   9.740  0.1944  0.0142  0.0195
   21loPI   C2B  334   4.583  12.892   9.424  0.2394 -0.0294 -0.1368
   21loPI   C3B  335   4.697  12.742   8.969  0.0450  0.2203 -0.1871
   21loPI   C4B  336   5.099  12.473   8.695  0.0954  0.0193 -0.0800
   22loPI    C1  337  11.177   5.552  10.728  0.2438  0.0846 -0.1312
   22loPI    C2  338  10.885   5.768  10.895 -0.2184 -0.3941 -0.2937
   22loPI    C3  339  11.137   5.561  11.126  0.0541  0.0828 -0.1493
   22loPI   PO4  340  11.117   5.452  10.532  0.1970 -0.0677 -0.1131
   22loPI   GL1  341  11.070   5.562  10.198  0.0144  0.0521 -0.1401
   22loPI   GL2  342  10.852   5.335  10.131  0.1482 -0.0530  0.0447
   22loPI   C1A  343  11.040   5.782   9.833 -0.2142  0.2276  0.0813
   22loPI   C2A  344  10.984   5.818   9.433 -0.0498 -0.0439  0.1892
   22loPI   C3A  345  11.180   5.850   9.046 -0.2599 -0.3161  0.1659
   22loPI   C4A  346  11.290   6.115   8.765  0.1499 -0.2141  0.2262
   22loPI   C5A  347  11.186   6.345   8.371 -0.0643  0.0558 -0.0751
   22loPI   C6A  348  11.232   6.708   8.218 -0.0371  0.1121  0.1394
   22loPI   C1B  349  11.124   5.315   9.714  0.2685  0.0415 -0.1058
   22loPI   C2B  350  11.319   5.377   9.286  0.1176  0.0237  0.0241
   22loPI   C3B  351  11.539   5.513   8.970 -0.0723 -0.3310 -0.1638
   22loPI   C4B  352  11.629   5.284   8.678 -0.1351  0.2882  0.4413
   23loPI    C1  353   6.576  13.369  10.949  0.0310 -0.0320 -0.2934
   23loPI    C2  354   6.929  13.484  11.096  0.0242 -0.0277 -0.2804
   23loPI    C3  355   6.618  13.735  11.104 -0.0343 -0.1048 -0.1005
   23loPI   PO4  356   6.632  13.163  10.752 -0.3462 -0.1007 -0.1052
   23loPI   GL1  357   6.735  13.066  10.412  0.1511  0.0314  0.2532
   23loPI   GL2  358   6.721  12.799  10.223 -0.0935  0.0727 -0.1046
   23loPI   C1A  359   6.843  13.068   9.838 -0.4353 -0.1970 -0.3326
   23loPI   C2A  360   6.929  12.970   9.441  0.3469  0.2698 -0.0126
   23loPI   C3A  361   7.007  12.933   9.055 -0.0683  0.4135  0.1268
   23loPI   C4A  362   6.964  13.330   8.698 -0.1894  0.2277 -0.0759
   23loPI   C5A  363   7.082  13.565   8.410  0.2384 -0.1024  0.0003
   23loPI   C6A  364   7.114  13.772   8.001  0.0971  0.2544  0.0245
   23loPI   C1B  365   6.614  12.657   9.860 -0.0582  0.1587 -0.0324
   23loPI   C2B  366   6.629  12.565   9.386 -0.4154 -0.1531 -0.0726
   23loPI   C3B  367   6.494  12.390   8.946 -0.0977 -0.0882  0.2151
   23loPI   C4B  368   6.487  12.552   8.558  0.0652  0.0901  0.2064
   24loPI    C1  369  17.624  16.512  10.666 -0.1728  0.1225  0.0596
   24loPI    C2  370  17.664  16.884  10.809  0.2589 -0.0057  0.2883
   24loPI    C3  371  17.602  16.578  11.060 -0.1741 -0.0828  0.0950
   24loPI   PO4  372  17.812  16.526  10.529  0.0403 -0.0173 -0.0639
   24loPI   GL1  373  18.040  16.209  10.304  0.3696  0.1789  0.0377
   24loPI   GL2  374  18.041  15.923  10.253  0.2818 -0.0287  0.0052
   24loPI   C1A  375  18.125  16.418   9.875 -0.0559 -0.0967  0.1711
   24loPI   C2A  376  18.155  16.343   9.454 -0.1996  0.1467 -0.2540
   24loPI   C3A  377  18.246  16.265   9.085  0.0218 -0.3201  0.1099
   24loPI   C4A  378  18.199  16.204   8.748  0.3998  0.3034  0.1045
   24loPI   C5A  379  18.030  16.125   8.313 -0.2549  0.1344  0.1260
   24loPI   C6A  380  17.883  16.456   8.041 -0.1792 -0.2874 -0.1016
   24loPI   C1B  381  18.065  15.921   9.822 -0.2250 -0.1794 -0.3353
   24loPI   C2B  382  18.160  15.808   9.390  0.0381 -0.2011  0.0628
   24loPI   C3B  383  18.175  15.723   8.935 -0.4827  0.1055  0.1538
   24loPI   C4B  384  18.390  15.851   8.494 -0.0737 -0.1938 -0.1282
   25loPI    C1  385   4.097  12.572  10.936  0.1861 -0.0151 -0.0686
   25loPI    C2  386   4.312  12.864  11.105  0.2129  0.0143 -0.1527
   25loPI    C3  387   4.398  12.481  11.182  0.0225  0.0288  0.1510
   25loPI   PO4  388   4.089  12.638  10.745  0.1145  0.1752  0.0118
   25loPI   GL1  389   3.953  12.360  10.450  0.1201 -0.2127  0.1528
   25loPI   GL2  390   4.169  12.300  10.269 -0.0212  0.2009  0.1163
   25loPI   C1A  391   3.776  12.363   9.923 -0.0432 -0.0685  0.0023
   25loPI   C2A  392   3.771  12.197   9.416 -0.2133 -0.0200  0.0419
   25loPI   C3A  393   3.655  12.386   9.073 -0.2056 -0.3003  0.3267
   25loPI   C4A  394   3.493  12.379   8.636 -0.1787  0.1587 -0.2716
   25loPI   C5A  395   3.310  12.287   8.252  0.2911  0.0566 -0.3129
   25loPI   C6A  396   3.443  12.712   8.143  0.0521 -0.0593 -0.2776
   25loPI   C1B  397   4.238  12.163   9.893 -0.0990  0.0238  0.0135
   25loPI   C2B  398   4.225  12.131   9.491 -0.2904 -0.1372 -0.1517
   25loPI   C3B  399   4.134  12.049   9.123 -0.3290  0.2153  0.2562
   25loPI   C4B  400   4.131  11.939   8.757  0.0115 -0.0859  0.3107
   26loPI    C1  401   0.161   3.934  10.804  0.1207 -0.1023 -0.1271
   26loPI    C2  402   0.449   3.781  11.035  0.0080 -0.1048  0.0134
   26loPI    C3  403   0.076   3.814  11.176 -0.0400 -0.0104 -0.1331
   26loPI   PO4  404   0.160   3.773  10.592  0.3848  0.2846  0.0079
   26loPI   GL1  405   0.314   3.837  10.178 -0.2148 -0.0361  0.1836
   26loPI   GL2  406   0.123   3.655  10.062  0.0410  0.1093 -0.1251
   26loPI   C1A  407   0.427   3.965   9.670  0.2755 -0.1972 -0.0152
   26loPI   C2A  408   0.484   3.967   9.241  0.2187 -0.0535 -0.0682
   26loPI   C3A  409   0.497   3.958   8.774  0.0160  0.1885  0.2810
   26loPI   C4A  410   0.652   3.767   8.418 -0.0760  0.0375  0.1288
   26loPI   C5A  411   0.839   3.409   8.120  0.4053 -0.0682  0.3305
   26loPI   C6A  412   1.057   3.390   7.665 -0.0695 -0.3248 -0.4063
   26loPI   C1B  413  -0.009   3.687   9.687  0.0727 -0.0319 -0.0204
   26loPI   C2B  414   0.019   3.763   9.234 -0.0327  0.1259 -0.2080
   26loPI   C3B  415  -0.096   3.830   8.770 -0.2395  0.1548  0.1212
   26loPI   C4B  416   0.163   3.807   8.344  0.0519  0.1604  0.0039
   27loPI    C1  417   5.109  15.787  10.642 -0.1124 -0.3099  0.0459
   27loPI    C2  418   4.863  15.835  10.954 -0.0158 -0.2089  0.1070
   27loPI    C3  419   5.243  15.960  10.977 -0.0860  0.0662 -0.1536
   27loPI   PO4  420   5.054  15.575  10.564 -0.1640 -0.0806 -0.3441
   27loPI   GL1  421   4.887  15.382  10.173 -0.1721 -0.0985  0.0689
   27loPI   GL2  422   4.555  15.507  10.150  0.0664 -0.3302  0.1417
   27loPI   C1A  423   4.916  15.500   9.788 -0.2202  0.1924  0.0416
   27loPI   C2A  424   5.129  15.531   9.473 -0.0516  0.0288 -0.1709
   27loPI   C3A  425   5.173  15.556   9.143  0.1869 -0.1874 -0.0138
   27loPI   C4A  426   5.241  15.612   8.682 -0.1234  0.1169 -0.1350
   27loPI   C5A  427   5.293  15.532   8.307  0.2705 -0.2717  0.3645
   27loPI   C6A  428   5.341  15.906   8.027  0.3429  0.1392  0.3097
   27loPI   C1B  429   4.254  15.566   9.867 -0.0690 -0.1133  0.0194
   27loPI   C2B  430   4.199  15.684   9.334  0.3851 -0.1588 -0.2202
   27loPI   C3B  431   4.091  15.618   8.893  0.1613  0.1175  0.0565
   27loPI   C4B  432   4.090  15.488   8.446  0.0512  0.0734  0.1100
   28loPI    C1  433  15.586  12.176  11.099  0.1727 -0.1394  0.3379
   28loPI    C2  434  15.715  12.496  10.897 -0.0631 -0.1494  0.1671
   28loPI    C3  435  15.658  12.518  11.292  0.0211 -0.0122  0.1724
   28loPI   PO4  436  15.385  12.054  10.782  0.2081  0.1656  0.2016
   28loPI   GL1  437  14.938  12.107  10.646  0.0772  0.1541  0.0301
   28loPI   GL2  438  14.909  12.418  10.661 -0.1727 -0.1150 -0.0512
   28loPI   C1A  439  14.853  12.041  10.264 -0.1735 -0.1114 -0.2093
   28loPI   C2A  440  14.845  12.152   9.804 -0.2019 -0.0359  0.0746
   28loPI   C3A  441  14.828  12.123   9.348  0.3454  0.2024  0.0801
   28loPI   C4A  442  14.845  12.044   8.917 -0.1307  0.2809 -0.1278
   28loPI   C5A  443  14.936  12.211   8.402  0.2393 -0.3641 -0.0790
   28loPI   C6A  444  14.598  12.428   8.155 -0.1096  0.2056 -0.0964
   28loPI   C1B  445  14.894  12.514  10.184  0.2121 -0.1596 -0.3868
   28loPI   C2B  446  14.993  12.641   9.868 -0.3203  0.0878 -0.0082
   28loPI   C3B  447  14.974  12.595   9.479  0.1169  0.0411  0.1163
   28loPI   C4B  448  14.948  12.511   8.992 -0.0225 -0.2472 -0.2676
   29loPI    C1  449   0.158   4.719  10.963  0.1694  0.0148 -0.0808
   29loPI    C2  450   0.292   5.058  11.127  0.0344 -0.0009  0.0635
   29loPI    C3  451   0.490   4.716  11.186  0.0596  0.0173  0.0839
   29loPI   PO4  452   0.168   4.739  10.715  0.0233 -0.0527  0.2673
   29loPI   GL1  453   0.054   4.922  10.270  0.2777  0.0717  0.0978
   29loPI   GL2  454   0.039   4.638  10.117 -0.1007 -0.1042 -0.0472
   29loPI   C1A  455   0.161   5.285  10.103 -0.0727 -0.2849 -0.1555
   29loPI   C2A  456   0.182   5.315   9.685  0.1787  0.0653 -0.0957
   29loPI   C3A  457   0.130   5.268   9.275  0.1710 -0.1009  0.1555
   29loPI   C4A  458   0.140   5.286   8.918  0.0977 -0.0870  0.1104
   29loPI   C5A  459  -0.076   5.298   8.528 -0.2982  0.1914  0.1255
   29loPI   C6A  460   0.084   5.278   8.134 -0.0654 -0.0455  0.0971
   29loPI   C1B  461   0.070   4.751   9.647  0.1037  0.0763  0.0173
   29loPI   C2B  462   0.072   4.792   9.160  0.2236 -0.1897 -0.0179
   29loPI   C3B  463  -0.017   4.751   8.644  0.0753 -0.0935  0.0977
   29loPI   C4B  464  -0.221   4.688   8.199  0.1573 -0.0919  0.3675
   30loPI    C1  465  17.740  10.539  10.727  0.1350 -0.0347 -0.1480
   30loPI    C2  466  17.953  10.414  11.042  0.0897  0.0445 -0.0855
   30loPI    C3  467  17.998  10.787  10.905  0.1994 -0.0276 -0.2497
   30loPI   PO4  468  17.839  10.388  10.540  0.0157 -0.1263  0.1787
   30loPI   GL1  469  17.517  10.303  10.193  0.0851 -0.0907  0.0125
   30loPI   GL2  470  17.590  10.572  10.143 -0.0053 -0.1270  0.1980
   30loPI   C1A  471  17.360   9.976   9.930  0.1187  0.1233  0.1470
   30loPI   C2A  472  17.336   9.816   9.485  0.0058  0.1576 -0.1388
   30loPI   C3A  473  17.114   9.612   9.127  0.1484 -0.0274  0.2560
   30loPI   C4A  474  17.149   9.811   8.810 -0.0801  0.1448  0.0214
   30loPI   C5A  475  17.027  10.090   8.452 -0.0726  0.0675  0.0093
   30loPI   C6A  476  16.850  10.431   8.128  0.0523 -0.0143 -0.3183
   30loPI   C1B  477  17.631  10.836   9.859 -0.3504  0.2735  0.3116
   30loPI   C2B  478  17.579  10.968   9.418  0.0256  0.0451  0.1114
   30loPI   C3B  479  17.732  11.233   9.074 -0.1456 -0.0361  0.1444
   30loPI   C4B  480  17.989  11.214   8.780  0.0044  0.1735  0.4044
   31loPI    C1  481   8.455   1.813  10.571  0.0916  0.2383  0.2714
   31loPI    C2  482   8.851   1.805  10.632  0.1035  0.1587  0.1862
   31loPI    C3  483   8.602   1.852  10.942  0.1790  0.1941  0.2419
   31loPI   PO4  484   8.452   2.049  10.412  0.0198 -0.1733  0.1122
   31loPI   GL1  485   8.348   2.072  10.018  0.0769 -0.1288  0.0699
   31loPI   GL2  486   8.383   2.442  10.022  0.3819  0.0455  0.0183
   31loPI   C1A  487   8.134   2.069   9.680 -0.0439 -0.0497  0.0048
   31loPI   C2A  488   8.108   2.077   9.202 -0.2356 -0.1615 -0.2529
   31loPI   C3A  489   8.112   2.322   8.837 -0.3284 -0.3357 -0.3411
   31loPI   C4A  490   8.466   2.473   8.527  0.1025  0.2263  0.2787
   31loPI   C5A  491   8.655   2.636   8.223  0.3503 -0.2340 -0.1873
   31loPI   C6A  492   8.652   2.895   7.997  0.0722  0.1494 -0.0687
   31loPI   C1B  493   8.478   2.417   9.533 -0.1817 -0.2046 -0.1426
   31loPI   C2B  494   8.481   2.572   9.104 -0.0206  0.0686  0.1281
   31loPI   C3B  495   8.379   2.820   8.858  0.0428  0.0131 -0.1617
   31loPI   C4B  496   8.299   3.016   8.432  0.0489 -0.1324 -0.1890
   32loPI    C1  497   5.052   4.105  10.956  0.0205  0.2494  0.1121
   32loPI    C2  498   5.145   3.922  11.299  0.1968 -0.0532 -0.0921
   32loPI    C3  499   5.077   4.316  11.295 -0.0039 -0.0777  0.3220
   32loPI   PO4  500   5.233   4.088  10.648 -0.3412  0.2818  0.0060
   32loPI   GL1  501   5.333   4.068  10.280  0.0270  0.0937 -0.0587
   32loPI   GL2  502   5.628   4.041  10.125  0.2564 -0.2142  0.0940
   32loPI   C1A  503   5.132   4.024   9.919 -0.0060  0.0474 -0.0558
   32loPI   C2A  504   5.072   4.079   9.448  0.0473  0.1725 -0.0837
   32loPI   C3A  505   5.062   3.881   9.110  0.1450 -0.1310 -0.0911
   32loPI   C4A  506   4.903   3.734   8.705  0.0818  0.0831 -0.0440
   32loPI   C5A  507   4.918   3.529   8.258  0.0048 -0.0411 -0.3944
   32loPI   C6A  508   5.009   3.603   7.859  0.2654 -0.0482 -0.4629
   32loPI   C1B  509   5.585   3.988   9.722 -0.1028 -0.0354 -0.1008
   32loPI   C2B  510   5.578   3.924   9.247  0.0265  0.1784  0.2960
   32loPI   C3B  511   5.611   3.857   8.751  0.1697 -0.1776  0.1157
   32loPI   C4B  512   5.392   3.698   8.335  0.0222 -0.0351 -0.0859
   33loPI    C1  513   5.737   5.387  10.876  0.0106 -0.0747  0.0155
   33loPI    C2  514   5.811   5.590  11.213 -0.1751 -0.1468  0.1019
   33loPI    C3  515   5.465   5.644  11.019  0.0030  0.0261 -0.1767
   33loPI   PO4  516   6.007   5.439  10.758  0.2581  0.1600  0.1378
   33loPI   GL1  517   6.112   5.441  10.378  0.1023  0.3325  0.2051
   33loPI   GL2  518   5.823   5.148  10.361 -0.1105 -0.1555 -0.0442
   33loPI   C1A  519   5.910   5.403   9.967 -0.3776  0.1078 -0.0793
   33loPI   C2A  520   5.878   5.291   9.572  0.0144  0.3821 -0.2002
   33loPI   C3A  521   5.977   5.180   9.142  0.0716 -0.1339 -0.0481
   33loPI   C4A  522   5.909   5.194   8.742 -0.1660  0.1703 -0.0920
   33loPI   C5A  523   5.885   5.024   8.409 -0.1389 -0.0467 -0.2495
   33loPI   C6A  524   5.668   4.951   8.015  0.0261  0.0584 -0.0648
   33loPI   C1B  525   6.193   4.824  10.174 -0.0241  0.0976  0.3248
   33loPI   C2B  526   6.401   4.463   9.838 -0.1785 -0.1222 -0.1712
   33loPI   C3B  527   6.402   4.302   9.447  0.3870 -0.3687  0.1312
   33loPI   C4B  528   6.350   4.269   8.969 -0.0175 -0.0452 -0.0670
   34loPI    C1  529   1.394   1.819  10.507 -0.0373  0.0523 -0.0516
   34loPI    C2  530   1.624   1.540  10.679  0.1391  0.1504 -0.1250
   34loPI    C3  531   1.225   1.503  10.685  0.1530  0.0170  0.0695
   34loPI   PO4  532   1.391   1.790  10.189 -0.0165 -0.0800  0.2606
   34loPI   GL1  533   1.546   1.643   9.896 -0.1245 -0.0850  0.0838
   34loPI   GL2  534   1.679   1.904   9.820  0.0233  0.1372  0.2737
   34loPI   C1A  535   1.311   1.733   9.491 -0.0895 -0.1348  0.1139
   34loPI   C2A  536   1.215   1.618   9.164 -0.1117  0.2364 -0.1296
   34loPI   C3A  537   0.993   1.819   8.706 -0.0310 -0.2356 -0.6193
   34loPI   C4A  538   0.745   1.710   8.388  0.1631 -0.0119  0.3143
   34loPI   C5A  539   0.655   1.425   8.024 -0.2483 -0.3805 -0.0829
   34loPI   C6A  540   0.671   1.426   7.574 -0.1845 -0.1063  0.2896
   34loPI   C1B  541   1.810   1.911   9.378  0.1583 -0.0402  0.0097
   34loPI   C2B  542   2.183   1.921   9.101 -0.0060  0.1228 -0.2816
   34loPI   C3B  543   2.224   1.947   8.600  0.0246  0.0703  0.1785
   34loPI   C4B  544   2.188   2.125   8.118  0.0919  0.1364  0.0838
   35loPI    C1  545   5.211   6.218  11.108  0.2037  0.1558  0.1903
   35loPI    C2  546   4.833   6.255  11.234  0.1658 -0.0478  0.1391
   35loPI    C3  547   5.075   6.573  11.235 -0.0751  0.1406 -0.0545
   35loPI   PO4  548   5.270   6.077  10.849  0.0710  0.0142 -0.0825
   35loPI   GL1  549   5.189   6.056  10.445  0.0475 -0.2282  0.0260
   35loPI   GL2  550   5.137   6.389  10.266  0.0877 -0.1028 -0.1786
   35loPI   C1A  551   5.179   5.857  10.036 -0.1293 -0.0123 -0.0547
   35loPI   C2A  552   5.259   5.828   9.636  0.0495 -0.3126 -0.0267
   35loPI   C3A  553   5.303   5.892   9.216 -0.0173 -0.0556  0.0298
   35loPI   C4A  554   5.240   5.838   8.776 -0.2781  0.1792  0.3449
   35loPI   C5A  555   5.309   5.850   8.311  0.0192 -0.3105 -0.1522
   35loPI   C6A  556   5.342   5.769   7.972 -0.0136 -0.2072  0.0766
   35loPI   C1B  557   5.011   6.304   9.835 -0.1970 -0.2537  0.1663
   35loPI   C2B  558   5.067   6.248   9.400 -0.0487 -0.1002 -0.0133
   35loPI   C3B  559   4.998   6.236   8.889 -0.1403 -0.0589 -0.0761
   35loPI   C4B  560   4.925   6.109   8.472  0.0758  0.1413 -0.0372
   36loPI    C1  561  14.454  16.193  10.436 -0.0507 -0.0305  0.1178
   36loPI    C2  562  14.627  16.272  10.788 -0.0608 -0.0661  0.1309
   36loPI    C3  563  14.665  15.910  10.624  0.0073 -0.0266  0.0584
   36loPI   PO4  564  14.403  16.470  10.387 -0.4134  0.2514  0.3043
   36loPI   GL1  565  14.226  16.525   9.958 -0.0871  0.1979 -0.2182
   36loPI   GL2  566  14.540  16.528   9.915  0.0825 -0.0456  0.3582
   36loPI   C1A  567  14.267  16.511   9.487  0.1224 -0.1910  0.3454
   36loPI   C2A  568  14.225  16.347   9.087  0.1246  0.1247  0.1586
   36loPI   C3A  569  14.316  16.368   8.598 -0.2290  0.0501 -0.1698
   36loPI   C4A  570  14.351  16.423   8.116  0.1108  0.0362 -0.1592
   36loPI   C5A  571  14.581  16.434   7.744  0.1170 -0.2893 -0.0030
   36loPI   C6A  572  14.939  16.162   7.654  0.2511 -0.0105 -0.1135
   36loPI   C1B  573  14.829  16.623   9.569 -0.0272 -0.0353  0.1107
   36loPI   C2B  574  15.052  16.806   9.227 -0.1040 -0.0647 -0.2284
   36loPI   C3B  575  15.225  16.521   8.937 -0.3456  0.0039 -0.1674
   36loPI   C4B  576  15.248  16.396   8.500  0.1338  0.0447  0.0173
   37loPI    C1  577  12.313   2.390  10.718 -0.1046  0.1098 -0.0364
   37loPI    C2  578  12.104   2.160  10.969  0.1888 -0.0406  0.0737
   37loPI    C3  579  12.080   2.558  10.996 -0.2579 -0.0535 -0.0647
   37loPI   PO4  580  12.191   2.398  10.432 -0.2902  0.0452 -0.1504
   37loPI   GL1  581  12.228   2.333  10.029  0.1026  0.1020 -0.3577
   37loPI   GL2  582  12.450   2.078  10.104 -0.1622 -0.1305 -0.1563
   37loPI   C1A  583  12.186   2.290   9.614 -0.0350  0.1103  0.0297
   37loPI   C2A  584  12.152   2.369   9.224  0.0478 -0.2655  0.2096
   37loPI   C3A  585  12.205   2.466   8.838  0.0613 -0.0802 -0.1027
   37loPI   C4A  586  12.127   2.645   8.415 -0.3819 -0.1211 -0.0381
   37loPI   C5A  587  11.981   2.970   8.116 -0.3031  0.0090 -0.1613
   37loPI   C6A  588  12.054   3.381   7.988  0.1304 -0.1617  0.2000
   37loPI   C1B  589  12.670   2.276   9.871 -0.2281  0.1921  0.3149
   37loPI   C2B  590  12.691   2.221   9.404  0.1213  0.3973 -0.0591
   37loPI   C3B  591  12.676   2.333   9.026 -0.3296  0.1770  0.1382
   37loPI   C4B  592  12.631   2.464   8.535 -0.2987  0.0704  0.0506
   38loPI    C1  593  11.900  11.903  11.237  0.0642  0.0572 -0.0023
   38loPI    C2  594  12.172  12.044  11.494 -0.1067  0.0554  0.1823
   38loPI    C3  595  11.782  12.073  11.579 -0.1688  0.1234 -0.1133
   38loPI   PO4  596  11.895  12.032  11.071  0.0454 -0.2971  0.0480
   38loPI   GL1  597  11.862  11.969  10.614 -0.1199 -0.0961 -0.3145
   38loPI   GL2  598  11.538  11.857  10.417 -0.3971 -0.0333  0.0541
   38loPI   C1A  599  11.970  12.034  10.250 -0.0319  0.0849 -0.1905
   38loPI   C2A  600  11.922  11.979   9.791  0.0281 -0.0044 -0.1035
   38loPI   C3A  601  11.889  11.946   9.327 -0.2188 -0.1289 -0.0145
   38loPI   C4A  602  11.906  11.996   8.909  0.0805 -0.0864  0.1486
   38loPI   C5A  603  11.912  11.894   8.520  0.1623 -0.1394 -0.0763
   38loPI   C6A  604  11.792  11.798   8.167  0.0363  0.0259  0.1123
   38loPI   C1B  605  11.413  11.921  10.014  0.1578  0.3419 -0.0580
   38loPI   C2B  606  11.435  11.890   9.537  0.3826 -0.0590 -0.0969
   38loPI   C3B  607  11.348  11.979   9.067 -0.1297  0.1174 -0.1447
   38loPI   C4B  608  11.399  11.987   8.607  0.0087 -0.2373 -0.0303
   39loPI    C1  609  13.963   0.349  10.721 -0.0517 -0.1474  0.0664
   39loPI    C2  610  13.899   0.006  10.526 -0.1819 -0.1095  0.0411
   39loPI    C3  611  14.007  -0.000  10.911  0.0944 -0.1849 -0.0352
   39loPI   PO4  612  14.126   0.508  10.537 -0.2423 -0.0554  0.2692
   39loPI   GL1  613  14.285   0.533  10.117  0.2032  0.1107 -0.4286
   39loPI   GL2  614  14.021   0.324  10.084 -0.0350  0.0292 -0.1462
   39loPI   C1A  615  14.204   0.873   9.884  0.0795 -0.2541  0.2327
   39loPI   C2A  616  14.014   0.955   9.452 -0.0147  0.2663  0.1987
   39loPI   C3A  617  13.917   0.822   9.022  0.1484 -0.0800 -0.0301
   39loPI   C4A  618  13.845   0.602   8.671  0.4192 -0.1846  0.1291
   39loPI   C5A  619  14.148   0.393   8.394  0.0607  0.0660 -0.0397
   39loPI   C6A  620  14.546   0.455   8.390 -0.0394 -0.0462  0.1194
   39loPI   C1B  621  14.071   0.410   9.649 -0.3825  0.1807 -0.0418
   39loPI   C2B  622  13.973   0.290   9.146  0.0107  0.1032 -0.2241
   39loPI   C3B  623  13.994   0.084   8.714 -0.0305 -0.0991  0.0030
   39loPI   C4B  624  13.864  -0.144   8.285  0.0265  0.2630 -0.0855
   40loPI    C1  625   0.459   1.352  10.434  0.1163 -0.0167 -0.0068
   40loPI    C2  626   0.346   1.534  10.772  0.0750 -0.0919  0.0203
   40loPI    C3  627   0.380   1.744  10.433  0.0689 -0.0259  0.0604
   40loPI   PO4  628   0.291   1.124  10.350  0.0876 -0.0603 -0.1930
   40loPI   GL1  629   0.187   0.828  10.039  0.1207  0.1749  0.1545
   40loPI   GL2  630  -0.212   0.838   9.948 -0.2592  0.2098 -0.3811
   40loPI   C1A  631   0.416   0.792   9.600  0.1514 -0.0264 -0.1182
   40loPI   C2A  632   0.577   0.862   9.165  0.1817 -0.2279 -0.2426
   40loPI   C3A  633   0.653   0.887   8.834  0.0951  0.2199  0.0740
   40loPI   C4A  634   0.638   0.902   8.404  0.1839  0.0469 -0.0509
   40loPI   C5A  635   0.372   1.038   8.030  0.0918  0.0022  0.0813
   40loPI   C6A  636   0.416   0.926   7.629 -0.0013 -0.0611 -0.0110
   40loPI   C1B  637  -0.285   1.119   9.640 -0.3410 -0.2372  0.0801
   40loPI   C2B  638  -0.456   1.271   9.267 -0.3159  0.0296 -0.2402
   40loPI   C3B  639  -0.656   1.165   8.917 -0.3329  0.0769  0.1371
   40loPI   C4B  640  -0.518   1.171   8.479 -0.2515 -0.2037 -0.0014
   41loPI    C1  641   5.949  15.735  10.463  0.1304  0.1578  0.2012
   41loPI    C2  642   5.930  16.114  10.590 -0.1808  0.2130  0.0005
   41loPI    C3  643   5.652  15.850  10.705 -0.0564  0.0853  0.0105
   41loPI   PO4  644   5.987  15.782  10.210  0.0389  0.1136  0.2572
   41loPI   GL1  645   5.959  15.901   9.823  0.1939  0.3325  0.2135
   41loPI   GL2  646   5.608  15.998   9.846  0.2475  0.1867 -0.0046
   41loPI   C1A  647   6.009  15.793   9.384  0.2240  0.0269 -0.3850
   41loPI   C2A  648   6.018  15.652   8.957  0.2265 -0.2454 -0.2148
   41loPI   C3A  649   6.115  15.703   8.532 -0.2065  0.0952  0.1094
   41loPI   C4A  650   6.426  15.949   8.320 -0.2591 -0.1167 -0.3182
   41loPI   C5A  651   6.569  16.170   7.934 -0.0244  0.0504  0.2362
   41loPI   C6A  652   6.791  15.909   7.503 -0.0936 -0.2159 -0.1002
   41loPI   C1B  653   5.485  15.932   9.440  0.0285 -0.0962  0.2482
   41loPI   C2B  654   5.547  15.874   9.036  0.0515  0.1135 -0.5298
   41loPI   C3B  655   5.667  15.864   8.581  0.2896 -0.0178  0.1634
   41loPI   C4B  656   5.754  15.613   8.152 -0.0353  0.2294 -0.2366
   42loPI    C1  657   2.849  12.569  10.879 -0.1094  0.0016  0.1766
   42loPI    C2  658   3.099  12.617  11.188 -0.0915  0.0820  0.1498
   42loPI    C3  659   2.718  12.735  11.219 -0.0886  0.0937  0.1400
   42loPI   PO4  660   3.058  12.538  10.633  0.1767 -0.0692  0.0417
   42loPI   GL1  661   3.186  12.558  10.275  0.0886  0.2232 -0.0606
   42loPI   GL2  662   3.469  12.734  10.106 -0.1678 -0.1628 -0.0859
   42loPI   C1A  663   2.988  12.792   9.949 -0.2825 -0.0582  0.3249
   42loPI   C2A  664   2.931  12.962   9.543  0.1599  0.0043  0.1373
   42loPI   C3A  665   2.555  13.063   9.263  0.0632 -0.2375 -0.1529
   42loPI   C4A  666   2.444  13.128   8.806  0.0843  0.1776  0.0552
   42loPI   C5A  667   2.225  12.968   8.432 -0.0557  0.0358 -0.1260
   42loPI   C6A  668   2.543  12.811   8.112  0.2546  0.0899  0.1630
   42loPI   C1B  669   3.490  12.847   9.721 -0.1583  0.0381 -0.1465
   42loPI   C2B  670   3.606  12.796   9.371 -0.2932  0.2933 -0.3058
   42loPI   C3B  671   3.736  12.892   8.977 -0.3386 -0.0071 -0.1661
   42loPI   C4B  672   3.630  12.878   8.567 -0.1123 -0.0663 -0.1254
   43loPI    C1  673   9.136   7.408  10.883  0.0685 -0.2083 -0.0648
   43loPI    C2  674   8.870   7.513  11.163  0.0309  0.0004 -0.1765
   43loPI    C3  675   8.961   7.127  11.108 -0.0674 -0.0531  0.0255
   43loPI   PO4  676   9.141   7.519  10.698  0.0494 -0.2212 -0.0693
   43loPI   GL1  677   9.393   7.717  10.541 -0.2050 -0.2440 -0.0513
   43loPI   GL2  678   9.272   8.018  10.416  0.0478 -0.2373  0.0308
   43loPI   C1A  679   9.499   7.599  10.110  0.1498 -0.0246  0.0670
   43loPI   C2A  680   9.667   7.500   9.739  0.0695 -0.2417 -0.0143
   43loPI   C3A  681   9.653   7.629   9.335  0.1948  0.1508 -0.1870
   43loPI   C4A  682   9.522   7.513   8.887  0.1303 -0.1992 -0.0630
   43loPI   C5A  683   9.514   7.511   8.450  0.3328 -0.0312 -0.0555
   43loPI   C6A  684   9.629   7.983   8.309 -0.1377 -0.0930 -0.0844
   43loPI   C1B  685   9.608   8.075  10.234  0.2894 -0.1482 -0.2705
   43loPI   C2B  686   9.760   8.063   9.785 -0.0492  0.0993  0.2037
   43loPI   C3B  687   9.794   8.123   9.322 -0.0307 -0.1717  0.0844
   43loPI   C4B  688   9.832   8.089   8.864 -0.0959  0.0459  0.0510
   44loPI    C1  689  15.728   7.962  11.261 -0.1081  0.1694 -0.1710
   44loPI    C2  690  15.985   7.995  11.565  0.0830 -0.1560 -0.2918
   44loPI    C3  691  15.629   7.821  11.622  0.1144 -0.2071 -0.2513
   44loPI   PO4  692  15.582   8.250  11.173 -0.0594  0.1553  0.2709
   44loPI   GL1  693  15.718   8.375  10.786  0.1380  0.1864  0.1372
   44loPI   GL2  694  15.890   8.099  10.757 -0.0443  0.2615  0.4393
   44loPI   C1A  695  15.696   8.389  10.359  0.0166 -0.2161 -0.0565
   44loPI   C2A  696  15.689   8.392   9.922  0.0277 -0.0223  0.0130
   44loPI   C3A  697  15.434   8.403   9.529 -0.4179  0.3243  0.1239
   44loPI   C4A  698  15.358   8.386   9.107  0.1064  0.0241 -0.1071
   44loPI   C5A  699  15.303   8.598   8.783 -0.1031 -0.3543 -0.1090
   44loPI   C6A  700  15.228   8.635   8.352 -0.0773  0.2866  0.2073
   44loPI   C1B  701  16.168   8.255  10.387 -0.0136  0.0902 -0.1364
   44loPI   C2B  702  16.450   8.243  10.049 -0.1180 -0.1893 -0.1765
   44loPI   C3B  703  16.449   8.140   9.613 -0.0607 -0.0217 -0.1625
   44loPI   C4B  704  16.305   8.163   9.210 -0.1974  0.3530 -0.2555
   45loPI    C1  705  15.226   2.307  10.881  0.0676 -0.0918 -0.0238
   45loPI    C2  706  15.409   2.610  10.695 -0.1205 -0.0712 -0.1791
   45loPI    C3  707  15.614   2.377  10.948  0.1061 -0.0186 -0.3115
   45loPI   PO4  708  15.036   2.271  10.705 -0.2152  0.0497  0.4550
   45loPI   GL1  709  14.797   2.501  10.369  0.1636  0.2448  0.1859
   45loPI   GL2  710  14.538   2.547  10.234 -0.1193 -0.3016  0.1453
   45loPI   C1A  711  15.091   2.419  10.088  0.1305  0.0181  0.0758
   45loPI   C2A  712  14.967   2.288   9.706 -0.0624 -0.2776 -0.0649
   45loPI   C3A  713  15.067   2.074   9.281 -0.2922  0.0246  0.1683
   45loPI   C4A  714  14.783   1.875   9.028  0.4266 -0.0118  0.1495
   45loPI   C5A  715  14.664   1.839   8.537  0.2072  0.0831 -0.0680
   45loPI   C6A  716  14.781   1.657   8.099  0.0933  0.0916 -0.0287
   45loPI   C1B  717  14.502   2.452   9.830  0.1862 -0.2435 -0.0255
   45loPI   C2B  718  14.603   2.455   9.393  0.1074  0.0846 -0.1274
   45loPI   C3B  719  14.651   2.449   8.913 -0.0324  0.1068  0.0263
   45loPI   C4B  720  14.755   2.337   8.547 -0.1160 -0.1550  0.0311
   46loPI    C1  721  10.966  11.387  10.895 -0.0330  0.1924 -0.1419
   46loPI    C2  722  10.748  11.616  11.141  0.0715  0.2719 -0.1219
   46loPI    C3  723  11.132  11.544  11.224 -0.0684 -0.2674  0.1035
   46loPI   PO4  724  10.863  11.440  10.673 -0.1454 -0.1283 -0.1692
   46loPI   GL1  725  10.900  11.230  10.314  0.2361  0.2780 -0.1054
   46loPI   GL2  726  10.835  10.836  10.378  0.0456 -0.0950  0.0397
   46loPI   C1A  727  11.039  10.990  10.005 -0.1154 -0.2436 -0.1656
   46loPI   C2A  728  11.093  10.886   9.594  0.2779 -0.2371 -0.0290
   46loPI   C3A  729  11.074  10.906   9.081 -0.1742  0.2347  0.1025
   46loPI   C4A  730  11.057  11.059   8.697  0.2210  0.0381  0.1125
   46loPI   C5A  731  11.289  10.978   8.313 -0.3226 -0.1500 -0.0856
   46loPI   C6A  732  11.410  11.172   8.006 -0.1083 -0.1279 -0.1065
   46loPI   C1B  733  10.876  10.490  10.020  0.2675 -0.0482 -0.1014
   46loPI   C2B  734  10.876  10.424   9.571 -0.1505 -0.0509 -0.0869
   46loPI   C3B  735  10.899  10.458   9.163  0.1959 -0.1799 -0.0335
   46loPI   C4B  736  10.877  10.474   8.815  0.0058 -0.1241 -0.0660
   47loPI    C1  737   7.099  12.698  10.940  0.1681 -0.0580  0.1300
   47loPI    C2  738   6.917  13.004  11.122  0.0949 -0.0748  0.0852
   47loPI    C3  739   7.315  12.965  11.145  0.0750 -0.1408  0.3388
   47loPI   PO4  740   7.098  12.747  10.707  0.0440  0.0260  0.1040
   47loPI   GL1  741   7.204  13.022  10.274  0.2496  0.0399 -0.0201
   47loPI   GL2  742   7.231  13.302  10.125  0.4991  0.0783  0.1600
   47loPI   C1A  743   7.257  12.779   9.864  0.3777  0.3066  0.0669
   47loPI   C2A  744   7.287  12.633   9.396  0.1536 -0.0179 -0.1862
   47loPI   C3A  745   6.980  12.418   9.098 -0.0970 -0.0706  0.0118
   47loPI   C4A  746   6.933  12.513   8.726  0.2612 -0.0780  0.0289
   47loPI   C5A  747   6.929  12.789   8.413 -0.3053  0.0453  0.1744
   47loPI   C6A  748   7.178  13.117   8.119  0.0222  0.0361  0.1890
   47loPI   C1B  749   7.307  13.236   9.699 -0.2653  0.0672  0.0509
   47loPI   C2B  750   7.527  13.047   9.396  0.0783 -0.4129  0.1673
   47loPI   C3B  751   7.484  13.027   9.023 -0.0454 -0.2579 -0.0729
   47loPI   C4B  752   7.324  12.989   8.683 -0.0328  0.0457 -0.4328
   48loPI    C1  753   6.430   5.908  10.787 -0.1741 -0.2012  0.0780
   48loPI    C2  754   6.182   6.045  11.069 -0.0294  0.1549  0.0387
   48loPI    C3  755   6.572   6.006  11.147 -0.0228  0.0439 -0.0456
   48loPI   PO4  756   6.268   5.914  10.576 -0.3206 -0.0296 -0.1139
   48loPI   GL1  757   6.186   5.936  10.183 -0.1690 -0.0402 -0.0275
   48loPI   GL2  758   6.006   6.135  10.213  0.2116 -0.1665  0.3088
   48loPI   C1A  759   6.271   5.699   9.746 -0.0945  0.0311  0.3010
   48loPI   C2A  760   6.282   5.579   9.324  0.3372 -0.2252  0.1392
   48loPI   C3A  761   6.249   5.627   8.905 -0.1875 -0.0503  0.5172
   48loPI   C4A  762   6.438   5.831   8.599 -0.0012 -0.0454 -0.0998
   48loPI   C5A  763   6.621   5.821   8.340  0.0061  0.0352  0.0629
   48loPI   C6A  764   7.096   5.955   8.254 -0.0410 -0.1101  0.1238
   48loPI   C1B  765   6.045   6.168   9.782 -0.1346  0.0884 -0.0080
   48loPI   C2B  766   6.030   6.193   9.311  0.0345 -0.0460  0.0468
   48loPI   C3B  767   6.124   6.129   8.846  0.0882  0.2129 -0.2875
   48loPI   C4B  768   6.148   6.333   8.445 -0.0233 -0.0188 -0.2779
   49loPI    C1  769   4.966  11.294  11.063  0.0260  0.0341  0.0272
   49loPI    C2  770   5.295  11.521  11.064  0.2308 -0.2561 -0.0139
   49loPI    C3  771   5.317  11.138  11.176 -0.1225 -0.2415  0.1166
   49loPI   PO4  772   4.886  11.196  10.838  0.2536 -0.3293  0.1395
   49loPI   GL1  773   4.950  11.207  10.352  0.0729 -0.0561 -0.3388
   49loPI   GL2  774   4.653  11.297  10.269 -0.0980  0.1139 -0.3468
   49loPI   C1A  775   5.046  11.363   9.956 -0.1501  0.0870 -0.0038
   49loPI   C2A  776   5.073  11.400   9.524  0.4176  0.2810 -0.1072
   49loPI   C3A  777   5.130  11.454   9.075 -0.0472 -0.2207  0.0786
   49loPI   C4A  778   5.374  11.383   8.718  0.0280 -0.0512 -0.2315
   49loPI   C5A  779   5.502  11.271   8.336  0.3001 -0.4101  0.0915
   49loPI   C6A  780   5.838  11.347   8.105 -0.3540 -0.3224  0.0000
   49loPI   C1B  781   4.576  11.347   9.778 -0.0198 -0.1645 -0.1539
   49loPI   C2B  782   4.624  11.284   9.357 -0.1628  0.2457  0.0075
   49loPI   C3B  783   4.891  11.057   8.927  0.0471 -0.0841 -0.0652
   49loPI   C4B  784   4.987  11.222   8.470  0.0479  0.0612  0.1725
   50loPI    C1  785  15.062  13.772  10.588  0.1767 -0.1817 -0.3037
   50loPI    C2  786  14.879  13.533  10.852  0.1721 -0.0372 -0.1751
   50loPI    C3  787  15.163  13.787  10.975 -0.0892  0.2969 -0.2444
   50loPI   PO4  788  14.853  13.847  10.461 -0.0836 -0.0117  0.3143
   50loPI   GL1  789  14.744  13.813  10.009  0.0000 -0.3541  0.2652
   50loPI   GL2  790  14.509  13.797   9.772 -0.0368 -0.0148 -0.0008
   50loPI   C1A  791  14.990  13.722   9.558 -0.2745  0.2607 -0.1495
   50loPI   C2A  792  15.119  13.545   9.137  0.2314 -0.3956  0.0382
   50loPI   C3A  793  15.159  13.422   8.772  0.3426  0.3125 -0.2338
   50loPI   C4A  794  15.278  13.586   8.416  0.2778  0.2716 -0.0556
   50loPI   C5A  795  15.534  13.463   8.083 -0.1687 -0.3374 -0.0463
   50loPI   C6A  796  15.755  13.690   7.808 -0.1051  0.0575 -0.1916
   50loPI   C1B  797  14.416  13.631   9.332  0.1023 -0.0641  0.1154
   50loPI   C2B  798  14.392  13.659   8.935 -0.1400  0.2635  0.0829
   50loPI   C3B  799  14.442  13.664   8.487 -0.1927  0.2068 -0.0745
   50loPI   C4B  800  14.431  13.456   8.135  0.1344 -0.0209  0.1754
   51loPI    C1  801   2.009  17.890  10.095 -0.1657 -0.0248 -0.1740
   51loPI    C2  802   1.787  17.911  10.427 -0.1214  0.0917 -0.1511
   51loPI    C3  803   1.613  17.840  10.074 -0.1760  0.0285 -0.1118
   51loPI   PO4  804   2.234  17.770  10.225 -0.0545 -0.1179  0.3423
   51loPI   GL1  805   2.650  17.677  10.017 -0.1552  0.0854 -0.1985
   51loPI   GL2  806   2.961  17.524   9.850  0.4122 -0.1436 -0.0370
   51loPI   C1A  807   2.551  17.566   9.536  0.3384 -0.1593  0.0539
   51loPI   C2A  808   2.630  17.720   9.154 -0.1299 -0.2318  0.0918
   51loPI   C3A  809   2.818  17.570   8.792  0.1680 -0.0481  0.0282
   51loPI   C4A  810   2.903  17.271   8.586  0.3134  0.2186 -0.0687
   51loPI   C5A  811   3.157  17.140   8.331  0.1141  0.2399  0.0760
   51loPI   C6A  812   3.427  17.022   7.982  0.2727  0.1506  0.1785
   51loPI   C1B  813   3.076  17.759   9.498  0.1531  0.1048 -0.1159
   51loPI   C2B  814   3.035  18.106   9.246  0.0359  0.1158 -0.0199
   51loPI   C3B  815   2.978  18.040   8.852  0.1785  0.0546 -0.0237
   51loPI   C4B  816   2.973  17.983   8.379 -0.3685  0.1021 -0.1102
   52loPI    C1  817   0.403  10.516  10.890 -0.0477  0.0294 -0.0571
   52loPI    C2  818   0.492  10.868  11.059 -0.0197  0.0207 -0.0538
   52loPI    C3  819   0.785  10.612  10.965 -0.0467 -0.0412  0.0297
   52loPI   PO4  820   0.262  10.499  10.678  0.0693 -0.1609  0.0236
   52loPI   GL1  821   0.321  10.302  10.268 -0.0010 -0.1186 -0.0118
   52loPI   GL2  822   0.625  10.354  10.100 -0.0594 -0.1545  0.0888
   52loPI   C1A  823   0.060  10.643   9.974  0.1672  0.0619  0.1164
   52loPI   C2A  824  -0.041  10.543   9.596 -0.1969 -0.2684  0.2584
   52loPI   C3A  825  -0.251  10.533   9.253 -0.0739  0.2465  0.0327
   52loPI   C4A  826  -0.396  10.684   8.923 -0.4125  0.3140  0.3248
   52loPI   C5A  827  -0.274  10.814   8.484 -0.2129 -0.4345  0.1809
   52loPI   C6A  828  -0.351  11.258   8.299 -0.1820  0.2152  0.2764
   52loPI   C1B  829   0.381  10.201   9.766  0.3047  0.2716 -0.0569
   52loPI   C2B  830   0.301  10.196   9.293  0.1141 -0.2812 -0.1927
   52loPI   C3B  831   0.365   9.755   9.060  0.4098  0.0827  0.0485
   52loPI   C4B  832   0.375   9.388   9.134  0.2416  0.1404  0.1636
   53loPI    C1  833   2.309   2.420  10.738 -0.2242 -0.1912  0.2727
   53loPI    C2  834   2.089   2.512  10.417  0.2665 -0.0308 -0.0285
   53loPI    C3  835   2.142   2.782  10.707 -0.0597 -0.1267  0.1256
   53loPI   PO4  836   2.528   2.231  10.543  0.2251  0.0197  0.3126
   53loPI   GL1  837   2.668   2.275  10.172  0.2350 -0.2040  0.1126
   53loPI   GL2  838   2.934   2.421  10.319  0.2600  0.0398 -0.0726
   53loPI   C1A  839   2.464   2.226   9.698 -0.2012  0.0679  0.0651
   53loPI   C2A  840   2.444   2.320   9.278 -0.0485 -0.1644 -0.0360
   53loPI   C3A  841   2.474   2.321   8.868  0.1141  0.0754  0.3222
   53loPI   C4A  842   2.491   2.334   8.467  0.0389 -0.2678 -0.4323
   53loPI   C5A  843   2.449   2.611   8.078 -0.1783  0.0541 -0.2158
   53loPI   C6A  844   2.381   2.427   7.722 -0.1017  0.1804  0.3242
   53loPI   C1B  845   3.224   2.601  10.040  0.0206 -0.1686  0.1110
   53loPI   C2B  846   3.186   2.687   9.616 -0.3584 -0.0066  0.2547
   53loPI   C3B  847   3.385   2.784   9.310  0.1248 -0.1555 -0.3445
   53loPI   C4B  848   3.286   2.867   8.979  0.2776  0.0008 -0.0572
   54loPI    C1  849  11.442   8.729  11.254 -0.1354 -0.0082  0.1421
   54loPI    C2  850  11.707   8.675  10.960 -0.1756 -0.1636  0.1334
   54loPI    C3  851  11.831   8.690  11.340 -0.1210  0.0592  0.1084
   54loPI   PO4  852  11.207   8.797  11.082 -0.2165 -0.0419 -0.0949
   54loPI   GL1  853  11.270   8.846  10.743  0.2247 -0.2562  0.1275
   54loPI   GL2  854  11.134   8.532  10.598 -0.0152 -0.1533 -0.0877
   54loPI   C1A  855  11.550   8.672  10.382  0.2120  0.0672  0.0299
   54loPI   C2A  856  11.583   8.743  10.043 -0.2517 -0.0406  0.0491
   54loPI   C3A  857  11.545   8.718   9.613  0.0402  0.0117 -0.0966
   54loPI   C4A  858  11.577   8.868   9.194  0.0862 -0.0042  0.0949
   54loPI   C5A  859  11.491   8.801   8.789 -0.0869 -0.0033  0.2806
   54loPI   C6A  860  11.534   8.858   8.317  0.0056 -0.1152 -0.0826
   54loPI   C1B  861  11.377   8.286  10.109  0.3681 -0.3231 -0.0552
   54loPI   C2B  862  11.374   8.247   9.752 -0.2172 -0.0130  0.0916
   54loPI   C3B  863  11.240   8.268   9.322  0.0348  0.4019  0.0017
   54loPI   C4B  864  11.416   8.257   8.952 -0.2092 -0.0375  0.1931
   55loPI    C1  865   4.334   5.515  10.934  0.3772  0.2279  0.1013
   55loPI    C2  866   4.160   5.261  11.190  0.1196  0.3086  0.0093
   55loPI    C3  867   4.472   5.141  10.970 -0.0451  0.0475 -0.0870
   55loPI   PO4  868   4.070   5.556  10.774  0.2047  0.2402  0.0123
   55loPI   GL1  869   3.996   5.731  10.443 -0.1607 -0.0168  0.0589
   55loPI   GL2  870   4.357   5.743  10.479 -0.2085  0.1912 -0.0123
   55loPI   C1A  871   4.103   5.958  10.144 -0.1584 -0.1975  0.4119
   55loPI   C2A  872   4.233   5.902   9.797  0.0681 -0.0003  0.1704
   55loPI   C3A  873   4.293   5.856   9.409  0.1865  0.1709  0.1934
   55loPI   C4A  874   4.177   5.916   9.015  0.0323  0.1641 -0.1194
   55loPI   C5A  875   4.245   5.898   8.636 -0.2558  0.3202 -0.0528
   55loPI   C6A  876   4.179   6.060   8.247  0.1152  0.1747 -0.3078
   55loPI   C1B  877   4.700   5.833  10.199 -0.0791 -0.1615  0.1086
   55loPI   C2B  878   4.754   5.931   9.712  0.1759 -0.3088  0.0186
   55loPI   C3B  879   4.768   5.855   9.287  0.2561 -0.1322  0.2889
   55loPI   C4B  880   4.730   5.832   8.843  0.1459 -0.0768  0.2317
   56loPI    C1  881  17.959  14.983  10.915  0.0070 -0.0533 -0.0337
   56loPI    C2  882  17.781  15.254  11.148 -0.1478 -0.0824 -0.1168
   56loPI    C3  883  17.846  14.884  11.285  0.2691  0.0566  0.0788
   56loPI   PO4  884  17.844  15.122  10.555 -0.2513  0.1987 -0.1414
   56loPI   GL1  885  17.624  14.963  10.146  0.0624  0.1045  0.2353
   56loPI   GL2  886  17.372  14.728  10.106 -0.4161 -0.0532  0.3279
   56loPI   C1A  887  17.715  15.101   9.788 -0.0653  0.3465 -0.0279
   56loPI   C2A  888  17.717  15.037   9.358  0.5107 -0.3990  0.0951
   56loPI   C3A  889  17.699  15.003   8.989  0.1401  0.2196 -0.2719
   56loPI   C4A  890  17.544  14.818   8.745  0.0455 -0.0553 -0.2237
   56loPI   C5A  891  17.493  14.732   8.287  0.0612  0.4806  0.2139
   56loPI   C6A  892  17.305  14.467   7.956  0.1303  0.0335 -0.0522
   56loPI   C1B  893  17.377  14.781   9.611  0.2390  0.0453 -0.1039
   56loPI   C2B  894  17.430  14.650   9.192 -0.0142 -0.3172 -0.1614
   56loPI   C3B  895  17.812  14.438   9.026  0.0691 -0.3626  0.3412
   56loPI   C4B  896  17.889  14.332   8.545 -0.1598  0.0497  0.2450
   57loPI    C1  897  17.541  11.479  10.815  0.0201 -0.2522  0.0038
   57loPI    C2  898  17.188  11.431  10.997 -0.0274  0.1079  0.0119
   57loPI    C3  899  17.510  11.542  11.208  0.1034 -0.2586  0.0117
   57loPI   PO4  900  17.572  11.601  10.589 -0.2643 -0.0870  0.1016
   57loPI   GL1  901  17.629  11.592  10.083  0.1042  0.0018  0.0691
   57loPI   GL2  902  17.398  11.865  10.217  0.1691 -0.1697  0.0764
   57loPI   C1A  903  17.907  11.702   9.769 -0.0445 -0.2105  0.0376
   57loPI   C2A  904  17.732  11.697   9.337 -0.3479  0.0349 -0.1809
   57loPI   C3A  905  17.926  11.712   8.874  0.1452  0.0459 -0.2191
   57loPI   C4A  906  17.846  11.967   8.498  0.0222 -0.3223 -0.0346
   57loPI   C5A  907  18.049  12.070   8.119  0.2974 -0.1344  0.1012
   57loPI   C6A  908  17.938  11.988   7.789  0.0782  0.3443  0.1228
   57loPI   C1B  909  17.098  11.664   9.849  0.5026  0.2566 -0.1448
   57loPI   C2B  910  16.857  11.611   9.506  0.2661 -0.0258 -0.1821
   57loPI   C3B  911  16.911  11.559   9.080  0.0153  0.1428 -0.0452
   57loPI   C4B  912  16.947  11.493   8.678 -0.1252  0.1699  0.2052
   58loPI    C1  913   8.443  11.430  10.895 -0.1737 -0.1834 -0.0982
   58loPI    C2  914   8.104  11.242  10.796 -0.2519 -0.1966  0.1872
   58loPI    C3  915   8.150  11.391  11.164 -0.0720  0.0838  0.0547
   58loPI   PO4  916   8.520  11.598  10.735  0.0517 -0.2399  0.1841
   58loPI   GL1  917   8.773  11.745  10.330  0.0529 -0.1173  0.0437
   58loPI   GL2  918   8.726  12.037  10.401 -0.0418 -0.1654  0.0974
   58loPI   C1A  919   8.756  11.814   9.858  0.0294  0.0990 -0.1203
   58loPI   C2A  920   8.829  11.787   9.405  0.2041  0.1203 -0.1570
   58loPI   C3A  921   8.901  11.967   8.991  0.0198 -0.0254 -0.2058
   58loPI   C4A  922   9.039  11.791   8.661  0.0127 -0.0321  0.0598
   58loPI   C5A  923   8.960  11.864   8.229 -0.0066  0.1410  0.0013
   58loPI   C6A  924   8.991  11.881   7.869  0.0963 -0.0697 -0.1702
   58loPI   C1B  925   8.266  11.978  10.284 -0.1035  0.0937 -0.0283
   58loPI   C2B  926   8.263  11.874   9.854  0.2217 -0.0119 -0.3094
   58loPI   C3B  927   8.318  11.784   9.444  0.1430  0.0228 -0.1935
   58loPI   C4B  928   8.493  11.721   9.028  0.0092  0.0270 -0.2502
   59loPI    C1  929  13.592   9.865  10.946  0.1872  0.2002 -0.0067
   59loPI    C2  930  13.375   9.777  11.270 -0.0451  0.0125 -0.2096
   59loPI    C3  931  13.691  10.020  11.301 -0.0215 -0.0610  0.1691
   59loPI   PO4  932  13.432   9.991  10.786  0.0523 -0.0139  0.2751
   59loPI   GL1  933  13.516  10.224  10.459 -0.3474  0.1640 -0.2233
   59loPI   GL2  934  13.606   9.860  10.332 -0.2337 -0.1687  0.0052
   59loPI   C1A  935  13.617  10.445  10.005 -0.0113  0.1140 -0.1054
   59loPI   C2A  936  13.715  10.403   9.652  0.0907 -0.1870 -0.1178
   59loPI   C3A  937  13.728  10.249   9.199  0.1472 -0.2997 -0.1283
   59loPI   C4A  938  13.811  10.269   8.736 -0.1511 -0.1295 -0.3690
   59loPI   C5A  939  13.901  10.387   8.363  0.2240 -0.1017 -0.3124
   59loPI   C6A  940  14.168  10.665   8.195  0.0851  0.0750  0.2207
   59loPI   C1B  941  13.437   9.967   9.929  0.0432 -0.0471 -0.2260
   59loPI   C2B  942  13.568   9.904   9.465 -0.0308  0.0402 -0.0231
   59loPI   C3B  943  13.405   9.939   8.940  0.1773  0.2779 -0.0778
   59loPI   C4B  944  13.483   9.927   8.492  0.0259 -0.1318  0.0433
   60loPI    C1  945  14.489  12.029  11.043 -0.2342 -0.1730  0.0247
   60loPI    C2  946  14.179  11.946  11.281 -0.1635 -0.1514  0.1251
   60loPI    C3  947  14.485  12.162  11.420 -0.1497 -0.0867 -0.0046
   60loPI   PO4  948  14.528  12.173  10.893  0.3250 -0.1180  0.2300
   60loPI   GL1  949  14.416  12.171  10.523 -0.0776  0.2224 -0.0555
   60loPI   GL2  950  14.460  12.412  10.377  0.2117  0.1533  0.1223
   60loPI   C1A  951  14.287  11.960  10.230 -0.1856  0.1388 -0.2756
   60loPI   C2A  952  14.390  11.915   9.850 -0.1847  0.1613 -0.0374
   60loPI   C3A  953  14.291  11.879   9.364 -0.0327  0.2563 -0.2513
   60loPI   C4A  954  14.361  11.917   8.960  0.0743  0.2241 -0.3733
   60loPI   C5A  955  14.598  11.921   8.516 -0.0854  0.2511 -0.1800
   60loPI   C6A  956  14.600  11.723   8.096 -0.2190  0.1937  0.0138
   60loPI   C1B  957  14.433  12.464   9.948  0.0646  0.3277 -0.0105
   60loPI   C2B  958  14.397  12.352   9.475 -0.2287 -0.2242 -0.1416
   60loPI   C3B  959  14.467  12.371   9.070 -0.2258 -0.0675 -0.2485
   60loPI   C4B  960  14.526  12.356   8.693  0.0125 -0.1946 -0.1316
   61loPI    C1  961  10.569   9.384  11.028  0.0638 -0.0138 -0.0854
   61loPI    C2  962  10.788   9.121  11.236 -0.0411 -0.1521 -0.1476
   61loPI    C3  963  10.775   9.505  11.348 -0.0331 -0.2096  0.0533
   61loPI   PO4  964  10.677   9.347  10.819 -0.0421  0.0150 -0.2025
   61loPI   GL1  965  10.786   9.061  10.650  0.0025 -0.1660  0.1259
   61loPI   GL2  966  11.078   9.215  10.407 -0.1051 -0.0737 -0.1075
   61loPI   C1A  967  10.666   9.113  10.169 -0.1962  0.5794 -0.0672
   61loPI   C2A  968  10.747   9.008   9.726  0.3287  0.0912  0.1166
   61loPI   C3A  969  10.799   9.108   9.261  0.2089 -0.2578  0.0810
   61loPI   C4A  970  10.839   8.997   8.805  0.1320 -0.3107 -0.2479
   61loPI   C5A  971  10.954   8.816   8.454 -0.0994  0.0504 -0.0533
   61loPI   C6A  972  11.132   8.585   8.059  0.1790  0.0474  0.2498
   61loPI   C1B  973  11.162   9.145  10.001 -0.3106  0.1077 -0.0537
   61loPI   C2B  974  11.244   9.159   9.591  0.0869 -0.0601 -0.0961
   61loPI   C3B  975  11.245   9.238   9.116  0.0240 -0.0033  0.2657
   61loPI   C4B  976  11.262   9.205   8.633 -0.1210 -0.1418  0.0268
   62loPI    C1  977   7.392  11.023  10.661 -0.0841  0.1747  0.1527
   62loPI    C2  978   7.243  11.093  11.025 -0.0349 -0.0870  0.2259
   62loPI    C3  979   7.122  10.773  10.819  0.0553 -0.0261  0.0773
   62loPI   PO4  980   7.641  11.039  10.686  0.4280  0.2330 -0.0782
   62loPI   GL1  981   7.807  11.260  10.392  0.3395 -0.0965 -0.1867
   62loPI   GL2  982   7.658  11.007  10.178 -0.0070  0.2178  0.1457
   62loPI   C1A  983   7.959  11.564  10.033 -0.1349 -0.0215  0.0625
   62loPI   C2A  984   8.033  11.402   9.707 -0.0650  0.2090  0.0687
   62loPI   C3A  985   8.115  11.320   9.245 -0.2507  0.1035  0.0094
   62loPI   C4A  986   8.350  11.251   8.829  0.1175  0.0321 -0.1244
   62loPI   C5A  987   8.569  11.321   8.410  0.0493 -0.3708 -0.3165
   62loPI   C6A  988   8.961  11.313   8.289 -0.0363  0.0720 -0.1098
   62loPI   C1B  989   7.698  10.948   9.772 -0.0644  0.1192 -0.1030
   62loPI   C2B  990   7.798  10.960   9.344 -0.1477  0.0399 -0.2464
   62loPI   C3B  991   7.826  11.123   8.902 -0.1902  0.0271 -0.2728
   62loPI   C4B  992   7.942  11.248   8.492  0.1274 -0.3418 -0.0632
   63loPI    C1  993  10.826   0.462  10.758 -0.0634  0.0491 -0.0288
   63loPI    C2  994  10.742   0.825  10.903 -0.1048  0.0279  0.0004
   63loPI    C3  995  11.113   0.679  10.933 -0.0799  0.0820 -0.0424
   63loPI   PO4  996  10.730   0.501  10.540 -0.1470 -0.0733  0.0085
   63loPI   GL1  997  10.936   0.459  10.040  0.1478  0.0200 -0.0365
   63loPI   GL2  998  10.605   0.478   9.852  0.1228  0.0154 -0.0563
   63loPI   C1A  999  11.101   0.620   9.815  0.4202  0.0925  0.0669
   63loPI   C2A 1000  11.303   0.417   9.399  0.0604  0.0632 -0.0773
   63loPI   C3A 1001  11.123   0.360   9.038  0.2006  0.1528  0.0548
   63loPI   C4A 1002  11.127   0.329   8.596  0.0122 -0.0885 -0.0219
   63loPI   C5A 1003  10.907   0.367   8.146  0.0071 -0.1981 -0.2158
   63loPI   C6A 1004  10.630   0.125   7.797  0.0202 -0.2896 -0.2694
   63loPI   C1B 1005  10.867   0.181   9.618  0.1041 -0.0930 -0.0018
   63loPI   C2B 1006  11.022  -0.242   9.693  0.0595  0.1679 -0.1699
   63loPI   C3B 1007  11.197  -0.585   9.635 -0.0507 -0.0068  0.1183
   63loPI   C4B 1008  11.436  -0.846   9.423  0.0559 -0.2154 -0.0350
   64loPI    C1 1009  10.505  16.282  10.501 -0.1116 -0.0408  0.0502
   64loPI    C2 1010  10.730  16.388  10.814 -0.2424  0.0558  0.1126
   64loPI    C3 1011  10.344  16.300  10.867 -0.2121 -0.1429  0.0115
   64loPI   PO4 1012  10.548  16.336  10.281  0.3690  0.0807  0.1778
   64loPI   GL1 1013  10.292  16.244   9.899  0.1138 -0.1468  0.1652
   64loPI   GL2 1014  10.517  16.100   9.728 -0.0641 -0.1737 -0.0754
   64loPI   C1A 1015  10.103  15.851   9.674  0.0501  0.2581  0.1724
   64loPI   C2A 1016  10.121  15.666   9.323  0.1688 -0.4762  0.2219
   64loPI   C3A 1017  10.200  15.511   8.944 -0.1763 -0.2771  0.4443
   64loPI   C4A 1018  10.308  15.282   8.563  0.0010  0.1439 -0.0938
   64loPI   C5A 1019  10.358  15.323   8.127  0.2552  0.0182 -0.0826
   64loPI   C6A 1020  10.394  15.012   7.796 -0.0526 -0.2968  0.1243
   64loPI   C1B 1021  10.583  15.874   9.187  0.4825 -0.0029  0.1478
   64loPI   C2B 1022  10.690  15.564   8.905  0.0988  0.0248 -0.1879
   64loPI   C3B 1023  10.780  15.275   8.462 -0.0562  0.0428 -0.2392
   64loPI   C4B 1024  10.605  14.910   8.279  0.0651  0.0207 -0.0519
   65loPI    C1 1025   3.942  11.561  11.218 -0.2936  0.0116 -0.0739
   65loPI    C2 1026   3.994  11.811  11.526 -0.0132 -0.0100 -0.1006
   65loPI    C3 1027   3.891  11.430  11.592 -0.0476  0.0100 -0.0387
   65loPI   PO4 1028   4.046  11.671  10.950  0.0742 -0.0509  0.0571
   65loPI   GL1 1029   3.985  11.657  10.442 -0.0860  0.0840  0.1857
   65loPI   GL2 1030   3.878  11.905  10.214 -0.0210 -0.2264 -0.3938
   65loPI   C1A 1031   4.143  11.300  10.251 -0.2312 -0.5420 -0.0482
   65loPI   C2A 1032   4.280  10.961   9.971  0.0323 -0.1178 -0.0301
   65loPI   C3A 1033   4.385  10.768   9.632  0.0592 -0.0726 -0.0976
   65loPI   C4A 1034   4.367  10.496   9.311  0.0252  0.0891 -0.2067
   65loPI   C5A 1035   4.152  10.435   8.896  0.0130  0.1841  0.0626
   65loPI   C6A 1036   3.776  10.451   8.522 -0.0352  0.0590  0.0983
   65loPI   C1B 1037   3.668  11.804   9.771  0.1901  0.0514  0.0877
   65loPI   C2B 1038   3.713  11.641   9.332  0.0183 -0.0940 -0.2705
   65loPI   C3B 1039   3.665  11.639   8.866 -0.2193 -0.2755  0.0449
   65loPI   C4B 1040   3.489  11.410   8.507  0.1548 -0.0265 -0.2527
   66loPI    C1 1041  17.152  13.369  10.616 -0.0935  0.1510 -0.1179
   66loPI    C2 1042  17.048  13.175  10.949  0.0626  0.1516 -0.0677
   66loPI    C3 1043  17.085  13.573  10.953  0.0673  0.1514 -0.0853
   66loPI   PO4 1044  17.032  13.306  10.423  0.1409 -0.0152 -0.2893
   66loPI   GL1 1045  16.805  13.529  10.041 -0.1472 -0.1253  0.2852
   66loPI   GL2 1046  17.165  13.697  10.172  0.0907 -0.2158  0.2515
   66loPI   C1A 1047  16.890  13.500   9.688  0.3100 -0.2738 -0.0349
   66loPI   C2A 1048  16.901  13.322   9.344  0.0100 -0.0351 -0.1796
   66loPI   C3A 1049  16.880  13.102   9.076  0.1524  0.1226 -0.0139
   66loPI   C4A 1050  16.875  12.889   8.674 -0.0613  0.1089 -0.3283
   66loPI   C5A 1051  16.582  12.871   8.330  0.1767  0.0795 -0.1450
   66loPI   C6A 1052  16.434  12.605   8.008  0.2791  0.0868 -0.0866
   66loPI   C1B 1053  17.344  13.685   9.768 -0.1325 -0.0904  0.0502
   66loPI   C2B 1054  17.408  13.635   9.381  0.1291  0.1868 -0.1368
   66loPI   C3B 1055  17.296  13.445   8.957 -0.2834 -0.0723  0.1594
   66loPI   C4B 1056  17.221  13.302   8.597 -0.0852 -0.3444 -0.0735
   67loPI    C1 1057   4.658   3.006  10.688  0.0011  0.0214 -0.0272
   67loPI    C2 1058   4.517   3.257  10.965 -0.0765 -0.0555  0.0034
   67loPI    C3 1059   4.727   2.935  11.075  0.1388  0.0671 -0.0429
   67loPI   PO4 1060   4.720   3.187  10.503  0.2449  0.1292 -0.0098
   67loPI   GL1 1061   4.898   3.163  10.103  0.0532 -0.0172 -0.1694
   67loPI   GL2 1062   5.247   2.971  10.119 -0.1261  0.1709  0.1707
   67loPI   C1A 1063   4.909   3.496   9.798 -0.0682  0.1807 -0.0403
   67loPI   C2A 1064   4.865   3.546   9.374 -0.2249  0.0480 -0.0932
   67loPI   C3A 1065   4.733   3.355   9.024  0.0682  0.0852 -0.1915
   67loPI   C4A 1066   4.569   3.362   8.628  0.0452  0.1752 -0.1317
   67loPI   C5A 1067   4.632   3.034   8.343  0.0728 -0.1399  0.3192
   67loPI   C6A 1068   4.825   3.090   7.869 -0.2896  0.0630  0.0420
   67loPI   C1B 1069   5.255   2.697   9.704  0.1811 -0.2895 -0.0185
   67loPI   C2B 1070   5.294   2.527   9.270  0.3208  0.2512 -0.0063
   67loPI   C3B 1071   5.103   2.292   8.872 -0.0494 -0.0911 -0.3082
   67loPI   C4B 1072   5.068   2.245   8.505 -0.3466 -0.1504 -0.1573
   68loPI    C1 1073   4.722  10.507  11.119  0.1887 -0.0376  0.1195
   68loPI    C2 1074   4.504  10.839  11.169  0.1791 -0.0248 -0.0030
   68loPI    C3 1075   4.880  10.823  11.306  0.1012 -0.0484  0.2122
   68loPI   PO4 1076   4.741  10.423  10.961  0.1090 -0.0872 -0.1122
   68loPI   GL1 1077   4.803  10.338  10.565  0.1017 -0.1399  0.2240
   68loPI   GL2 1078   5.007  10.138  10.327 -0.0372 -0.3666 -0.0593
   68loPI   C1A 1079   4.912  10.661  10.287  0.4734 -0.0467 -0.2680
   68loPI   C2A 1080   4.779  10.871   9.994  0.1857 -0.0462 -0.0001
   68loPI   C3A 1081   4.850  10.957   9.646 -0.2508  0.0295 -0.1489
   68loPI   C4A 1082   4.813  10.698   9.269  0.1403 -0.0838 -0.4344
   68loPI   C5A 1083   4.673  10.493   8.874  0.0226 -0.0461 -0.1413
   68loPI   C6A 1084   4.741  10.806   8.454  0.2313 -0.0470  0.1390
   68loPI   C1B 1085   5.218  10.029   9.916 -0.0069 -0.2050  0.2024
   68loPI   C2B 1086   5.495  10.020   9.591  0.0396 -0.3605  0.1841
   68loPI   C3B 1087   5.751   9.921   9.213 -0.1870  0.0959 -0.1220
   68loPI   C4B 1088   5.758   9.717   8.788  0.0179 -0.2022  0.2421
   69loPI    C1 1089   9.335  14.765  11.008 -0.1192 -0.0362  0.1089
   69loPI    C2 1090   9.627  14.669  11.265 -0.0868  0.2040  0.1644
   69loPI    C3 1091   9.244  14.606  11.364 -0.0559 -0.1225  0.0869
   69loPI   PO4 1092   9.372  14.685  10.756  0.1012 -0.0083  0.0144
   69loPI   GL1 1093   9.534  14.835  10.356 -0.2094  0.2817 -0.0548
   69loPI   GL2 1094   9.831  14.744  10.249  0.2999  0.0548  0.0945
   69loPI   C1A 1095   9.260  14.683   9.959 -0.4644 -0.0481  0.0356
   69loPI   C2A 1096   9.391  14.521   9.563  0.0428 -0.0335 -0.0008
   69loPI   C3A 1097   9.466  14.411   9.190  0.0408  0.2006  0.0329
   69loPI   C4A 1098   9.428  14.354   8.777 -0.0601  0.1130  0.1127
   69loPI   C5A 1099   9.344  14.202   8.381 -0.0792 -0.1686 -0.1977
   69loPI   C6A 1100   9.191  14.503   7.969 -0.1555  0.0114  0.0179
   69loPI   C1B 1101   9.865  14.804   9.838  0.2051  0.0305  0.0244
   69loPI   C2B 1102   9.906  14.703   9.451 -0.0387  0.0436  0.4537
   69loPI   C3B 1103   9.936  14.540   9.075 -0.0493  0.3451 -0.1393
   69loPI   C4B 1104   9.907  14.402   8.661  0.0842  0.0344 -0.1095
   70loPI    C1 1105  16.153  14.984  10.567 -0.1130  0.0627  0.0431
   70loPI    C2 1106  16.017  14.636  10.709  0.2277 -0.0676  0.0615
   70loPI    C3 1107  16.076  14.944  10.958  0.0274 -0.0285  0.0624
   70loPI   PO4 1108  16.343  14.923  10.373  0.2464 -0.1384  0.1124
   70loPI   GL1 1109  16.465  14.704   9.982  0.1368 -0.1642  0.4363
   70loPI   GL2 1110  16.491  14.364   9.870 -0.1864  0.1222  0.2231
   70loPI   C1A 1111  16.482  14.762   9.458 -0.1133 -0.1705  0.1729
   70loPI   C2A 1112  16.564  14.632   9.071 -0.1662  0.1543  0.0648
   70loPI   C3A 1113  16.531  14.459   8.658 -0.2989  0.1877  0.0099
   70loPI   C4A 1114  16.453  14.347   8.272 -0.2923 -0.0898  0.2730
   70loPI   C5A 1115  16.564  14.091   7.952 -0.0447  0.0280 -0.0073
   70loPI   C6A 1116  16.778  13.757   7.913 -0.0706 -0.1147  0.1279
   70loPI   C1B 1117  16.448  14.292   9.446  0.1454  0.1229  0.1520
   70loPI   C2B 1118  16.385  14.196   9.067  0.1741  0.1560  0.1857
   70loPI   C3B 1119  16.491  13.929   8.795  0.1112  0.1162  0.2121
   70loPI   C4B 1120  16.640  13.899   8.395 -0.0286 -0.1702  0.0451
   71loPI    C1 1121  12.581   9.725  11.435  0.0194 -0.2040  0.1214
   71loPI    C2 1122  12.504   9.946  11.759  0.0870 -0.0865  0.0581
   71loPI    C3 1123  12.282   9.622  11.680 -0.0467 -0.0117  0.1228
   71loPI   PO4 1124  12.642   9.864  11.289  0.0737 -0.0870 -0.0804
   71loPI   GL1 1125  12.430   9.834  10.846  0.0077 -0.0858  0.1357
   71loPI   GL2 1126  12.181  10.029  10.733 -0.1508  0.1919  0.0290
   71loPI   C1A 1127  12.480   9.871  10.296 -0.2277 -0.2353  0.1773
   71loPI   C2A 1128  12.370   9.872   9.873  0.2830  0.1939  0.0171
   71loPI   C3A 1129  12.447   9.845   9.473 -0.1794 -0.3822 -0.0034
   71loPI   C4A 1130  12.493   9.717   8.992  0.1400  0.2861  0.2453
   71loPI   C5A 1131  12.311   9.355   8.799  0.0536 -0.2213  0.0665
   71loPI   C6A 1132  12.300   8.907   8.555 -0.0177 -0.2989  0.0220
   71loPI   C1B 1133  12.173  10.189  10.238  0.0164 -0.3604  0.0918
   71loPI   C2B 1134  12.175  10.272   9.711  0.1379 -0.1052  0.2488
   71loPI   C3B 1135  12.151  10.282   9.192 -0.1303  0.0447  0.0396
   71loPI   C4B 1136  12.212  10.118   8.875 -0.0328 -0.0382  0.1245
   72loPI    C1 1137   3.986   7.526  11.025  0.0651  0.0011  0.0252
   72loPI    C2 1138   4.231   7.841  11.056  0.0098  0.0604 -0.1270
   72loPI    C3 1139   3.922   7.852  10.802  0.0656 -0.1545 -0.2071
   72loPI   PO4 1140   4.198   7.365  10.934  0.3199  0.1385  0.1735
   72loPI   GL1 1141   4.399   7.173  10.546 -0.3013  0.3983 -0.0224
   72loPI   GL2 1142   4.145   7.141  10.491  0.3983  0.0825 -0.0026
   72loPI   C1A 1143   4.637   7.220  10.205 -0.0928 -0.1903  0.1389
   72loPI   C2A 1144   4.549   7.234   9.838 -0.1749  0.1912 -0.1501
   72loPI   C3A 1145   4.582   7.219   9.420  0.0482  0.0613 -0.3740
   72loPI   C4A 1146   4.580   7.201   9.106 -0.0725  0.0696  0.0947
   72loPI   C5A 1147   4.672   7.255   8.694  0.0708 -0.0872  0.0178
   72loPI   C6A 1148   4.632   7.268   8.273  0.2432 -0.0729 -0.2503
   72loPI   C1B 1149   4.124   7.286  10.075 -0.0517  0.1046 -0.2812
   72loPI   C2B 1150   4.089   7.195   9.608  0.0477  0.2962  0.1260
   72loPI   C3B 1151   4.032   7.209   9.181 -0.1525 -0.0024 -0.1099
   72loPI   C4B 1152   4.077   7.197   8.766 -0.1175  0.5486 -0.0094
   73loPI    C1 1153   9.872  12.816  10.782 -0.0096  0.0694 -0.0860
   73loPI    C2 1154  10.057  13.164  10.712  0.3357 -0.0772  0.0760
   73loPI    C3 1155   9.883  13.097  11.066  0.1144 -0.0036 -0.0174
   73loPI   PO4 1156  10.071  12.648  10.624  0.1634  0.0739 -0.1323
   73loPI   GL1 1157  10.228  12.580  10.244  0.0639 -0.2039 -0.1019
   73loPI   GL2 1158  10.034  12.266  10.355 -0.2974  0.0879  0.2269
   73loPI   C1A 1159  10.260  12.465   9.863 -0.0935 -0.0778 -0.0627
   73loPI   C2A 1160  10.344  12.243   9.410  0.1169  0.0052 -0.1670
   73loPI   C3A 1161  10.469  12.206   9.025  0.0254  0.0552 -0.2272
   73loPI   C4A 1162  10.535  12.199   8.615  0.1190  0.2577  0.0072
   73loPI   C5A 1163  10.380  12.399   8.312  0.2326  0.2820 -0.0224
   73loPI   C6A 1164  10.691  12.633   8.210  0.4217 -0.0009  0.0131
   73loPI   C1B 1165  10.010  12.030   9.939 -0.1586  0.0250 -0.1977
   73loPI   C2B 1166   9.823  12.150   9.517  0.1175 -0.2983  0.2165
   73loPI   C3B 1167   9.957  12.149   9.118  0.0248  0.2708  0.0278
   73loPI   C4B 1168   9.959  12.092   8.608 -0.0808 -0.0829 -0.0983
   74loPI    C1 1169  17.298   9.997  10.573  0.0955 -0.1379 -0.0136
   74loPI    C2 1170  17.325  10.194  10.920  0.3730 -0.0908 -0.0593
   74loPI    C3 1171  17.644  10.002  10.774  0.2956 -0.0024 -0.3515
   74loPI   PO4 1172  16.967   9.883  10.620  0.3872 -0.0881 -0.1408
   74loPI   GL1 1173  16.874   9.560  10.300 -0.1976  0.1497  0.1835
   74loPI   GL2 1174  17.168   9.596  10.280 -0.0841 -0.0262 -0.0451
   74loPI   C1A 1175  16.816   9.576   9.871  0.1321 -0.2367 -0.0011
   74loPI   C2A 1176  16.772   9.763   9.467 -0.1159  0.3594  0.1193
   74loPI   C3A 1177  16.591   9.548   9.070  0.0847 -0.1534  0.1953
   74loPI   C4A 1178  16.303   9.700   8.764 -0.2103 -0.0409  0.0378
   74loPI   C5A 1179  15.913   9.870   8.504 -0.3653 -0.2315  0.1166
   74loPI   C6A 1180  15.679  10.137   8.296 -0.2739 -0.2278 -0.1485
   74loPI   C1B 1181  17.331   9.417   9.883  0.2542 -0.2221 -0.0493
   74loPI   C2B 1182  17.324   9.240   9.509  0.2609  0.0150  0.1710
   74loPI   C3B 1183  17.374   9.064   9.113 -0.0594  0.0984 -0.1237
   74loPI   C4B 1184  17.020   9.214   8.838  0.0537 -0.1122  0.2527
   75loPI    C1 1185  12.272   8.973  11.213  0.1288 -0.0301  0.0681
   75loPI    C2 1186  12.564   8.721  11.106  0.0094 -0.1263 -0.0349
   75loPI    C3 1187  12.343   8.645  11.431 -0.2426 -0.3317 -0.2504
   75loPI   PO4 1188  12.133   8.944  10.969  0.3769 -0.0490  0.0290
   75loPI   GL1 1189  11.975   8.967  10.578  0.4719 -0.3871 -0.0843
   75loPI   GL2 1190  12.311   8.688  10.589  0.0082 -0.0183 -0.0190
   75loPI   C1A 1191  12.083   8.901  10.210  0.3634 -0.0198 -0.1531
   75loPI   C2A 1192  12.097   8.994   9.784  0.1250 -0.1988 -0.0130
   75loPI   C3A 1193  12.044   8.873   9.487 -0.0410 -0.3111  0.1666
   75loPI   C4A 1194  12.094   8.837   9.148 -0.0487 -0.2137  0.0151
   75loPI   C5A 1195  11.964   8.590   8.782 -0.2184 -0.1611 -0.2788
   75loPI   C6A 1196  11.737   8.443   8.573 -0.1724  0.3404 -0.0813
   75loPI   C1B 1197  12.113   8.293  10.561  0.2323  0.1147  0.1353
   75loPI   C2B 1198  11.890   8.329  10.165 -0.0310 -0.0182 -0.1462
   75loPI   C3B 1199  11.860   8.346   9.733 -0.1780  0.2163 -0.1337
   75loPI   C4B 1200  11.759   8.409   9.317 -0.0835 -0.0319  0.2535
   76loPI    C1 1201  11.590   0.054  10.397  0.0419  0.0397 -0.0612
   76loPI    C2 1202  11.397  -0.167  10.669  0.0798 -0.2800 -0.2881
   76loPI    C3 1203  11.209   0.136  10.487  0.1082  0.0544  0.2177
   76loPI   PO4 1204  11.696  -0.129  10.248 -0.1485  0.1384  0.2957
   76loPI   GL1 1205  11.791  -0.403   9.880 -0.0861  0.1845  0.2522
   76loPI   GL2 1206  11.653  -0.536   9.781  0.0739  0.0697 -0.0004
   76loPI   C1A 1207  12.052  -0.226   9.529 -0.0224 -0.0881  0.5442
   76loPI   C2A 1208  12.264  -0.188   9.135 -0.2353  0.1828  0.1307
   76loPI   C3A 1209  12.158  -0.351   8.807 -0.1544  0.0152  0.1120
   76loPI   C4A 1210  12.058  -0.497   8.452  0.0319 -0.2387 -0.0587
   76loPI   C5A 1211  11.817  -0.830   8.265  0.2661 -0.1294  0.1445
   76loPI   C6A 1212  11.508  -1.004   7.943  0.1975  0.1845  0.1424
   76loPI   C1B 1213  11.907  -0.696   9.463 -0.0743  0.2364 -0.0900
   76loPI   C2B 1214  11.822  -0.674   9.012 -0.0033  0.0104 -0.2789
   76loPI   C3B 1215  11.592  -0.563   8.662  0.3010  0.2591 -0.0767
   76loPI   C4B 1216  11.411  -0.512   8.226 -0.1538 -0.2026  0.2798
   77loPI    C1 1217   3.887   6.117  10.840 -0.0248 -0.1411 -0.2237
   77loPI    C2 1218   4.205   6.182  10.606  0.0883  0.0320 -0.0244
   77loPI    C3 1219   4.251   6.006  10.963 -0.0357  0.0796  0.0155
   77loPI   PO4 1220   3.787   6.426  10.857 -0.1317  0.0285  0.1168
   77loPI   GL1 1221   3.776   6.817  10.481  0.0795 -0.0148 -0.1019
   77loPI   GL2 1222   3.996   6.667  10.445 -0.0449  0.2993  0.2265
   77loPI   C1A 1223   3.829   6.887   9.939 -0.0798  0.0556  0.0736
   77loPI   C2A 1224   3.822   6.843   9.452 -0.2982  0.1020  0.0113
   77loPI   C3A 1225   3.756   6.831   9.047  0.1894  0.0566  0.5013
   77loPI   C4A 1226   3.804   6.799   8.660 -0.0514  0.1170 -0.2660
   77loPI   C5A 1227   3.780   6.847   8.231 -0.0971  0.5376 -0.0955
   77loPI   C6A 1228   3.714   7.147   7.942 -0.0524  0.1044  0.0530
   77loPI   C1B 1229   4.000   6.438  10.007  0.1921 -0.1452  0.2400
   77loPI   C2B 1230   4.074   6.337   9.642  0.0958 -0.2062 -0.4611
   77loPI   C3B 1231   3.948   6.278   9.220 -0.0649 -0.2301  0.3398
   77loPI   C4B 1232   3.956   6.294   8.733  0.1915 -0.1513 -0.2213
   78loPI    C1 1233   2.477  10.241  11.129  0.0962 -0.0315 -0.1659
   78loPI    C2 1234   2.433   9.855  11.225 -0.0259  0.0218 -0.0025
   78loPI    C3 1235   2.637  10.099  11.467  0.0498  0.0608 -0.1050
   78loPI   PO4 1236   2.454  10.230  10.888  0.0856  0.0928  0.1731
   78loPI   GL1 1237   2.521  10.020  10.634 -0.0327  0.1214  0.0589
   78loPI   GL2 1238   2.213   9.852  10.662 -0.0406  0.0029 -0.1803
   78loPI   C1A 1239   2.808  10.041  10.291  0.0343  0.2076  0.0685
   78loPI   C2A 1240   2.717  10.075   9.954 -0.0484  0.1429 -0.1760
   78loPI   C3A 1241   2.490   9.969   9.588  0.2006  0.0686  0.0368
   78loPI   C4A 1242   2.413  10.004   9.156  0.3703 -0.1116 -0.0744
   78loPI   C5A 1243   2.173  10.069   8.711 -0.1108 -0.0390  0.2468
   78loPI   C6A 1244   2.395  10.022   8.387 -0.4890  0.0922  0.0942
   78loPI   C1B 1245   2.272   9.912  10.199 -0.3707 -0.0638 -0.2378
   78loPI   C2B 1246   1.986  10.018   9.840  0.1279  0.1121  0.0108
   78loPI   C3B 1247   1.882   9.990   9.438 -0.1333  0.1213 -0.3221
   78loPI   C4B 1248   1.804   9.988   9.070  0.0166  0.1569  0.0362
   79loPI    C1 1249  11.858   0.490  10.648 -0.1011  0.0898  0.1619
   79loPI    C2 1250  11.525   0.371  10.835 -0.0828  0.1160  0.2111
   79loPI    C3 1251  11.858   0.151  10.860 -0.1255  0.0346  0.0745
   79loPI   PO4 1252  11.851   0.507  10.367 -0.1120  0.0500 -0.2730
   79loPI   GL1 1253  11.814   0.327  10.040 -0.2906 -0.0147  0.3217
   79loPI   GL2 1254  11.963   0.123   9.912 -0.1583  0.2329  0.0369
   79loPI   C1A 1255  11.645   0.613   9.755  0.1519  0.1993  0.1534
   79loPI   C2A 1256  11.658   0.757   9.371  0.4560 -0.1933 -0.1421
   79loPI   C3A 1257  11.611   0.554   8.962 -0.0441 -0.1580  0.0119
   79loPI   C4A 1258  11.633   0.516   8.537  0.1719 -0.0505  0.0498
   79loPI   C5A 1259  11.928   0.540   8.119 -0.0432  0.1533 -0.3412
   79loPI   C6A 1260  12.322   0.424   7.899 -0.0333 -0.2031  0.4296
   79loPI   C1B 1261  11.917   0.257   9.528 -0.1971  0.0319 -0.0624
   79loPI   C2B 1262  11.999   0.234   9.043 -0.1069 -0.0328  0.0561
   79loPI   C3B 1263  12.251   0.406   8.815  0.1473  0.2660  0.2216
   79loPI   C4B 1264  12.138   0.767   8.525  0.2062 -0.3800  0.1290
   80loPI    C1 1265   7.844   0.599  10.539 -0.3189  0.1183 -0.1724
   80loPI    C2 1266   7.721   0.223  10.599 -0.1825  0.1127  0.0840
   80loPI    C3 1267   7.468   0.495  10.452 -0.3511 -0.0218  0.1227
   80loPI   PO4 1268   8.020   0.672  10.371  0.4826  0.0656  0.2022
   80loPI   GL1 1269   8.256   0.644   9.947 -0.0648 -0.3115  0.1192
   80loPI   GL2 1270   8.511   0.395   9.827  0.2291 -0.0266  0.3624
   80loPI   C1A 1271   7.852   0.735   9.673  0.1617  0.1123 -0.3168
   80loPI   C2A 1272   7.892   0.635   9.240 -0.0840 -0.1818 -0.0523
   80loPI   C3A 1273   8.029   0.617   8.794  0.1774  0.3302  0.2032
   80loPI   C4A 1274   8.208   0.541   8.277  0.2520  0.3486 -0.2554
   80loPI   C5A 1275   8.281   0.150   8.089  0.1262  0.1631 -0.0101
   80loPI   C6A 1276   7.889  -0.196   8.192  0.3261 -0.3117 -0.0978
   80loPI   C1B 1277   8.383   0.525   9.369 -0.0289  0.0678 -0.0777
   80loPI   C2B 1278   8.530   0.514   8.921  0.0127  0.2813  0.0135
   80loPI   C3B 1279   8.529   0.307   8.580  0.0003  0.3410 -0.1293
   80loPI   C4B 1280   8.744   0.404   8.238 -0.1333  0.1715  0.2345
   81loPI    C1 1281   9.722   1.490  10.911 -0.1011 -0.0777  0.1361
   81loPI    C2 1282  10.052   1.657  11.063 -0.0928  0.1017 -0.0739
   81loPI    C3 1283   9.692   1.765  11.200 -0.0774  0.1218 -0.0490
   81loPI   PO4 1284   9.761   1.487  10.547 -0.0686 -0.1638  0.0839
   81loPI   GL1 1285  10.109   1.551  10.296 -0.3099  0.2464  0.0938
   81loPI   GL2 1286   9.953   1.471  10.050  0.1600 -0.0358 -0.2335
   81loPI   C1A 1287  10.269   1.908  10.103  0.4051 -0.1279  0.1165
   81loPI   C2A 1288  10.329   2.050   9.667 -0.2455  0.0982 -0.0259
   81loPI   C3A 1289  10.285   2.004   9.198  0.3729  0.0174  0.0944
   81loPI   C4A 1290   9.951   2.141   8.852 -0.0901  0.1965  0.0870
   81loPI   C5A 1291   9.728   1.993   8.569  0.0627 -0.2771  0.5341
   81loPI   C6A 1292   9.467   1.740   8.379 -0.1660  0.2118 -0.1570
   81loPI   C1B 1293  10.081   1.577   9.734  0.1268 -0.1174  0.1417
   81loPI   C2B 1294  10.019   1.537   9.320  0.0873  0.0261  0.1642
   81loPI   C3B 1295  10.105   1.664   8.917  0.0580 -0.3396  0.0331
   81loPI   C4B 1296  10.129   1.396   8.597  0.0266  0.0596 -0.2069
   82loPI    C1 1297  11.316  16.963  10.484  0.0221  0.2063 -0.0922
   82loPI    C2 1298  11.695  16.888  10.587 -0.0373  0.1384  0.0805
   82loPI    C3 1299  11.438  16.586  10.538 -0.0201  0.1718 -0.2332
   82loPI   PO4 1300  11.303  17.129  10.229 -0.2674 -0.3099 -0.1554
   82loPI   GL1 1301  10.997  16.960   9.873 -0.2195  0.0170 -0.1106
   82loPI   GL2 1302  10.619  16.864   9.975  0.1299 -0.0998  0.1348
   82loPI   C1A 1303  11.210  16.824   9.567  0.0569 -0.0010  0.0452
   82loPI   C2A 1304  11.046  16.441   9.390  0.2453  0.0348 -0.1036
   82loPI   C3A 1305  11.172  16.260   8.952 -0.1959 -0.1673  0.0807
   82loPI   C4A 1306  11.423  16.099   8.679  0.1549 -0.1446 -0.0910
   82loPI   C5A 1307  11.492  15.969   8.331  0.0353  0.2242  0.1508
   82loPI   C6A 1308  11.610  15.943   7.829 -0.2798  0.1753  0.0446
   82loPI   C1B 1309  10.576  16.586   9.648  0.0410  0.2125 -0.1844
   82loPI   C2B 1310  10.489  16.329   9.270 -0.0620  0.0835 -0.3285
   82loPI   C3B 1311  10.649  16.292   8.923  0.4349 -0.1583 -0.2085
   82loPI   C4B 1312  10.840  16.173   8.498 -0.0334 -0.0888 -0.0990
   83loPI    C1 1313   7.635  11.567  10.791 -0.1147  0.0788  0.1389
   83loPI    C2 1314   7.634  11.349  11.126  0.0945 -0.0561  0.0541
   83loPI    C3 1315   7.766  11.726  11.133 -0.1898  0.0437  0.1842
   83loPI   PO4 1316   7.421  11.506  10.672  0.1996  0.1498 -0.0291
   83loPI   GL1 1317   7.334  11.421  10.276 -0.1657  0.0151  0.2593
   83loPI   GL2 1318   7.093  11.228  10.312  0.2794 -0.0728  0.0191
   83loPI   C1A 1319   7.504  11.403   9.880  0.2758 -0.0879  0.0685
   83loPI   C2A 1320   7.550  11.374   9.448  0.0329 -0.0816  0.0433
   83loPI   C3A 1321   7.560  11.515   8.896 -0.1112 -0.3071 -0.1048
   83loPI   C4A 1322   7.558  11.574   8.533  0.0227  0.1451 -0.2357
   83loPI   C5A 1323   7.662  11.502   8.068  0.0389  0.1394  0.0666
   83loPI   C6A 1324   7.403  11.403   7.757  0.1281  0.1407  0.1174
   83loPI   C1B 1325   6.986  11.406   9.856  0.2086  0.0211 -0.2632
   83loPI   C2B 1326   6.883  11.443   9.490  0.0404 -0.0419  0.0300
   83loPI   C3B 1327   7.077  11.504   9.096 -0.1500  0.4631  0.0523
   83loPI   C4B 1328   7.048  11.606   8.651 -0.4278 -0.0493 -0.2454
   84loPI    C1 1329   2.176  13.961  10.956  0.0632  0.1451  0.1783
   84loPI    C2 1330   1.805  14.109  10.937  0.0371  0.0461 -0.1299
   84loPI    C3 1331   2.041  14.202  11.246 -0.3212 -0.0722  0.1876
   84loPI   PO4 1332   2.290  13.983  10.759 -0.0097  0.1650  0.0428
   84loPI   GL1 1333   2.396  13.812  10.449  0.1294  0.2012  0.1633
   84loPI   GL2 1334   2.742  13.748  10.433 -0.1562  0.3019  0.0337
   84loPI   C1A 1335   2.341  14.096  10.050 -0.0129  0.0807  0.0339
   84loPI   C2A 1336   2.575  14.067   9.694  0.4222  0.0637 -0.0560
   84loPI   C3A 1337   2.806  14.001   9.260 -0.1151 -0.1717  0.2098
   84loPI   C4A 1338   2.982  14.190   8.872 -0.1381  0.1610  0.0767
   84loPI   C5A 1339   2.809  14.056   8.486  0.0970  0.0124 -0.0824
   84loPI   C6A 1340   2.702  13.769   8.188 -0.0928  0.2470  0.1504
   84loPI   C1B 1341   2.637  13.673   9.959  0.2658  0.0571  0.2067
   84loPI   C2B 1342   2.435  13.600   9.575  0.2210  0.1409  0.1695
   84loPI   C3B 1343   2.426  13.557   9.155 -0.1002  0.2322  0.1851
   84loPI   C4B 1344   2.635  13.672   8.835 -0.0343 -0.1989  0.1563
   85loPI    C1 1345   3.822   9.766  11.229 -0.1214 -0.0865 -0.0657
   85loPI    C2 1346   4.070   9.986  11.453 -0.0160 -0.1395 -0.1294
   85loPI    C3 1347   3.675  10.046  11.474  0.0095  0.0295 -0.1185
   85loPI   PO4 1348   3.934   9.732  10.945  0.4988  0.1349 -0.2523
   85loPI   GL1 1349   3.607   9.869  10.649  0.1678  0.1805 -0.0720
   85loPI   GL2 1350   3.852  10.041  10.388 -0.4333 -0.0645  0.1025
   85loPI   C1A 1351   3.397   9.929  10.262 -0.0013 -0.1997 -0.1252
   85loPI   C2A 1352   3.186  10.003   9.854 -0.0136 -0.0984 -0.1011
   85loPI   C3A 1353   3.135   9.996   9.417 -0.1490 -0.0113 -0.0009
   85loPI   C4A 1354   3.062  10.133   8.979  0.1197 -0.0734 -0.0296
   85loPI   C5A 1355   3.096  10.119   8.640 -0.2468  0.0203 -0.4241
   85loPI   C6A 1356   2.931   9.890   8.293  0.1053  0.4327  0.1257
   85loPI   C1B 1357   3.751  10.020   9.908  0.1122 -0.2245  0.2651
   85loPI   C2B 1358   3.746  10.042   9.485 -0.2364 -0.2102  0.0657
   85loPI   C3B 1359   3.982  10.075   9.197 -0.1723 -0.0599  0.0764
   85loPI   C4B 1360   4.001   9.951   8.840 -0.2446 -0.3549 -0.0325
   86loPI    C1 1361   1.500  11.025  11.031 -0.2957 -0.2414  0.0035
   86loPI    C2 1362   1.574  10.928  11.412 -0.0494 -0.1807 -0.0273
   86loPI    C3 1363   1.877  11.005  11.163 -0.2165 -0.0193 -0.1834
   86loPI   PO4 1364   1.374  10.912  10.905  0.0881 -0.1587  0.0854
   86loPI   GL1 1365   1.135  10.746  10.608  0.1614  0.1448  0.3137
   86loPI   GL2 1366   1.200  11.075  10.423 -0.0692  0.2374 -0.3119
   86loPI   C1A 1367   1.039  10.680  10.194  0.0168  0.2569  0.0348
   86loPI   C2A 1368   1.088  10.686   9.783 -0.0897 -0.2827  0.0088
   86loPI   C3A 1369   1.045  10.778   9.392 -0.0397 -0.2833  0.1308
   86loPI   C4A 1370   1.097  10.590   9.038  0.0115 -0.0440 -0.2019
   86loPI   C5A 1371   1.330  10.681   8.637  0.0812 -0.2422 -0.0826
   86loPI   C6A 1372   1.419  10.826   8.244  0.0405  0.0673  0.0186
   86loPI   C1B 1373   1.183  11.170   9.981  0.0040  0.0254 -0.0705
   86loPI   C2B 1374   0.778  11.079   9.683  0.0366 -0.1519 -0.0035
   86loPI   C3B 1375   0.457  11.144   9.389  0.0973 -0.3321  0.1993
   86loPI   C4B 1376   0.125  11.422   9.236 -0.0695  0.0688  0.1833
   87loPI    C1 1377   6.776  15.604  10.836  0.0236 -0.0956  0.0887
   87loPI    C2 1378   6.844  15.393  11.168 -0.0455 -0.1402  0.0745
   87loPI    C3 1379   6.532  15.642  11.151 -0.1079 -0.2228  0.0033
   87loPI   PO4 1380   6.757  15.420  10.611 -0.0000  0.0316  0.0677
   87loPI   GL1 1381   6.945  15.138  10.491  0.0207  0.0758  0.0411
   87loPI   GL2 1382   6.685  15.069  10.261 -0.0571 -0.0082 -0.1838
   87loPI   C1A 1383   7.222  14.957  10.204 -0.2203 -0.2881  0.2978
   87loPI   C2A 1384   7.491  14.682   9.928  0.0870 -0.2343 -0.4367
   87loPI   C3A 1385   7.588  14.777   9.536 -0.0793  0.5616  0.0607
   87loPI   C4A 1386   7.713  14.901   9.128  0.1136 -0.1840 -0.0505
   87loPI   C5A 1387   7.679  14.947   8.695  0.0795 -0.0629 -0.1052
   87loPI   C6A 1388   7.897  15.234   8.473  0.1633  0.0417  0.0773
   87loPI   C1B 1389   6.583  15.073   9.849  0.0639 -0.4428  0.0407
   87loPI   C2B 1390   6.615  15.019   9.343 -0.0724 -0.0327  0.1995
   87loPI   C3B 1391   6.647  15.107   8.935  0.0780  0.0212  0.2700
   87loPI   C4B 1392   6.732  15.064   8.488 -0.2580 -0.1110  0.0456
   88loPI    C1 1393   5.737  17.341  10.541 -0.0850  0.2196  0.0406
   88loPI    C2 1394   5.381  17.386  10.719 -0.1320 -0.1080  0.0346
   88loPI    C3 1395   5.713  17.517  10.899 -0.2226 -0.0786  0.1810
   88loPI   PO4 1396   5.752  17.457  10.282  0.1575 -0.1444 -0.0482
   88loPI   GL1 1397   5.707  17.557   9.821  0.1486  0.0056  0.4126
   88loPI   GL2 1398   5.910  17.709   9.655  0.1959 -0.1031 -0.1455
   88loPI   C1A 1399   5.322  17.774   9.677  0.2262  0.1796 -0.0505
   88loPI   C2A 1400   5.282  17.916   9.237  0.0749  0.1708 -0.0341
   88loPI   C3A 1401   5.252  17.906   8.857  0.0542 -0.0378  0.1347
   88loPI   C4A 1402   5.243  17.918   8.459  0.4700  0.1884 -0.0323
   88loPI   C5A 1403   5.357  17.722   8.130 -0.2370  0.0976  0.2389
   88loPI   C6A 1404   5.639  17.558   7.710  0.0319  0.0192  0.1180
   88loPI   C1B 1405   5.739  17.734   9.293  0.0454  0.1880  0.1051
   88loPI   C2B 1406   5.765  17.813   8.897  0.1305  0.1279 -0.0831
   88loPI   C3B 1407   5.753  17.630   8.507  0.2122 -0.0824 -0.0870
   88loPI   C4B 1408   5.898  17.405   8.181  0.1785 -0.4741 -0.2697
   89loPI    C1 1409  11.023   5.005  10.802 -0.0685 -0.0142  0.1319
   89loPI    C2 1410  10.942   4.691  11.037  0.1079 -0.0497  0.1460
   89loPI    C3 1411  11.106   5.021  11.192 -0.0759  0.0500  0.1308
   89loPI   PO4 1412  10.867   5.015  10.584 -0.2121 -0.2259  0.3112
   89loPI   GL1 1413  11.147   4.963  10.267 -0.0776  0.0863 -0.0288
   89loPI   GL2 1414  11.372   4.862  10.441  0.0083 -0.2230  0.0358
   89loPI   C1A 1415  11.157   4.875   9.778 -0.2021 -0.1908  0.1801
   89loPI   C2A 1416  11.111   4.931   9.288 -0.3193  0.1606 -0.4182
   89loPI   C3A 1417  11.178   5.061   8.835 -0.1317 -0.0474  0.0767
   89loPI   C4A 1418  11.255   5.118   8.403  0.0346 -0.4077  0.2457
   89loPI   C5A 1419  11.390   5.499   8.183 -0.1394 -0.3397 -0.0814
   89loPI   C6A 1420  11.222   5.908   8.269 -0.1251 -0.1151 -0.0842
   89loPI   C1B 1421  11.564   4.950  10.021  0.0342 -0.2033  0.2797
   89loPI   C2B 1422  11.613   5.104   9.575  0.1738  0.0074  0.3539
   89loPI   C3B 1423  11.618   4.947   9.209 -0.0025  0.2885  0.0882
   89loPI   C4B 1424  11.920   5.007   8.961  0.0506  0.0014  0.1251
   90loPI    C1 1425  10.056   9.147  11.076 -0.1137 -0.0658  0.0585
   90loPI    C2 1426  10.005   8.900  10.765  0.1342 -0.0103 -0.0282
   90loPI    C3 1427  10.368   8.946  10.927  0.0516  0.1459  0.1156
   90loPI   PO4 1428  10.022   9.423  10.987 -0.1948 -0.1287 -0.0500
   90loPI   GL1 1429  10.238   9.593  10.697  0.0353  0.0969  0.0498
   90loPI   GL2 1430  10.253   9.250  10.557 -0.1247  0.0379  0.2553
   90loPI   C1A 1431   9.865   9.515  10.373  0.1250  0.1146  0.0114
   90loPI   C2A 1432   9.818   9.516   9.907 -0.0814  0.3146 -0.0927
   90loPI   C3A 1433   9.973   9.330   9.461  0.1254  0.0547 -0.1029
   90loPI   C4A 1434   9.971   9.394   8.956 -0.0735  0.1184  0.0374
   90loPI   C5A 1435  10.216   9.123   8.654  0.0141  0.1924 -0.1442
   90loPI   C6A 1436  10.486   9.041   8.394  0.1384 -0.2487 -0.0024
   90loPI   C1B 1437  10.389   9.573  10.222  0.2930  0.3704 -0.0653
   90loPI   C2B 1438  10.425   9.506   9.812  0.0793 -0.3798  0.2349
   90loPI   C3B 1439  10.471   9.456   9.414 -0.0969 -0.1157  0.0184
   90loPI   C4B 1440  10.531   9.364   8.945  0.1462 -0.0224  0.1255
   91loPI    C1 1441   5.573   8.282  10.790  0.1645  0.2415  0.0022
   91loPI    C2 1442   5.477   8.654  10.903  0.0809  0.2271 -0.0211
   91loPI    C3 1443   5.471   8.356  11.169  0.3095  0.2720  0.0359
   91loPI   PO4 1444   5.401   8.275  10.526 -0.0101 -0.2108  0.0356
   91loPI   GL1 1445   5.300   8.248  10.176  0.1023  0.1847 -0.3903
   91loPI   GL2 1446   5.522   8.446  10.039 -0.0613 -0.1353  0.0595
   91loPI   C1A 1447   5.208   8.045   9.769  0.1133 -0.4056  0.1374
   91loPI   C2A 1448   5.206   8.015   9.375  0.0345  0.1626  0.1707
   91loPI   C3A 1449   5.238   7.986   8.833 -0.0672 -0.0105 -0.0481
   91loPI   C4A 1450   5.323   8.002   8.435  0.1619 -0.1924  0.1586
   91loPI   C5A 1451   5.286   8.339   8.103  0.2665 -0.0363  0.1998
   91loPI   C6A 1452   5.239   8.583   7.702 -0.0568 -0.0291 -0.0072
   91loPI   C1B 1453   5.503   8.494   9.649  0.0403  0.0188 -0.2102
   91loPI   C2B 1454   5.457   8.436   9.259 -0.1955 -0.1196 -0.0411
   91loPI   C3B 1455   5.573   8.495   8.825 -0.1406  0.0714 -0.1587
   91loPI   C4B 1456   5.656   8.421   8.379  0.1151 -0.0741 -0.1368
   92loPI    C1 1457  17.422   9.420  10.672 -0.0575 -0.1555 -0.0025
   92loPI    C2 1458  17.262   9.656  10.953  0.1112 -0.0599  0.0149
   92loPI    C3 1459  17.316   9.267  11.026  0.0556 -0.0566  0.0748
   92loPI   PO4 1460  17.613   9.566  10.593  0.0399 -0.0961  0.2344
   92loPI   GL1 1461  17.684   9.658  10.106 -0.0517  0.0246  0.0126
   92loPI   GL2 1462  17.823   9.952  10.282  0.0387  0.0863  0.1322
   92loPI   C1A 1463  17.762   9.675   9.728 -0.3013  0.1095 -0.0058
   92loPI   C2A 1464  17.842   9.971   9.463 -0.0027 -0.3888  0.2394
   92loPI   C3A 1465  17.907  10.033   9.113 -0.0600 -0.1161  0.1724
   92loPI   C4A 1466  18.262  10.137   8.770 -0.2516  0.0238  0.0605
   92loPI   C5A 1467  18.441  10.123   8.384 -0.0111  0.2480  0.2041
   92loPI   C6A 1468  18.252  10.047   8.029  0.3523  0.0040  0.2199
   92loPI   C1B 1469  17.886  10.133   9.924 -0.1515 -0.0798  0.0639
   92loPI   C2B 1470  17.492  10.286   9.579  0.0632  0.1400  0.0227
   92loPI   C3B 1471  17.387  10.242   9.116 -0.1102 -0.0217  0.0504
   92loPI   C4B 1472  17.587   9.955   8.785 -0.0249  0.1626  0.3262
   93loPI    C1 1473  12.080   9.731  11.227  0.1338 -0.0056 -0.0490
   93loPI    C2 1474  11.974   9.537  10.893  0.3180  0.0288 -0.1283
   93loPI    C3 1475  12.316   9.444  11.079  0.3707  0.2249 -0.1246
   93loPI   PO4 1476  11.874   9.930  11.211  0.2421 -0.0673  0.0778
   93loPI   GL1 1477  11.695   9.919  10.811  0.1335 -0.1908  0.4570
   93loPI   GL2 1478  11.682  10.207  10.679  0.2908  0.0385 -0.0211
   93loPI   C1A 1479  11.870   9.685  10.462  0.0076 -0.0601 -0.0963
   93loPI   C2A 1480  11.868   9.634  10.017 -0.0593  0.2130 -0.1869
   93loPI   C3A 1481  11.928   9.684   9.642 -0.3527 -0.2153 -0.1063
   93loPI   C4A 1482  12.012   9.775   9.238 -0.0461  0.2781  0.0691
   93loPI   C5A 1483  11.984   9.719   8.753 -0.1450  0.1934 -0.1490
   93loPI   C6A 1484  11.953   9.899   8.328  0.2003 -0.3086 -0.1041
   93loPI   C1B 1485  11.591  10.082  10.240 -0.2615 -0.0640  0.1135
   93loPI   C2B 1486  11.716  10.123   9.837  0.3780 -0.0427  0.2451
   93loPI   C3B 1487  11.678  10.160   9.386 -0.1488  0.1099 -0.0909
   93loPI   C4B 1488  11.667  10.040   8.957 -0.0767  0.0771  0.0276
   94loPI    C1 1489   1.991  14.607  10.872  0.1509  0.0427  0.0909
   94loPI    C2 1490   2.164  14.966  10.900 -0.0347  0.1313  0.1111
   94loPI    C3 1491   2.061  14.767  11.231 -0.0044  0.0950  0.0986
   94loPI   PO4 1492   2.104  14.444  10.711 -0.1076 -0.1848  0.1787
   94loPI   GL1 1493   2.047  14.280  10.377 -0.3767  0.1247  0.1878
   94loPI   GL2 1494   1.858  14.012  10.461 -0.0940  0.2351  0.1201
   94loPI   C1A 1495   2.060  14.571   9.978  0.2626  0.2854  0.1480
   94loPI   C2A 1496   2.014  14.680   9.545 -0.2562  0.1069 -0.0069
   94loPI   C3A 1497   2.062  14.446   9.155  0.3077 -0.0719 -0.1334
   94loPI   C4A 1498   1.969  14.245   8.785  0.0239  0.4335  0.0257
   94loPI   C5A 1499   2.140  13.877   8.855  0.1418  0.1261 -0.1402
   94loPI   C6A 1500   2.162  13.515   8.580  0.1275  0.1051  0.1143
   94loPI   C1B 1501   1.864  14.061   9.992 -0.0214 -0.2368  0.1154
   94loPI   C2B 1502   2.083  14.158   9.611  0.2347  0.0399 -0.0195
   94loPI   C3B 1503   2.295  14.021   9.301 -0.1846  0.0313  0.1978
   94loPI   C4B 1504   2.499  14.206   8.936  0.2230  0.0990 -0.0759
   95loPI    C1 1505   2.500   6.804  10.994 -0.0714 -0.2989 -0.0286
   95loPI    C2 1506   2.569   6.432  10.863  0.0657 -0.2517 -0.0927
   95loPI    C3 1507   2.845   6.621  11.082 -0.0553 -0.2332  0.0460
   95loPI   PO4 1508   2.388   6.912  10.762  0.0169  0.5392 -0.1579
   95loPI   GL1 1509   2.395   7.035  10.333 -0.2787 -0.0418 -0.1750
   95loPI   GL2 1510   2.483   7.317  10.142 -0.1222  0.1874  0.0306
   95loPI   C1A 1511   2.342   6.675  10.051  0.2528  0.3662  0.1660
   95loPI   C2A 1512   2.446   6.557   9.541  0.3357  0.0528 -0.2234
   95loPI   C3A 1513   2.453   6.551   9.167  0.1831 -0.0892 -0.2299
   95loPI   C4A 1514   2.475   6.376   8.717  0.2742  0.1756 -0.0965
   95loPI   C5A 1515   2.628   6.535   8.323 -0.0812 -0.2652 -0.3618
   95loPI   C6A 1516   2.946   6.790   8.152 -0.0100  0.3179 -0.1840
   95loPI   C1B 1517   2.656   7.386   9.741  0.0490  0.1928  0.0725
   95loPI   C2B 1518   2.666   7.507   9.353  0.2794  0.0717  0.0952
   95loPI   C3B 1519   2.856   7.800   9.058 -0.3045  0.1756 -0.1992
   95loPI   C4B 1520   3.033   8.203   8.785  0.1532  0.0732  0.0629
   96loPI    C1 1521  15.568  16.123  10.426 -0.2090  0.0421 -0.0655
   96loPI    C2 1522  15.468  16.479  10.580 -0.1595  0.1410 -0.2586
   96loPI    C3 1523  15.832  16.328  10.646 -0.2369  0.0469 -0.0362
   96loPI   PO4 1524  15.489  16.099  10.145 -0.1899 -0.1190  0.0124
   96loPI   GL1 1525  15.658  15.949   9.802  0.0656  0.3323  0.0361
   96loPI   GL2 1526  15.425  16.221   9.623 -0.2022  0.2301 -0.0053
   96loPI   C1A 1527  15.966  16.026   9.457  0.0342  0.2908 -0.2927
   96loPI   C2A 1528  16.419  15.980   9.285  0.1511 -0.0274 -0.0353
   96loPI   C3A 1529  16.632  15.958   8.900  0.0731 -0.1760 -0.3216
   96loPI   C4A 1530  16.841  15.844   8.536  0.1755  0.0468  0.0635
   96loPI   C5A 1531  17.012  15.920   8.068 -0.0830 -0.0127 -0.0900
   96loPI   C6A 1532  17.195  16.114   7.761 -0.3172  0.5822 -0.0778
   96loPI   C1B 1533  15.475  15.871   9.346 -0.0143  0.1076 -0.1340
   96loPI   C2B 1534  15.613  15.697   8.947  0.3420 -0.3724 -0.1412
   96loPI   C3B 1535  15.788  15.626   8.528 -0.0277 -0.3159  0.3297
   96loPI   C4B 1536  15.852  15.321   8.200  0.0677  0.1393 -0.1137
   97loPI    C1 1537  11.288   2.468  11.128 -0.0453  0.0368  0.0626
   97loPI    C2 1538  11.631   2.263  11.119 -0.0016  0.1169 -0.1546
   97loPI    C3 1539  11.317   2.118  11.319  0.1017 -0.0455 -0.1081
   97loPI   PO4 1540  11.249   2.506  10.785  0.2470 -0.0440 -0.1090
   97loPI   GL1 1541  11.270   2.397  10.277  0.0148 -0.0508  0.3094
   97loPI   GL2 1542  11.224   2.685  10.363  0.0656  0.0125 -0.0424
   97loPI   C1A 1543  11.565   2.498   9.954  0.0058  0.1728  0.0763
   97loPI   C2A 1544  11.625   2.443   9.539  0.0845  0.0681  0.0662
   97loPI   C3A 1545  11.641   2.479   9.192  0.0402  0.1100 -0.4446
   97loPI   C4A 1546  11.689   2.492   8.747  0.1003  0.1601  0.2165
   97loPI   C5A 1547  11.666   2.778   8.424  0.0031  0.0211  0.1953
   97loPI   C6A 1548  11.450   3.094   8.398  0.0525  0.2739 -0.2040
   97loPI   C1B 1549  11.421   2.960   9.995 -0.0332  0.0195 -0.1572
   97loPI   C2B 1550  11.510   2.936   9.653  0.1239  0.1722  0.0155
   97loPI   C3B 1551  11.464   2.967   9.291 -0.0148  0.2793  0.1518
   97loPI   C4B 1552  11.469   2.983   8.883  0.1250  0.2435  0.4537
   98loPI    C1 1553   5.884   3.843  10.853  0.1844 -0.2241 -0.0373
   98loPI    C2 1554   5.695   3.493  10.893 -0.0353 -0.1012  0.0182
   98loPI    C3 1555   5.556   3.818  11.081  0.2946 -0.0307  0.1474
   98loPI   PO4 1556   5.982   3.762  10.533  0.0233 -0.2645  0.2119
   98loPI   GL1 1557   6.170   3.953  10.272 -0.1092 -0.0372  0.3381
   98loPI   GL2 1558   6.152   4.308  10.305  0.1038 -0.1711  0.1805
   98loPI   C1A 1559   6.111   3.972   9.805 -0.0160  0.0648 -0.2081
   98loPI   C2A 1560   6.037   3.952   9.386 -0.1607 -0.0717  0.0112
   98loPI   C3A 1561   6.026   3.742   9.011  0.0023  0.0541 -0.0192
   98loPI   C4A 1562   5.953   3.636   8.525  0.0655  0.0697 -0.0197
   98loPI   C5A 1563   5.796   3.399   8.127  0.0712 -0.0766  0.1801
   98loPI   C6A 1564   5.760   3.093   7.757 -0.2676  0.1053 -0.1125
   98loPI   C1B 1565   5.964   4.409   9.975 -0.0202 -0.0073  0.0665
   98loPI   C2B 1566   5.920   4.448   9.537  0.1803 -0.0183 -0.1225
   98loPI   C3B 1567   5.866   4.253   9.049  0.1539  0.0242  0.1213
   98loPI   C4B 1568   6.034   4.141   8.621 -0.0487 -0.1825 -0.1065
   99loPI    C1 1569   7.571   4.111  11.049 -0.0402  0.0640 -0.0686
   99loPI    C2 1570   7.847   3.836  10.958  0.1487  0.2383 -0.0312
   99loPI    C3 1571   7.657   3.819  11.309  0.2090  0.1946 -0.0005
   99loPI   PO4 1572   7.409   4.162  10.800  0.3355  0.0306  0.2548
   99loPI   GL1 1573   7.430   4.454  10.433  0.0181 -0.4034 -0.1680
   99loPI   GL2 1574   7.094   4.374  10.382  0.0573  0.0051 -0.3221
   99loPI   C1A 1575   7.566   4.198  10.017 -0.0908 -0.0872 -0.1494
   99loPI   C2A 1576   7.288   4.191   9.604 -0.1481  0.3126  0.0071
   99loPI   C3A 1577   7.254   4.439   9.330 -0.1487 -0.0480  0.2282
   99loPI   C4A 1578   7.290   4.412   8.875 -0.0752  0.1118  0.1496
   99loPI   C5A 1579   7.336   4.588   8.400  0.2099  0.1012  0.0263
   99loPI   C6A 1580   6.968   4.934   8.273  0.0243  0.1312  0.2865
   99loPI   C1B 1581   7.085   4.337   9.994  0.0270  0.1199  0.0929
   99loPI   C2B 1582   6.835   4.401   9.597  0.0658 -0.1521 -0.3684
   99loPI   C3B 1583   6.802   4.598   9.088  0.1387 -0.0067 -0.1742
   99loPI   C4B 1584   6.720   4.624   8.672 -0.3139  0.1441  0.0379
  100loPI    C1 1585   5.055  16.557  10.843  0.2162 -0.1195  0.0221
  100loPI    C2 1586   5.255  16.454  11.174 -0.0360 -0.1661  0.1627
  100loPI    C3 1587   4.968  16.732  11.192  0.2423  0.1484 -0.1033
  100loPI   PO4 1588   5.004  16.370  10.579 -0.1178 -0.4130  0.1260
  100loPI   GL1 1589   4.875  16.363  10.040 -0.0385  0.0220  0.0973
  100loPI   GL2 1590   4.646  16.500  10.198 -0.0515  0.2551  0.0754
  100loPI   C1A 1591   4.908  16.491   9.630 -0.4188  0.1036  0.3024
  100loPI   C2A 1592   4.721  16.557   9.135 -0.0030  0.2311  0.0836
  100loPI   C3A 1593   4.735  16.348   8.747 -0.2682  0.0018  0.0195
  100loPI   C4A 1594   4.597  16.298   8.325 -0.2350 -0.1044 -0.1996
  100loPI   C5A 1595   4.428  16.400   7.802 -0.2135  0.1651 -0.1860
  100loPI   C6A 1596   4.323  16.573   7.474  0.1285 -0.0745  0.0457
  100loPI   C1B 1597   4.480  16.724   9.731 -0.2855  0.0782 -0.0944
  100loPI   C2B 1598   4.696  17.048   9.478 -0.0211  0.1459 -0.0850
  100loPI   C3B 1599   4.812  17.060   9.050  0.4484 -0.0029 -0.2360
  100loPI   C4B 1600   4.839  17.190   8.587 -0.0470  0.2496  0.1157
  101loPI    C1 1601   8.294  12.618  10.895  0.0440  0.0281 -0.0355
  101loPI    C2 1602   8.148  12.684  11.262 -0.3850 -0.0379 -0.1884
  101loPI    C3 1603   8.422  12.399  11.204 -0.2263  0.0527  0.0971
  101loPI   PO4 1604   8.013  12.605  10.742 -0.0121 -0.3144 -0.2429
  101loPI   GL1 1605   7.802  12.493  10.467 -0.0672  0.0103  0.3023
  101loPI   GL2 1606   7.794  12.713  10.204  0.0408 -0.0446  0.2225
  101loPI   C1A 1607   7.917  12.280  10.056 -0.1520  0.3491 -0.0755
  101loPI   C2A 1608   8.031  12.301   9.612 -0.0121 -0.1359  0.2862
  101loPI   C3A 1609   8.053  12.248   9.085  0.2060 -0.0928 -0.1036
  101loPI   C4A 1610   8.114  12.261   8.643  0.0442  0.2133 -0.1451
  101loPI   C5A 1611   7.876  12.474   8.420 -0.0405 -0.1135 -0.2488
  101loPI   C6A 1612   7.489  12.735   8.270  0.1009  0.0014  0.0639
  101loPI   C1B 1613   7.747  12.697   9.761 -0.1956 -0.2640 -0.1609
  101loPI   C2B 1614   7.848  12.695   9.324  0.1663 -0.0548 -0.2933
  101loPI   C3B 1615   7.822  12.643   8.894 -0.0479 -0.3752  0.0409
  101loPI   C4B 1616   7.418  12.442   8.804 -0.0372 -0.3008 -0.2860
  102loPI    C1 1617   9.290  13.957  10.822 -0.1564  0.0397  0.1703
  102loPI    C2 1618   9.362  13.897  11.211  0.2100 -0.0260  0.0962
  102loPI    C3 1619   9.448  14.250  11.044  0.0462  0.0046  0.0751
  102loPI   PO4 1620   9.260  13.836  10.632 -0.0781 -0.0173  0.0389
  102loPI   GL1 1621   9.438  13.774  10.242  0.1364 -0.0481 -0.0991
  102loPI   GL2 1622   9.770  13.822  10.281 -0.1360  0.0485  0.2993
  102loPI   C1A 1623   9.195  13.654   9.918 -0.2386  0.0083 -0.0720
  102loPI   C2A 1624   9.164  13.512   9.505  0.0188 -0.2679 -0.0639
  102loPI   C3A 1625   9.009  13.527   9.060 -0.2979 -0.0432  0.1394
  102loPI   C4A 1626   8.968  13.293   8.731 -0.1111  0.1568 -0.0826
  102loPI   C5A 1627   8.870  13.075   8.311 -0.1455  0.1146 -0.3132
  102loPI   C6A 1628   8.762  12.619   8.061 -0.2626  0.1644  0.0992
  102loPI   C1B 1629   9.715  13.790   9.809 -0.0551  0.0134  0.0611
  102loPI   C2B 1630   9.644  13.707   9.348 -0.1178  0.3147 -0.0920
  102loPI   C3B 1631   9.524  13.490   8.976  0.1293  0.0818  0.1235
  102loPI   C4B 1632   9.512  13.394   8.524  0.0155  0.0993  0.1156
  103loPI    C1 1633   1.975   3.549  10.830  0.1417  0.2402  0.1165
  103loPI    C2 1634   1.682   3.378  11.041 -0.1374  0.3173 -0.1989
  103loPI    C3 1635   1.964   3.591  11.227 -0.0840 -0.0404  0.1437
  103loPI   PO4 1636   1.940   3.311  10.598  0.2584 -0.3356  0.1178
  103loPI   GL1 1637   2.011   3.069  10.286 -0.0202 -0.1455 -0.0537
  103loPI   GL2 1638   1.748   3.103  10.077  0.2302  0.1380  0.3638
  103loPI   C1A 1639   2.413   3.114  10.018 -0.0352  0.3124  0.0674
  103loPI   C2A 1640   2.384   3.277   9.590 -0.0549 -0.0291  0.2504
  103loPI   C3A 1641   2.505   3.286   9.161 -0.0566  0.0613  0.0065
  103loPI   C4A 1642   2.453   3.092   8.764  0.0313 -0.1915  0.0076
  103loPI   C5A 1643   2.299   2.823   8.610  0.0366  0.0961 -0.1010
  103loPI   C6A 1644   1.977   2.432   8.546 -0.2247 -0.2169  0.1578
  103loPI   C1B 1645   1.948   3.245   9.768 -0.1502  0.1132  0.3464
  103loPI   C2B 1646   1.985   3.288   9.289 -0.1144 -0.1793  0.3071
  103loPI   C3B 1647   2.042   3.318   8.872  0.0599  0.4213 -0.0363
  103loPI   C4B 1648   2.018   3.215   8.431  0.0575  0.1065 -0.2979
  104loPI    C1 1649  15.987   9.863  11.162  0.2131 -0.0913  0.0299
  104loPI    C2 1650  15.966   9.573  10.887  0.3232  0.0217 -0.0991
  104loPI    C3 1651  15.705   9.581  11.190  0.2358 -0.1353 -0.1689
  104loPI   PO4 1652  15.956  10.098  11.054  0.1364 -0.1284  0.2583
  104loPI   GL1 1653  15.747  10.114  10.700 -0.0748 -0.0180 -0.0041
  104loPI   GL2 1654  15.582   9.870  10.768 -0.3155  0.0649  0.2007
  104loPI   C1A 1655  15.661  10.150  10.241 -0.4150  0.1704 -0.0378
  104loPI   C2A 1656  15.743  10.226   9.761  0.3048  0.0423  0.0212
  104loPI   C3A 1657  15.683  10.429   9.369 -0.0695  0.1971  0.1753
  104loPI   C4A 1658  15.573  10.405   8.980  0.2598  0.0369 -0.0715
  104loPI   C5A 1659  15.736  10.464   8.669  0.0340 -0.1066  0.0939
  104loPI   C6A 1660  16.056  10.514   8.348  0.1190  0.1297 -0.2141
  104loPI   C1B 1661  15.400   9.781  10.245  0.4888  0.2128  0.1594
  104loPI   C2B 1662  15.368   9.894   9.747 -0.1236  0.2220 -0.1407
  104loPI   C3B 1663  15.129  10.145   9.372 -0.0223 -0.1362  0.2620
  104loPI   C4B 1664  15.082  10.297   8.989  0.1144 -0.2063  0.0909
  105loPI    C1 1665   0.662  13.570  10.916 -0.1949 -0.0534 -0.1592
  105loPI    C2 1666   0.866  13.537  11.258 -0.0717  0.2079 -0.2053
  105loPI    C3 1667   0.619  13.847  11.201 -0.2835  0.0323 -0.2550
  105loPI   PO4 1668   0.862  13.555  10.776  0.0270  0.0937 -0.5285
  105loPI   GL1 1669   1.138  13.646  10.464  0.0117 -0.0607  0.0606
  105loPI   GL2 1670   0.877  13.896  10.365 -0.3160 -0.0385 -0.1316
  105loPI   C1A 1671   1.127  13.412  10.019  0.3718 -0.2216 -0.1440
  105loPI   C2A 1672   1.134  13.354   9.680  0.4211 -0.1919 -0.2828
  105loPI   C3A 1673   1.123  13.158   9.325  0.0921  0.4215  0.1096
  105loPI   C4A 1674   1.103  12.906   9.019 -0.1291 -0.1899  0.0208
  105loPI   C5A 1675   0.892  12.743   8.649  0.1340 -0.0618  0.0233
  105loPI   C6A 1676   0.886  12.663   8.239 -0.0764  0.0573 -0.0853
  105loPI   C1B 1677   0.759  14.038   9.944  0.2856  0.0510 -0.0794
  105loPI   C2B 1678   0.773  13.975   9.547 -0.2988 -0.4936  0.1043
  105loPI   C3B 1679   0.609  13.921   9.185 -0.0145 -0.0854 -0.2428
  105loPI   C4B 1680   0.586  13.927   8.794 -0.0028  0.0224 -0.0356
  106loPI    C1 1681  10.682   1.148  10.544  0.0984 -0.1238  0.0986
  106loPI    C2 1682  10.914   0.939  10.293  0.1013  0.0399 -0.0363
  106loPI    C3 1683  11.074   1.113  10.615  0.1690  0.1602 -0.1342
  106loPI   PO4 1684  10.512   1.259  10.369  0.0475  0.1403  0.6361
  106loPI   GL1 1685  10.337   1.177   9.955  0.2889 -0.2395  0.0316
  106loPI   GL2 1686  10.636   1.035   9.880 -0.0351  0.1180 -0.2159
  106loPI   C1A 1687  10.332   1.192   9.437 -0.0594  0.0529 -0.0755
  106loPI   C2A 1688  10.348   1.230   9.020  0.0580  0.1174 -0.0189
  106loPI   C3A 1689  10.461   1.013   8.658  0.1244 -0.1304  0.0302
  106loPI   C4A 1690  10.801   0.794   8.333  0.2673  0.4514  0.0226
  106loPI   C5A 1691  11.198   0.820   7.989  0.2649  0.1220 -0.1244
  106loPI   C6A 1692  11.512   0.725   7.706  0.2182 -0.1666  0.0162
  106loPI   C1B 1693  10.796   1.239   9.527  0.2787 -0.2007 -0.0799
  106loPI   C2B 1694  10.794   1.167   9.117  0.0684 -0.0500  0.0675
  106loPI   C3B 1695  11.145   1.293   8.711  0.0433  0.1793 -0.1862
  106loPI   C4B 1696  11.140   1.179   8.350 -0.2490  0.0399 -0.0959
  107loPI    C1 1697   0.737  16.148  10.580  0.0202 -0.1223 -0.0663
  107loPI    C2 1698   0.653  16.414  10.866  0.0778 -0.1899  0.0142
  107loPI    C3 1699   0.369  16.304  10.606 -0.0011 -0.1984  0.1034
  107loPI   PO4 1700   0.981  16.209  10.442 -0.3518 -0.0771  0.0269
  107loPI   GL1 1701   1.082  16.226  10.025 -0.2019 -0.0726  0.1189
  107loPI   GL2 1702   1.339  16.054  10.090  0.0102 -0.0343  0.0436
  107loPI   C1A 1703   1.001  16.241   9.676 -0.1017 -0.3730  0.1283
  107loPI   C2A 1704   0.996  16.329   9.271  0.2644 -0.0162  0.1049
  107loPI   C3A 1705   1.165  16.322   8.859  0.3274 -0.1533 -0.0214
  107loPI   C4A 1706   1.323  16.260   8.384 -0.3507  0.1052 -0.2044
  107loPI   C5A 1707   1.576  16.217   7.943  0.1142 -0.3601  0.0234
  107loPI   C6A 1708   2.034  16.002   7.709  0.0819 -0.1398  0.0546
  107loPI   C1B 1709   1.498  15.976   9.793  0.1504  0.1160  0.2700
  107loPI   C2B 1710   1.481  16.090   9.353  0.0131  0.1310  0.2191
  107loPI   C3B 1711   1.579  16.133   9.007 -0.1970 -0.2013  0.2345
  107loPI   C4B 1712   1.632  15.860   8.673 -0.2728 -0.0633 -0.0388
  108loPI    C1 1713   3.608  10.899  11.081 -0.2451  0.1153  0.2303
  108loPI    C2 1714   3.309  11.145  10.978  0.0558  0.3571 -0.0905
  108loPI    C3 1715   3.591  11.269  11.234  0.1348  0.2975 -0.1484
  108loPI   PO4 1716   3.634  10.763  10.849  0.5336 -0.2117 -0.1277
  108loPI   GL1 1717   3.791  10.552  10.532  0.4152 -0.0880  0.1495
  108loPI   GL2 1718   3.926  10.824  10.404  0.3005  0.1531  0.0543
  108loPI   C1A 1719   3.531  10.408  10.133 -0.0788  0.0528 -0.0151
  108loPI   C2A 1720   3.489  10.449   9.707 -0.1377  0.2308 -0.2230
  108loPI   C3A 1721   3.420  10.390   9.310  0.0240  0.1430  0.1057
  108loPI   C4A 1722   3.535  10.098   8.851  0.2885 -0.0191  0.2622
  108loPI   C5A 1723   3.581   9.891   8.508 -0.1065  0.0680 -0.0678
  108loPI   C6A 1724   3.433   9.714   8.221  0.1963 -0.3237  0.0236
  108loPI   C1B 1725   3.782  10.804   9.893  0.0757 -0.0796  0.0099
  108loPI   C2B 1726   3.578  10.917   9.540 -0.1065 -0.0291  0.2714
  108loPI   C3B 1727   3.711  11.119   9.152  0.1292 -0.0789 -0.2600
  108loPI   C4B 1728   3.826  11.042   8.802  0.1398  0.3082 -0.1515
  109loPI    C1 1729  11.386   4.546  11.104  0.0110 -0.0653 -0.0970
  109loPI    C2 1730  11.677   4.332  11.276 -0.0999 -0.0345  0.1327
  109loPI    C3 1731  11.505   4.632  11.476 -0.1501  0.0791 -0.0780
  109loPI   PO4 1732  11.438   4.674  10.894 -0.0647 -0.2529  0.0120
  109loPI   GL1 1733  11.855   4.879  10.598 -0.1053 -0.0012 -0.0233
  109loPI   GL2 1734  12.135   4.591  10.616  0.2226  0.1829  0.0789
  109loPI   C1A 1735  12.059   5.131  10.288  0.0872 -0.5491 -0.3283
  109loPI   C2A 1736  12.042   5.235   9.948 -0.1032 -0.1801 -0.0722
  109loPI   C3A 1737  11.937   5.457   9.555 -0.0224 -0.2500  0.1479
  109loPI   C4A 1738  12.023   5.563   9.169 -0.1634 -0.3754  0.1575
  109loPI   C5A 1739  12.059   5.594   8.819  0.1096 -0.0314  0.0520
  109loPI   C6A 1740  12.137   6.018   8.561  0.1561 -0.2095 -0.2057
  109loPI   C1B 1741  12.051   4.637  10.204 -0.4427  0.1196  0.1591
  109loPI   C2B 1742  12.026   4.735   9.852  0.2558 -0.1391 -0.1838
  109loPI   C3B 1743  12.022   4.729   9.439  0.2262  0.3966 -0.3256
  109loPI   C4B 1744  11.836   4.423   9.043 -0.3610  0.0674 -0.0475
  110loPI    C1 1745   1.845  15.693  10.621 -0.1193 -0.0294  0.1631
  110loPI    C2 1746   2.154  15.456  10.708 -0.0188 -0.0192 -0.1516
  110loPI    C3 1747   2.193  15.853  10.734 -0.0219 -0.0195 -0.1421
  110loPI   PO4 1748   1.750  15.670  10.369 -0.0598 -0.3946  0.0132
  110loPI   GL1 1749   1.812  15.996  10.178 -0.0337  0.1935 -0.2327
  110loPI   GL2 1750   1.896  16.263  10.188 -0.3238 -0.2642  0.0561
  110loPI   C1A 1751   2.016  15.774   9.811  0.2545  0.2044 -0.1718
  110loPI   C2A 1752   1.899  15.791   9.417 -0.2661  0.1039  0.0140
  110loPI   C3A 1753   2.061  15.865   9.008 -0.0922  0.1456  0.0562
  110loPI   C4A 1754   2.117  15.831   8.616 -0.0066 -0.0896  0.0076
  110loPI   C5A 1755   1.822  15.742   8.162 -0.1974  0.1511  0.0343
  110loPI   C6A 1756   1.502  15.787   7.726 -0.3190 -0.0864 -0.0705
  110loPI   C1B 1757   1.920  16.228   9.715  0.1958  0.2315  0.2488
  110loPI   C2B 1758   1.974  16.287   9.263 -0.1976 -0.3045 -0.2220
  110loPI   C3B 1759   2.079  16.384   8.899 -0.3642  0.0432  0.3510
  110loPI   C4B 1760   2.383  16.384   8.595  0.2140 -0.0368 -0.2953
  111loPI    C1 1761   6.177  12.547  11.071 -0.0570  0.0013 -0.0047
  111loPI    C2 1762   5.803  12.493  11.201 -0.0445 -0.0846 -0.0033
  111loPI    C3 1763   6.095  12.254  11.331 -0.0288 -0.1596 -0.1750
  111loPI   PO4 1764   6.155  12.590  10.877  0.2134 -0.1539  0.0168
  111loPI   GL1 1765   6.266  12.597  10.406  0.1005  0.0213  0.0216
  111loPI   GL2 1766   6.244  12.947  10.475  0.0672 -0.0050  0.3879
  111loPI   C1A 1767   6.088  12.600  10.041  0.0551  0.2846 -0.0202
  111loPI   C2A 1768   6.186  12.595   9.597  0.0746 -0.0362  0.0947
  111loPI   C3A 1769   6.105  12.555   9.197  0.1407 -0.1361 -0.0480
  111loPI   C4A 1770   6.038  12.746   8.806 -0.1404  0.2013 -0.2764
  111loPI   C5A 1771   6.122  13.014   8.441  0.3076 -0.3334  0.0004
  111loPI   C6A 1772   6.008  13.335   8.222  0.0931 -0.1942 -0.2278
  111loPI   C1B 1773   6.382  13.116   9.997  0.0435 -0.0399  0.1083
  111loPI   C2B 1774   6.443  13.002   9.558  0.0541 -0.1415  0.4393
  111loPI   C3B 1775   6.416  12.891   9.078 -0.2830  0.3563  0.0822
  111loPI   C4B 1776   6.621  12.970   8.762  0.2089 -0.0121 -0.3047
  112loPI    C1 1777  13.185  14.976  10.273  0.1451 -0.0429 -0.0682
  112loPI    C2 1778  13.221  15.371  10.227  0.2029  0.0005  0.3216
  112loPI    C3 1779  12.860  15.201  10.213  0.2044  0.0228 -0.1461
  112loPI   PO4 1780  13.537  14.936  10.218  0.1124 -0.0978 -0.0278
  112loPI   GL1 1781  13.878  14.894   9.942  0.0140 -0.1287  0.0761
  112loPI   GL2 1782  13.709  14.634   9.869 -0.0796  0.0271  0.2733
  112loPI   C1A 1783  13.877  15.134   9.569  0.2632 -0.1725 -0.3513
  112loPI   C2A 1784  14.104  15.023   9.130  0.1777  0.1189  0.1535
  112loPI   C3A 1785  14.010  14.942   8.627  0.1708 -0.1895  0.2896
  112loPI   C4A 1786  13.926  14.896   8.161 -0.1081 -0.1324 -0.0189
  112loPI   C5A 1787  13.968  14.586   7.921  0.0962 -0.2889 -0.1453
  112loPI   C6A 1788  13.731  14.223   7.776  0.2052 -0.1573  0.0837
  112loPI   C1B 1789  13.745  14.526   9.389 -0.3697  0.3293  0.1019
  112loPI   C2B 1790  13.850  14.551   8.921  0.0671 -0.0512  0.0996
  112loPI   C3B 1791  13.780  14.469   8.506  0.1196  0.1971 -0.0357
  112loPI   C4B 1792  13.542  14.571   8.101  0.2108 -0.2164 -0.2999
  113loPI    C1 1793   5.208  10.355  10.839 -0.1354 -0.0284  0.1247
  113loPI    C2 1794   5.264  10.582  11.164  0.0230  0.1664 -0.0363
  113loPI    C3 1795   5.108  10.743  10.832 -0.1538 -0.0356 -0.0527
  113loPI   PO4 1796   5.420  10.233  10.707 -0.1851 -0.1737  0.1403
  113loPI   GL1 1797   5.549  10.318  10.328  0.0671 -0.0140 -0.1165
  113loPI   GL2 1798   5.365  10.636  10.413 -0.1125 -0.0458  0.1306
  113loPI   C1A 1799   5.801  10.347   9.868 -0.1241  0.0676 -0.0214
  113loPI   C2A 1800   5.949  10.281   9.516 -0.1842 -0.1711 -0.2533
  113loPI   C3A 1801   6.107  10.285   9.178 -0.1150 -0.0707  0.1520
  113loPI   C4A 1802   6.363  10.090   8.855  0.1791  0.1616  0.0683
  113loPI   C5A 1803   6.764   9.912   8.790 -0.1457  0.2608  0.1639
  113loPI   C6A 1804   6.707   9.762   8.302  0.1005 -0.1367  0.0491
  113loPI   C1B 1805   5.353  10.671  10.008 -0.1349 -0.1372 -0.1322
  113loPI   C2B 1806   5.353  11.011   9.683 -0.1168  0.0749 -0.2702
  113loPI   C3B 1807   5.276  10.961   9.320  0.1116 -0.3702  0.0625
  113loPI   C4B 1808   5.436  11.045   9.098 -0.1643 -0.0182 -0.3605
  114loPI    C1 1809   0.308  14.438  10.681 -0.0122  0.0685  0.0848
  114loPI    C2 1810   0.056  14.501  10.985  0.0300  0.2046  0.0922
  114loPI    C3 1811   0.395  14.297  11.045  0.0274  0.2118  0.1315
  114loPI   PO4 1812   0.283  14.642  10.547  0.2636 -0.1540 -0.1786
  114loPI   GL1 1813   0.429  14.790  10.201  0.0205 -0.3530  0.0940
  114loPI   GL2 1814   0.079  14.919  10.173  0.0418 -0.1526  0.1539
  114loPI   C1A 1815   0.445  14.537   9.952  0.1164  0.1111  0.0417
  114loPI   C2A 1816   0.620  14.445   9.574 -0.1706 -0.3204  0.0284
  114loPI   C3A 1817   0.696  14.429   9.159 -0.1333  0.2151  0.0263
  114loPI   C4A 1818   0.807  14.391   8.737  0.0210 -0.1156 -0.1598
  114loPI   C5A 1819   0.759  14.329   8.321  0.2790 -0.1800  0.1718
  114loPI   C6A 1820   0.620  14.566   8.060 -0.1608  0.1602  0.2022
  114loPI   C1B 1821   0.073  14.819   9.680  0.2357  0.1884 -0.2099
  114loPI   C2B 1822   0.118  14.758   9.218  0.0957  0.4040  0.0420
  114loPI   C3B 1823  -0.001  14.777   8.719 -0.1557  0.3120  0.0543
  114loPI   C4B 1824   0.089  14.906   8.292  0.0756  0.1631 -0.3815
  115loPI    C1 1825   0.867   5.812  10.865 -0.2889  0.0272 -0.0606
  115loPI    C2 1826   0.593   5.983  11.101 -0.1121 -0.1434  0.2749
  115loPI    C3 1827   0.813   5.678  11.238  0.2581  0.0014  0.0179
  115loPI   PO4 1828   0.727   5.779  10.646  0.1784 -0.1293  0.3572
  115loPI   GL1 1829   0.544   5.650  10.247 -0.0306  0.0653 -0.0770
  115loPI   GL2 1830   0.242   5.831  10.179 -0.2300  0.2269 -0.0188
  115loPI   C1A 1831   0.756   5.889   9.918  0.1479  0.0561  0.1358
  115loPI   C2A 1832   0.795   5.925   9.497 -0.1182  0.0172  0.0931
  115loPI   C3A 1833   0.786   5.915   9.022 -0.1151 -0.1996 -0.0887
  115loPI   C4A 1834   0.796   6.035   8.676 -0.0365  0.2804 -0.2651
  115loPI   C5A 1835   0.524   5.974   8.234  0.0341 -0.0604 -0.3722
  115loPI   C6A 1836   0.395   5.591   7.951 -0.2138 -0.1088  0.0218
  115loPI   C1B 1837   0.213   5.752   9.849  0.0595 -0.1731  0.0161
  115loPI   C2B 1838   0.275   5.776   9.458 -0.3141 -0.0818  0.2642
  115loPI   C3B 1839   0.313   5.806   9.071  0.0882  0.2759  0.3330
  115loPI   C4B 1840   0.260   5.773   8.743 -0.0270  0.3461  0.2253
  116loPI    C1 1841   3.551   3.953  11.088  0.0438  0.1439 -0.0830
  116loPI    C2 1842   3.776   4.103  11.382  0.0049  0.2340 -0.0989
  116loPI    C3 1843   3.664   3.720  11.392  0.1518  0.1907 -0.0869
  116loPI   PO4 1844   3.604   4.141  10.859  0.0537  0.1060  0.1734
  116loPI   GL1 1845   3.742   4.066  10.423 -0.0056 -0.1674 -0.1815
  116loPI   GL2 1846   3.480   3.869  10.239 -0.2606  0.1261  0.2668
  116loPI   C1A 1847   3.764   4.310  10.063 -0.0297 -0.2231  0.1804
  116loPI   C2A 1848   3.749   4.559   9.671 -0.1406  0.1816  0.0221
  116loPI   C3A 1849   3.802   4.621   9.232  0.0026 -0.1022  0.1627
  116loPI   C4A 1850   3.883   4.597   8.771 -0.1325 -0.2492  0.0328
  116loPI   C5A 1851   3.931   4.426   8.387  0.1605 -0.0935 -0.0217
  116loPI   C6A 1852   3.949   4.306   7.928 -0.1987  0.1746 -0.0061
  116loPI   C1B 1853   3.548   4.006   9.809 -0.0228 -0.3169 -0.0616
  116loPI   C2B 1854   3.480   4.123   9.440  0.0652  0.0055 -0.0063
  116loPI   C3B 1855   3.564   4.139   9.080 -0.0305  0.1529 -0.1846
  116loPI   C4B 1856   3.481   4.191   8.690  0.2719  0.0207  0.0177
  117loPI    C1 1857  16.953  17.808  10.256  0.3287 -0.0035 -0.3251
  117loPI    C2 1858  17.163  17.910  10.581 -0.1324 -0.0368 -0.0066
  117loPI    C3 1859  17.058  17.529  10.523 -0.1506 -0.0128 -0.1360
  117loPI   PO4 1860  17.094  17.878   9.995 -0.1359  0.2684  0.2430
  117loPI   GL1 1861  17.103  17.718   9.608  0.0946 -0.3692  0.0477
  117loPI   GL2 1862  17.276  17.508   9.441  0.1221 -0.1381 -0.2392
  117loPI   C1A 1863  17.080  17.962   9.256  0.0952  0.1786 -0.3054
  117loPI   C2A 1864  17.200  18.289   8.962  0.2197 -0.1902 -0.1061
  117loPI   C3A 1865  17.301  18.462   8.549  0.2796  0.2747  0.0136
  117loPI   C4A 1866  17.155  18.883   8.418 -0.2043  0.1645 -0.1854
  117loPI   C5A 1867  17.116  19.193   8.147 -0.3924  0.0108 -0.2254
  117loPI   C6A 1868  17.138  19.621   8.081 -0.1720  0.0463  0.1472
  117loPI   C1B 1869  17.405  17.595   9.035  0.4100 -0.0946  0.0342
  117loPI   C2B 1870  17.416  17.872   8.757 -0.2092  0.0618  0.0428
  117loPI   C3B 1871  17.513  18.081   8.360 -0.1740 -0.4098 -0.3634
  117loPI   C4B 1872  17.746  18.407   8.086 -0.4108 -0.1851  0.0951
  118loPI    C1 1873   5.882  11.716  11.165 -0.0606  0.0968 -0.0771
  118loPI    C2 1874   5.653  11.530  11.436  0.1370 -0.0500 -0.0088
  118loPI    C3 1875   5.818  11.884  11.522 -0.1111  0.0852 -0.0806
  118loPI   PO4 1876   5.656  11.775  10.853 -0.1413 -0.2105  0.0025
  118loPI   GL1 1877   5.590  11.929  10.441 -0.2748  0.2273  0.2445
  118loPI   GL2 1878   5.896  12.041  10.388  0.2935 -0.1058  0.0838
  118loPI   C1A 1879   5.423  11.811  10.135 -0.3169  0.0138  0.0018
  118loPI   C2A 1880   5.473  11.811   9.637 -0.3704  0.3011 -0.2378
  118loPI   C3A 1881   5.419  11.811   9.267  0.2705  0.0009  0.2752
  118loPI   C4A 1882   5.575  11.859   8.937 -0.0925 -0.0837  0.1605
  118loPI   C5A 1883   5.659  12.172   8.542  0.0856 -0.1499 -0.1650
  118loPI   C6A 1884   5.830  12.101   8.212  0.1467 -0.4219  0.1091
  118loPI   C1B 1885   5.878  12.071  10.025 -0.0799 -0.0131  0.1543
  118loPI   C2B 1886   5.818  12.234   9.639 -0.0216  0.5762  0.1209
  118loPI   C3B 1887   5.641  12.302   9.153 -0.0537  0.0716 -0.1862
  118loPI   C4B 1888   5.590  12.493   8.883 -0.3022  0.1347  0.1514
  119loPI    C1 1889   3.880  13.671  10.930  0.0434 -0.0933 -0.1097
  119loPI    C2 1890   3.656  13.972  10.792 -0.1210 -0.1001  0.1350
  119loPI    C3 1891   3.907  14.033  11.097  0.1494 -0.1146 -0.0804
  119loPI   PO4 1892   4.052  13.612  10.701 -0.2387 -0.0565  0.2488
  119loPI   GL1 1893   4.090  13.443  10.328 -0.3048 -0.2232 -0.1944
  119loPI   GL2 1894   4.303  13.243  10.148  0.0430 -0.1641  0.1390
  119loPI   C1A 1895   4.062  13.719   9.957  0.3567 -0.3477 -0.1627
  119loPI   C2A 1896   4.045  13.747   9.505 -0.2619 -0.0739  0.0141
  119loPI   C3A 1897   3.829  13.572   9.071  0.1251  0.2518 -0.2151
  119loPI   C4A 1898   3.643  13.763   8.626  0.1457 -0.2925 -0.3728
  119loPI   C5A 1899   3.423  14.097   8.404  0.0283  0.2183  0.1628
  119loPI   C6A 1900   3.135  14.486   8.471  0.0445 -0.0763  0.2537
  119loPI   C1B 1901   4.291  13.323   9.728 -0.2344 -0.3478  0.0119
  119loPI   C2B 1902   4.414  13.471   9.306  0.2401  0.0272  0.1846
  119loPI   C3B 1903   4.277  13.644   8.928 -0.3149 -0.5594 -0.1047
  119loPI   C4B 1904   4.166  13.703   8.466 -0.1872 -0.1770 -0.0758
  120loPI    C1 1905  14.544   5.434  11.163  0.0771 -0.2849 -0.0463
  120loPI    C2 1906  14.206   5.265  11.294 -0.1189  0.1936  0.0873
  120loPI    C3 1907  14.499   5.353  11.552  0.0927 -0.1715 -0.0205
  120loPI   PO4 1908  14.449   5.712  10.986  0.1227 -0.0452 -0.1074
  120loPI   GL1 1909  14.625   5.856  10.539  0.2322  0.1855 -0.1887
  120loPI   GL2 1910  14.887   5.784  10.394  0.3327 -0.0628  0.0839
  120loPI   C1A 1911  14.339   5.850  10.125  0.1781 -0.2028 -0.1682
  120loPI   C2A 1912  14.323   5.667   9.689 -0.2069 -0.0108 -0.2538
  120loPI   C3A 1913  14.271   5.478   9.260 -0.0774  0.0574 -0.3488
  120loPI   C4A 1914  13.837   5.482   9.029  0.2220  0.1687  0.0312
  120loPI   C5A 1915  13.343   5.462   8.885 -0.2482 -0.0403  0.1539
  120loPI   C6A 1916  12.873   5.365   8.700 -0.0255 -0.0680  0.4577
  120loPI   C1B 1917  14.838   5.663   9.946  0.2824  0.0367  0.2723
  120loPI   C2B 1918  14.806   5.570   9.584 -0.0768 -0.0909 -0.0922
  120loPI   C3B 1919  14.741   5.626   9.115 -0.2579  0.1906 -0.1812
  120loPI   C4B 1920  14.917   5.776   8.758  0.1009 -0.0697 -0.0581
  121loPI    C1 1921   5.160   3.549  10.804  0.1488 -0.1695  0.2059
  121loPI    C2 1922   5.272   3.266  10.544 -0.0700 -0.1017  0.0352
  121loPI    C3 1923   5.435   3.631  10.525 -0.2626 -0.0242 -0.1675
  121loPI   PO4 1924   4.895   3.579  10.753  0.0286  0.1841  0.3421
  121loPI   GL1 1925   4.944   3.735  10.321  0.2942  0.3004  0.0103
  121loPI   GL2 1926   4.726   3.661  10.254  0.2312  0.3061  0.0095
  121loPI   C1A 1927   5.280   3.545  10.071 -0.1173 -0.0911  0.0243
  121loPI   C2A 1928   5.305   3.633   9.605  0.0318 -0.2235 -0.0813
  121loPI   C3A 1929   5.295   3.447   9.189 -0.3715  0.0666  0.1318
  121loPI   C4A 1930   5.214   3.282   8.850  0.1958  0.0578  0.0344
  121loPI   C5A 1931   5.208   3.089   8.464  0.4629  0.0905 -0.3207
  121loPI   C6A 1932   5.310   3.251   8.068  0.0405 -0.1709  0.1088
  121loPI   C1B 1933   4.424   3.633   9.789 -0.0784 -0.1185  0.4063
  121loPI   C2B 1934   4.302   3.731   9.335  0.1093 -0.0207 -0.2304
  121loPI   C3B 1935   4.368   3.696   8.923  0.0004 -0.1872 -0.1186
  121loPI   C4B 1936   4.200   3.678   8.527  0.0302 -0.2394 -0.1428
  122loPI    C1 1937   3.179  17.565  10.529  0.2635 -0.0437  0.2563
  122loPI    C2 1938   3.013  17.856  10.748 -0.0928 -0.1911  0.1898
  122loPI    C3 1939   3.347  17.675  10.874  0.2790  0.4128  0.1100
  122loPI   PO4 1940   3.182  17.710  10.248 -0.2765 -0.2571 -0.2368
  122loPI   GL1 1941   3.326  17.961   9.957 -0.3385 -0.1349  0.0007
  122loPI   GL2 1942   2.972  18.107   9.909 -0.1946  0.0013 -0.1715
  122loPI   C1A 1943   3.595  17.808   9.618 -0.0571  0.3395 -0.1173
  122loPI   C2A 1944   3.556  17.847   9.244 -0.2305 -0.0374 -0.0759
  122loPI   C3A 1945   3.755  17.987   8.857 -0.0883  0.0599 -0.2550
  122loPI   C4A 1946   3.950  18.121   8.486 -0.1628  0.1868 -0.1679
  122loPI   C5A 1947   3.966  17.849   8.080 -0.4149 -0.0196 -0.0971
  122loPI   C6A 1948   4.388  17.842   7.933 -0.0055  0.0515  0.0480
  122loPI   C1B 1949   2.605  18.068   9.495  0.1126 -0.1218  0.4425
  122loPI   C2B 1950   2.490  18.186   9.103 -0.1540  0.2294 -0.0717
  122loPI   C3B 1951   2.559  18.210   8.656 -0.1470 -0.0812  0.1784
  122loPI   C4B 1952   2.474  18.452   8.263 -0.0019 -0.0521 -0.3023
  123loPI    C1 1953   9.772   4.861  10.846 -0.1224 -0.0935 -0.0224
  123loPI    C2 1954   9.464   5.063  10.689 -0.0567  0.0513  0.0332
  123loPI    C3 1955   9.638   5.193  11.025  0.1710  0.0634 -0.0877
  123loPI   PO4 1956   9.982   4.803  10.564  0.0573 -0.0491 -0.0784
  123loPI   GL1 1957  10.020   4.918  10.189 -0.3479 -0.0311  0.1868
  123loPI   GL2 1958   9.713   5.132  10.219 -0.1021 -0.1380  0.1483
  123loPI   C1A 1959  10.165   5.052   9.761  0.0178 -0.4077 -0.0743
  123loPI   C2A 1960  10.183   5.233   9.285 -0.0109  0.1950 -0.3598
  123loPI   C3A 1961   9.988   5.267   8.858 -0.0039  0.0251  0.0102
  123loPI   C4A 1962   9.812   5.469   8.474  0.2267  0.0192 -0.1670
  123loPI   C5A 1963   9.977   5.528   8.051  0.2038  0.0538  0.0647
  123loPI   C6A 1964  10.409   5.351   7.935  0.1097  0.1113 -0.1141
  123loPI   C1B 1965   9.686   5.296   9.816  0.0600  0.1548 -0.0641
  123loPI   C2B 1966   9.608   5.501   9.466  0.2928 -0.2004  0.0686
  123loPI   C3B 1967   9.604   5.588   9.023 -0.0473  0.0896 -0.1115
  123loPI   C4B 1968   9.415   5.735   8.680  0.2735  0.0304  0.1645
  124loPI    C1 1969   8.356  17.189  10.659  0.1366 -0.0554  0.1702
  124loPI    C2 1970   8.256  17.505  10.883 -0.0609  0.0781 -0.1007
  124loPI    C3 1971   8.151  17.137  10.998 -0.1856  0.1479  0.0116
  124loPI   PO4 1972   8.277  17.168  10.456  0.1401 -0.1401 -0.0683
  124loPI   GL1 1973   8.326  17.087   9.933 -0.0176 -0.0341  0.2194
  124loPI   GL2 1974   8.214  16.737   9.831  0.1328 -0.2345 -0.0364
  124loPI   C1A 1975   8.334  17.234   9.581  0.0903 -0.1666  0.2038
  124loPI   C2A 1976   8.593  17.432   9.321  0.2127  0.0481 -0.0506
  124loPI   C3A 1977   8.903  17.303   8.919  0.0129 -0.2033 -0.0111
  124loPI   C4A 1978   9.070  17.099   8.629 -0.1152  0.1735  0.0115
  124loPI   C5A 1979   9.359  17.132   8.301 -0.1258  0.0471 -0.2645
  124loPI   C6A 1980   9.637  17.332   8.028 -0.0443 -0.0891 -0.1053
  124loPI   C1B 1981   8.297  16.756   9.339  0.3573  0.0421  0.0848
  124loPI   C2B 1982   8.205  17.103   9.068 -0.0114  0.1175  0.0098
  124loPI   C3B 1983   8.368  17.296   8.719  0.0110 -0.1689  0.0735
  124loPI   C4B 1984   8.741  17.483   8.465  0.0180 -0.2082  0.1322
  125loPI    C1 1985  11.813  17.109  10.051 -0.1169  0.0525  0.0731
  125loPI    C2 1986  12.156  17.110  10.256 -0.0508 -0.1947 -0.0331
  125loPI    C3 1987  12.142  17.266   9.888 -0.0588 -0.1595 -0.0177
  125loPI   PO4 1988  11.739  16.966  10.038 -0.3978  0.0188 -0.1483
  125loPI   GL1 1989  11.733  16.754   9.676  0.2398 -0.0618  0.1058
  125loPI   GL2 1990  11.908  16.490   9.532  0.1770 -0.0314 -0.2091
  125loPI   C1A 1991  11.764  16.837   9.246  0.0693 -0.1351 -0.0568
  125loPI   C2A 1992  11.414  16.866   8.980  0.1497  0.1053 -0.3158
  125loPI   C3A 1993  11.271  17.070   8.617  0.1940 -0.1970 -0.1107
  125loPI   C4A 1994  11.016  16.900   8.242  0.1389  0.1073 -0.1836
  125loPI   C5A 1995  10.724  16.678   8.038  0.1135  0.2868 -0.1641
  125loPI   C6A 1996  10.639  16.300   8.054 -0.3309 -0.1574  0.1388
  125loPI   C1B 1997  12.208  16.937   9.388  0.0196 -0.0098 -0.1342
  125loPI   C2B 1998  12.355  17.275   9.082  0.3238  0.1850  0.0225
  125loPI   C3B 1999  12.399  17.160   8.599  0.0866  0.1497 -0.2056
  125loPI   C4B 2000  12.303  17.139   8.157  0.0853  0.0316 -0.1007
  126loPI    C1 2001   1.429  13.338  10.801 -0.0370 -0.0228 -0.2305
  126loPI    C2 2002   1.548  13.714  10.731  0.2779 -0.0816 -0.0325
  126loPI    C3 2003   1.293  13.638  11.029  0.0293  0.0002 -0.2209
  126loPI   PO4 2004   1.537  13.202  10.540 -0.3321  0.1726 -0.0245
  126loPI   GL1 2005   1.733  13.001  10.134  0.2121 -0.2712  0.0751
  126loPI   GL2 2006   1.969  13.234  10.150 -0.1808  0.0210  0.1446
  126loPI   C1A 2007   1.666  13.246   9.752 -0.1658  0.2807  0.0616
  126loPI   C2A 2008   1.540  13.464   9.368  0.0362  0.1153  0.3521
  126loPI   C3A 2009   1.412  13.278   8.997  0.3865  0.0778 -0.0742
  126loPI   C4A 2010   1.219  13.166   8.620  0.0328  0.2653  0.1180
  126loPI   C5A 2011   0.887  13.171   8.376 -0.0435 -0.0137 -0.0764
  126loPI   C6A 2012   0.523  12.960   8.306  0.0967 -0.2726  0.1302
  126loPI   C1B 2013   2.069  13.577   9.948 -0.1448  0.2032  0.1166
  126loPI   C2B 2014   1.836  13.718   9.707  0.4464  0.1065  0.0699
  126loPI   C3B 2015   1.773  13.922   9.247  0.0790  0.0769  0.1015
  126loPI   C4B 2016   1.491  13.770   8.952 -0.0460  0.2168  0.1829
  127loPI    C1 2017   6.817   8.764  10.867 -0.1922 -0.0886 -0.0058
  127loPI    C2 2018   7.059   8.456  10.788 -0.0466  0.0193  0.0150
  127loPI    C3 2019   7.038   8.603  11.159 -0.1704 -0.0115  0.0205
  127loPI   PO4 2020   6.923   8.879  10.597 -0.1701 -0.4106 -0.0806
  127loPI   GL1 2021   6.812   8.866  10.141  0.1184 -0.1830  0.1180
  127loPI   GL2 2022   6.624   9.032  10.262  0.3387  0.1369 -0.1419
  127loPI   C1A 2023   6.867   9.216   9.900  0.2242 -0.1170  0.4045
  127loPI   C2A 2024   7.000   9.161   9.479 -0.0445  0.2212 -0.2700
  127loPI   C3A 2025   7.306   9.159   9.175 -0.0281 -0.1782  0.2421
  127loPI   C4A 2026   7.409   9.168   8.818 -0.0092  0.0005  0.0630
  127loPI   C5A 2027   7.452   9.217   8.356 -0.3765 -0.2969 -0.3035
  127loPI   C6A 2028   7.370   9.566   8.081  0.0885  0.0882  0.0637
  127loPI   C1B 2029   6.306   9.139   9.899 -0.0220 -0.0713 -0.0070
  127loPI   C2B 2030   6.439   9.109   9.528  0.0029 -0.1203 -0.0354
  127loPI   C3B 2031   6.571   9.276   9.183  0.2904  0.0510 -0.3331
  127loPI   C4B 2032   6.605   9.358   8.716  0.0516  0.0999  0.0357
  128loPI    C1 2033   4.758   8.551  11.339  0.0675 -0.1050 -0.0756
  128loPI    C2 2034   5.135   8.683  11.320 -0.0033  0.0882 -0.1611
  128loPI    C3 2035   4.899   8.796  11.622 -0.0275  0.0589 -0.1689
  128loPI   PO4 2036   4.673   8.615  11.087 -0.0072 -0.2240 -0.1163
  128loPI   GL1 2037   4.598   8.433  10.592  0.0101  0.0678  0.1388
  128loPI   GL2 2038   4.896   8.574  10.416 -0.0246 -0.1938  0.2115
  128loPI   C1A 2039   4.371   8.569  10.261 -0.1472  0.1649  0.0903
  128loPI   C2A 2040   4.309   8.580   9.837 -0.1765 -0.1790 -0.0229
  128loPI   C3A 2041   4.322   8.511   9.433 -0.1191  0.0599  0.0007
  128loPI   C4A 2042   4.448   8.661   9.039 -0.0204 -0.1282 -0.0246
  128loPI   C5A 2043   4.636   8.548   8.615 -0.0436  0.2545 -0.0152
  128loPI   C6A 2044   4.847   8.216   8.467 -0.0644  0.2247  0.2160
  128loPI   C1B 2045   4.702   8.789   9.988 -0.1563 -0.1017 -0.2719
  128loPI   C2B 2046   4.608   8.996   9.520  0.0280 -0.0119  0.1604
  128loPI   C3B 2047   4.669   9.179   9.118 -0.1450  0.1754  0.2060
  128loPI   C4B 2048   4.661   9.036   8.741 -0.0445  0.1042 -0.2563
  129loPI    C1 2049   4.260   2.323  10.812 -0.0708  0.1834  0.0130
  129loPI    C2 2050   4.327   2.714  10.864  0.1010  0.1468  0.0746
  129loPI    C3 2051   4.465   2.450  11.132  0.0031  0.0421  0.0228
  129loPI   PO4 2052   3.932   2.263  10.703 -0.0838  0.2637  0.1924
  129loPI   GL1 2053   3.875   2.123  10.197 -0.2370  0.0800 -0.2948
  129loPI   GL2 2054   4.158   2.022  10.266  0.0248  0.2145 -0.1948
  129loPI   C1A 2055   3.572   2.152   9.779  0.1734  0.0523  0.1611
  129loPI   C2A 2056   3.429   2.298   9.446  0.0309 -0.0294  0.2633
  129loPI   C3A 2057   3.519   2.376   8.979 -0.1879  0.0452 -0.1146
  129loPI   C4A 2058   3.499   2.042   8.653 -0.2294  0.0125 -0.0230
  129loPI   C5A 2059   3.152   1.843   8.404  0.2024  0.0576  0.1836
  129loPI   C6A 2060   3.137   1.613   8.053  0.1254 -0.0051  0.1285
  129loPI   C1B 2061   4.018   2.091   9.754 -0.0622 -0.2292 -0.0037
  129loPI   C2B 2062   3.834   2.010   9.341 -0.2354 -0.3439  0.1180
  129loPI   C3B 2063   3.493   1.890   9.142 -0.1246  0.0163 -0.1978
  129loPI   C4B 2064   3.156   1.825   8.964  0.1701  0.1945  0.0094
  130loPI    C1 2065  12.803   9.430  11.079 -0.3118  0.0863 -0.0482
  130loPI    C2 2066  12.979   9.431  11.438 -0.0671  0.2153 -0.1657
  130loPI    C3 2067  12.665   9.193  11.369 -0.0390  0.0999  0.0956
  130loPI   PO4 2068  12.950   9.626  10.900 -0.2956  0.2231  0.2768
  130loPI   GL1 2069  12.985   9.361  10.529 -0.0479 -0.0141  0.1860
  130loPI   GL2 2070  13.240   9.610  10.520 -0.2820 -0.1734  0.1328
  130loPI   C1A 2071  12.835   9.360  10.243 -0.2376  0.1150 -0.0054
  130loPI   C2A 2072  12.768   9.499   9.949 -0.2087 -0.1402  0.0648
  130loPI   C3A 2073  12.811   9.415   9.575  0.2546 -0.2286  0.1728
  130loPI   C4A 2074  12.783   9.340   9.137 -0.2322  0.3919 -0.0669
  130loPI   C5A 2075  12.774   9.131   8.677 -0.1919 -0.0272  0.0095
  130loPI   C6A 2076  12.625   9.228   8.290  0.1808  0.0384 -0.1455
  130loPI   C1B 2077  13.396   9.467  10.103 -0.2355  0.1434  0.2019
  130loPI   C2B 2078  13.423   9.414   9.691 -0.3654 -0.0095  0.3210
  130loPI   C3B 2079  13.400   9.457   9.277 -0.1527  0.1925 -0.1378
  130loPI   C4B 2080  13.355   9.413   8.764  0.1900 -0.1373  0.0878
  131loPI    C1 2081  16.908   5.745  10.857 -0.1904 -0.0503  0.0254
  131loPI    C2 2082  16.641   5.738  11.155  0.0377  0.2296  0.2426
  131loPI    C3 2083  16.904   6.039  11.129  0.3229 -0.0317  0.0241
  131loPI   PO4 2084  16.861   5.554  10.677  0.1636  0.0192  0.1617
  131loPI   GL1 2085  17.142   5.254  10.414 -0.2108 -0.1224 -0.1138
  131loPI   GL2 2086  17.078   5.020  10.171 -0.1257  0.5030  0.1059
  131loPI   C1A 2087  17.329   5.373   9.953  0.0614 -0.0401 -0.0976
  131loPI   C2A 2088  17.402   5.490   9.601 -0.1515  0.2545  0.0043
  131loPI   C3A 2089  17.466   5.425   9.222  0.0777 -0.0036 -0.0058
  131loPI   C4A 2090  17.454   5.433   8.771  0.0947 -0.1344  0.0526
  131loPI   C5A 2091  17.127   5.005   8.602  0.3148  0.1761 -0.0102
  131loPI   C6A 2092  17.309   4.703   8.829  0.0158  0.0020  0.2114
  131loPI   C1B 2093  16.704   5.024   9.875 -0.0878  0.3054 -0.1865
  131loPI   C2B 2094  16.326   5.084   9.789  0.0241  0.3328  0.2322
  131loPI   C3B 2095  16.227   5.096   9.296  0.0520  0.0260  0.0081
  131loPI   C4B 2096  16.236   5.023   8.741  0.3003 -0.1984 -0.1897
  132loPI    C1 2097   8.310   3.057  10.957  0.0435 -0.1222 -0.0235
  132loPI    C2 2098   8.507   2.876  11.255  0.0737 -0.1163 -0.0398
  132loPI    C3 2099   8.132   3.004  11.311  0.1613  0.0981  0.0706
  132loPI   PO4 2100   8.334   2.935  10.713 -0.0031 -0.0538 -0.2359
  132loPI   GL1 2101   8.633   3.048  10.303 -0.2650  0.0165 -0.1056
  132loPI   GL2 2102   8.436   3.288  10.357  0.1002 -0.0391 -0.2104
  132loPI   C1A 2103   8.837   3.063   9.925  0.0954 -0.0700  0.0259
  132loPI   C2A 2104   8.906   3.287   9.515 -0.2524 -0.0985  0.1624
  132loPI   C3A 2105   8.784   3.481   9.164  0.0135 -0.0907  0.1069
  132loPI   C4A 2106   8.615   3.405   8.852 -0.0319 -0.1529 -0.1789
  132loPI   C5A 2107   8.396   3.595   8.501  0.2386  0.1783  0.1430
  132loPI   C6A 2108   8.073   3.429   8.263  0.2631 -0.1705 -0.0088
  132loPI   C1B 2109   8.472   3.443   9.881  0.1149  0.0469 -0.0032
  132loPI   C2B 2110   8.407   3.642   9.535 -0.2332 -0.2339 -0.0038
  132loPI   C3B 2111   8.369   3.900   9.279  0.1520 -0.0047 -0.0036
  132loPI   C4B 2112   8.287   4.215   8.994  0.1732  0.2099 -0.0663
  133loPI    C1 2113  15.234  10.689  11.004 -0.1397 -0.2740  0.2610
  133loPI    C2 2114  15.327  10.348  10.817  0.1522 -0.0042 -0.1002
  133loPI    C3 2115  15.597  10.529  11.050  0.0869  0.1105 -0.1122
  133loPI   PO4 2116  15.143  10.787  10.825  0.2133 -0.1751  0.0094
  133loPI   GL1 2117  14.921  10.825  10.510 -0.1523  0.1941 -0.1241
  133loPI   GL2 2118  14.527  10.985  10.355 -0.3800 -0.0239 -0.0903
  133loPI   C1A 2119  14.927  10.701  10.118 -0.0829 -0.0827 -0.0677
  133loPI   C2A 2120  14.749  10.636   9.610  0.4430  0.1265  0.3816
  133loPI   C3A 2121  14.794  10.618   9.224 -0.0292 -0.1553 -0.0660
  133loPI   C4A 2122  14.750  10.580   8.824 -0.1467 -0.1511 -0.0391
  133loPI   C5A 2123  14.677  10.301   8.492  0.1401  0.0843  0.1532
  133loPI   C6A 2124  14.755   9.781   8.353  0.0317 -0.1438 -0.0259
  133loPI   C1B 2125  14.448  10.988   9.861  0.2748 -0.1167  0.1653
  133loPI   C2B 2126  14.424  10.991   9.406 -0.5797  0.0919  0.2484
  133loPI   C3B 2127  14.483  10.961   9.015  0.1228 -0.1685 -0.0382
  133loPI   C4B 2128  14.243  10.936   8.619  0.0150 -0.0630 -0.1321
  134loPI    C1 2129  16.536   2.108  10.518  0.3840  0.1995 -0.0848
  134loPI    C2 2130  16.572   1.799  10.771 -0.2613  0.1268 -0.0649
  134loPI    C3 2131  16.608   2.174  10.906  0.1852  0.0738 -0.0247
  134loPI   PO4 2132  16.305   2.094  10.328 -0.0574 -0.0516  0.1732
  134loPI   GL1 2133  16.104   1.976   9.995 -0.0616  0.4208  0.1843
  134loPI   GL2 2134  16.203   1.639   9.989 -0.0340 -0.1165  0.2063
  134loPI   C1A 2135  16.013   2.287   9.774  0.0316  0.1393 -0.2127
  134loPI   C2A 2136  15.932   2.272   9.309 -0.3962 -0.0915 -0.1756
  134loPI   C3A 2137  16.043   2.275   8.910  0.2237 -0.2037  0.2554
  134loPI   C4A 2138  15.964   2.385   8.591 -0.0136 -0.0432  0.2678
  134loPI   C5A 2139  15.867   2.518   8.194  0.0649 -0.0530  0.2061
  134loPI   C6A 2140  15.907   2.805   7.862 -0.0882 -0.0496 -0.1689
  134loPI   C1B 2141  16.188   1.819   9.533  0.2506  0.2376  0.1871
  134loPI   C2B 2142  16.160   1.785   9.065 -0.0863  0.1411 -0.1094
  134loPI   C3B 2143  16.540   1.613   8.762 -0.4222  0.2336 -0.0999
  134loPI   C4B 2144  16.805   1.404   8.427  0.1004 -0.1143  0.2069
  135loPI    C1 2145  11.396   7.694  11.352  0.2066  0.1369 -0.0257
  135loPI    C2 2146  11.151   7.817  11.061 -0.1216 -0.1892  0.1049
  135loPI    C3 2147  11.100   7.949  11.435  0.2528  0.1707  0.0361
  135loPI   PO4 2148  11.683   7.758  11.203 -0.2258  0.3302  0.2190
  135loPI   GL1 2149  11.548   7.737  10.727  0.1993 -0.0991 -0.0080
  135loPI   GL2 2150  11.364   7.564  10.603  0.0675  0.3436  0.1409
  135loPI   C1A 2151  11.861   7.866  10.365 -0.1712  0.2655  0.1230
  135loPI   C2A 2152  11.760   7.878   9.934  0.1352  0.0382 -0.2439
  135loPI   C3A 2153  11.692   7.897   9.474  0.1946 -0.3244  0.1118
  135loPI   C4A 2154  11.676   7.871   9.111  0.2297 -0.1104 -0.0060
  135loPI   C5A 2155  11.641   7.924   8.628  0.1847  0.0596 -0.1545
  135loPI   C6A 2156  11.907   7.976   8.348 -0.2216  0.3220  0.1291
  135loPI   C1B 2157  11.358   7.665  10.213  0.0289 -0.0641 -0.0409
  135loPI   C2B 2158  11.151   7.759   9.746  0.1894 -0.1589 -0.0146
  135loPI   C3B 2159  11.197   7.794   9.275  0.1158  0.1232 -0.0661
  135loPI   C4B 2160  11.224   7.734   8.844 -0.1779  0.0934 -0.0940
  136loPI    C1 2161  14.880  15.429  10.177 -0.1290 -0.0674 -0.0305
  136loPI    C2 2162  14.625  15.121  10.174 -0.0707 -0.1160 -0.0103
  136loPI    C3 2163  14.872  15.174  10.484 -0.1472  0.0063  0.0305
  136loPI   PO4 2164  14.706  15.637  10.178  0.1102  0.1858 -0.2091
  136loPI   GL1 2165  14.309  15.584   9.838 -0.2228  0.2621  0.0861
  136loPI   GL2 2166  14.335  15.216   9.828  0.0494 -0.2968  0.1167
  136loPI   C1A 2167  14.225  15.577   9.422  0.1428 -0.1279  0.3195
  136loPI   C2A 2168  14.418  15.468   9.005  0.0016  0.1469  0.0636
  136loPI   C3A 2169  14.528  15.297   8.663  0.3308 -0.1999 -0.1867
  136loPI   C4A 2170  14.434  15.015   8.248  0.3554 -0.2106 -0.0418
  136loPI   C5A 2171  14.413  14.766   7.956 -0.2157 -0.0798 -0.0878
  136loPI   C6A 2172  14.431  14.669   7.537 -0.0482 -0.1542 -0.0246
  136loPI   C1B 2173  14.488  15.144   9.381 -0.1385 -0.0289  0.0053
  136loPI   C2B 2174  14.584  14.965   9.038  0.1153  0.1971  0.1139
  136loPI   C3B 2175  14.745  14.865   8.564  0.4262  0.1710 -0.2924
  136loPI   C4B 2176  14.994  14.907   8.281  0.0151  0.1025  0.1894
  137loPI    C1 2177   9.311   4.129  10.866 -0.1274  0.1220 -0.1206
  137loPI    C2 2178   9.030   4.023  11.131 -0.0639  0.0687 -0.0741
  137loPI    C3 2179   9.387   4.151  11.258  0.0246 -0.1134 -0.1346
  137loPI   PO4 2180   9.163   4.157  10.661  0.0792  0.0284 -0.0701
  137loPI   GL1 2181   9.183   4.319  10.297 -0.0534 -0.2012  0.2771
  137loPI   GL2 2182   8.890   4.430  10.207 -0.0666  0.0613  0.0292
  137loPI   C1A 2183   9.217   4.186   9.941  0.2010  0.0254  0.2188
  137loPI   C2A 2184   9.143   4.260   9.563 -0.0117 -0.1013  0.1926
  137loPI   C3A 2185   9.206   4.259   9.123 -0.3132  0.0604  0.2438
  137loPI   C4A 2186   9.150   4.245   8.749  0.0656  0.0339 -0.1272
  137loPI   C5A 2187   8.980   4.204   8.349 -0.1230 -0.3353 -0.4383
  137loPI   C6A 2188   9.084   4.386   7.921  0.2577  0.3587 -0.1212
  137loPI   C1B 2189   8.686   4.352   9.831 -0.0026  0.0197  0.3609
  137loPI   C2B 2190   8.610   4.432   9.410 -0.4245  0.2490  0.1762
  137loPI   C3B 2191   8.794   4.521   9.011 -0.1906  0.0908 -0.1387
  137loPI   C4B 2192   8.740   4.620   8.559  0.2018 -0.1219  0.0683
  138loPI    C1 2193   4.486  18.019  10.404 -0.0920  0.1855  0.1696
  138loPI    C2 2194   4.125  17.874  10.495 -0.0657  0.0619  0.0800
  138loPI    C3 2195   4.451  17.718  10.665 -0.0305 -0.0462 -0.0837
  138loPI   PO4 2196   4.523  18.351  10.466  0.0657  0.3152  0.0914
  138loPI   GL1 2197   4.332  18.604  10.240  0.1400  0.0855  0.3605
  138loPI   GL2 2198   4.364  18.942  10.173  0.2896  0.0952 -0.2714
  138loPI   C1A 2199   4.302  18.429   9.832 -0.3238  0.2044  0.2514
  138loPI   C2A 2200   4.449  18.577   9.448  0.0485 -0.1351 -0.2059
  138loPI   C3A 2201   4.640  18.592   9.132 -0.2515  0.1164  0.3533
  138loPI   C4A 2202   4.800  18.652   8.727  0.0456 -0.1464  0.1529
  138loPI   C5A 2203   4.914  18.422   8.273 -0.0983  0.3455 -0.0601
  138loPI   C6A 2204   4.915  18.030   8.017 -0.0796  0.0043  0.0838
  138loPI   C1B 2205   4.422  19.018   9.726 -0.2262  0.0880 -0.2773
  138loPI   C2B 2206   4.488  19.042   9.228  0.3480 -0.0032 -0.3603
  138loPI   C3B 2207   4.502  19.034   8.729  0.0322 -0.0804  0.0455
  138loPI   C4B 2208   4.792  19.090   8.443  0.0212  0.0798  0.0136
  139loPI    C1 2209   9.984   1.039  10.366  0.1778  0.0666  0.0010
  139loPI    C2 2210  10.047   0.714  10.590 -0.0762 -0.0214 -0.0519
  139loPI    C3 2211  10.187   1.069  10.709  0.3077 -0.1675 -0.0527
  139loPI   PO4 2212   9.962   0.892  10.092  0.0176  0.1774 -0.1726
  139loPI   GL1 2213  10.094   0.637   9.858  0.0561 -0.0951  0.0503
  139loPI   GL2 2214   9.819   0.553   9.717 -0.2537  0.1507 -0.1451
  139loPI   C1A 2215  10.341   0.746   9.555 -0.0012  0.2154 -0.0445
  139loPI   C2A 2216  10.412   0.736   9.116  0.0374  0.1953 -0.0998
  139loPI   C3A 2217  10.789   0.691   8.837  0.0474 -0.2152 -0.2370
  139loPI   C4A 2218  11.189   0.790   8.657 -0.1727 -0.2537  0.0036
  139loPI   C5A 2219  11.574   1.025   8.863 -0.1933 -0.1591  0.0702
  139loPI   C6A 2220  11.967   0.992   8.922 -0.0232  0.0267  0.0506
  139loPI   C1B 2221   9.850   0.404   9.354  0.0901 -0.0171  0.2651
  139loPI   C2B 2222  10.130   0.386   9.023  0.0455  0.0510 -0.0311
  139loPI   C3B 2223  10.319   0.519   8.636  0.2186 -0.0179  0.2426
  139loPI   C4B 2224  10.406   0.348   8.231 -0.0065 -0.0200  0.0866
  140loPI    C1 2225   0.156  11.240  11.061  0.0503  0.1092  0.0747
  140loPI    C2 2226  -0.045  11.377  11.379 -0.0528 -0.0931  0.0986
  140loPI    C3 2227   0.153  11.030  11.402  0.1485  0.0151  0.0182
  140loPI   PO4 2228  -0.054  11.295  10.867  0.2321 -0.0726 -0.1130
  140loPI   GL1 2229  -0.110  11.328  10.398 -0.0991  0.0003  0.0086
  140loPI   GL2 2230  -0.013  11.670  10.405 -0.0474  0.1987 -0.0690
  140loPI   C1A 2231  -0.020  11.171  10.037 -0.0794  0.0214  0.0523
  140loPI   C2A 2232  -0.064  11.133   9.644  0.2086 -0.1375 -0.0932
  140loPI   C3A 2233   0.063  10.893   9.204  0.1510  0.1729 -0.0137
  140loPI   C4A 2234   0.119  10.655   8.877  0.2971 -0.1568 -0.3672
  140loPI   C5A 2235   0.491  10.520   8.667 -0.2525 -0.1987  0.1872
  140loPI   C6A 2236   0.884  10.383   8.439 -0.2954  0.0484  0.1666
  140loPI   C1B 2237   0.246  11.660  10.088 -0.0275  0.0827 -0.2151
  140loPI   C2B 2238   0.438  11.541   9.683  0.1620 -0.1235  0.0396
  140loPI   C3B 2239   0.700  11.547   9.339 -0.0868 -0.1074 -0.0304
  140loPI   C4B 2240   0.660  11.458   8.863  0.1255  0.0204  0.1995
  141loPI    C1 2241  17.344  10.905  10.897  0.0860  0.0505  0.1748
  141loPI    C2 2242  17.595  11.025  11.185  0.2126  0.0120  0.0813
  141loPI    C3 2243  17.498  10.638  11.152 -0.0531  0.0593  0.2692
  141loPI   PO4 2244  17.501  10.981  10.654  0.0237 -0.0030 -0.0501
  141loPI   GL1 2245  17.525  11.093  10.225 -0.1295 -0.2110 -0.0910
  141loPI   GL2 2246  17.256  10.981  10.158  0.2198  0.0042  0.1212
  141loPI   C1A 2247  17.357  11.245   9.774 -0.2127 -0.1834  0.2691
  141loPI   C2A 2248  17.340  11.424   9.335 -0.0846  0.0274  0.3136
  141loPI   C3A 2249  17.366  11.658   8.964  0.0883  0.1770  0.2405
  141loPI   C4A 2250  17.467  11.701   8.503  0.1122  0.2553 -0.0932
  141loPI   C5A 2251  17.644  11.710   8.078 -0.1910  0.0546  0.0714
  141loPI   C6A 2252  18.016  11.490   7.809  0.1237 -0.0072  0.1066
  141loPI   C1B 2253  17.159  10.737   9.794 -0.0221  0.0704  0.0144
  141loPI   C2B 2254  17.129  10.631   9.322 -0.0051  0.0219 -0.2567
  141loPI   C3B 2255  17.245  10.905   8.962  0.1498 -0.0820 -0.1392
  141loPI   C4B 2256  17.379  11.201   8.722  0.0168 -0.0246  0.0413
  142loPI    C1 2257   8.023  10.393  11.172 -0.0132  0.1722  0.4268
  142loPI    C2 2258   8.310  10.164  11.332  0.0394  0.1372  0.2832
  142loPI    C3 2259   7.966  10.219  11.528  0.0024 -0.1145  0.2917
  142loPI   PO4 2260   7.973  10.315  10.908  0.0442 -0.2196 -0.0307
  142loPI   GL1 2261   8.145  10.273  10.507  0.0558  0.1313  0.0235
  142loPI   GL2 2262   8.373  10.477  10.444  0.0607  0.1567  0.0272
  142loPI   C1A 2263   8.134  10.176  10.088  0.1373 -0.0530 -0.0651
  142loPI   C2A 2264   8.310  10.209   9.681  0.2110 -0.2120  0.0646
  142loPI   C3A 2265   8.480   9.929   9.374 -0.0658 -0.1938 -0.0997
  142loPI   C4A 2266   8.493   9.873   8.936 -0.1157  0.1205 -0.3883
  142loPI   C5A 2267   8.492   9.707   8.524 -0.0315  0.0905 -0.0637
  142loPI   C6A 2268   8.393   9.854   8.073  0.0989 -0.0014 -0.4009
  142loPI   C1B 2269   8.644  10.397  10.022  0.1422  0.2227 -0.0958
  142loPI   C2B 2270   8.784  10.322   9.558 -0.1227 -0.0149 -0.0609
  142loPI   C3B 2271   8.877  10.263   9.078 -0.0251 -0.2042 -0.1330
  142loPI   C4B 2272   9.046  10.388   8.720  0.0385 -0.1303 -0.2888
  143loPI    C1 2273  13.361   3.069  11.084  0.2713  0.1150 -0.0256
  143loPI    C2 2274  13.558   3.378  10.922  0.1796  0.1831 -0.0080
  143loPI    C3 2275  13.459   3.384  11.310  0.0974  0.1725 -0.0284
  143loPI   PO4 2276  13.212   3.004  10.801  0.1958  0.1946 -0.0455
  143loPI   GL1 2277  13.096   2.774  10.512 -0.3724  0.1864  0.0854
  143loPI   GL2 2278  12.992   2.963  10.324 -0.0262  0.0970  0.0617
  143loPI   C1A 2279  13.531   2.776  10.158 -0.0085 -0.2586 -0.3831
  143loPI   C2A 2280  13.650   2.912   9.719  0.0260  0.2982 -0.2429
  143loPI   C3A 2281  13.809   2.837   9.321  0.0736 -0.1145 -0.0444
  143loPI   C4A 2282  13.893   2.993   8.842  0.1178  0.0095  0.0550
  143loPI   C5A 2283  14.223   3.240   8.561 -0.0611 -0.0895 -0.0080
  143loPI   C6A 2284  14.374   3.398   8.105 -0.0093  0.0394 -0.1744
  143loPI   C1B 2285  12.851   3.169   9.949 -0.1900  0.1111 -0.0342
  143loPI   C2B 2286  12.924   3.230   9.445 -0.2054  0.0079  0.0147
  143loPI   C3B 2287  13.085   3.220   9.015  0.1080  0.0594  0.0350
  143loPI   C4B 2288  13.044   3.149   8.546  0.0021  0.1782 -0.3634
  144loPI    C1 2289  14.284   3.642  11.220  0.0002 -0.1228  0.0142
  144loPI    C2 2290  13.889   3.596  11.180 -0.0079 -0.0702  0.0330
  144loPI    C3 2291  14.100   3.334  11.396 -0.0570 -0.0070  0.1583
  144loPI   PO4 2292  14.341   3.749  10.983  0.1929  0.0775  0.0385
  144loPI   GL1 2293  14.080   3.604  10.641 -0.0082 -0.0640  0.0000
  144loPI   GL2 2294  13.792   3.655  10.581  0.0836 -0.0445  0.0373
  144loPI   C1A 2295  14.161   3.732  10.253  0.0860 -0.3418  0.1556
  144loPI   C2A 2296  14.095   3.882   9.870  0.2474 -0.0975 -0.0315
  144loPI   C3A 2297  14.166   4.024   9.468  0.0734 -0.1583  0.0019
  144loPI   C4A 2298  14.335   4.235   9.135 -0.0876 -0.0357 -0.0096
  144loPI   C5A 2299  14.355   4.149   8.692  0.1757  0.1947 -0.2003
  144loPI   C6A 2300  14.325   3.759   8.520 -0.1526  0.2560  0.4730
  144loPI   C1B 2301  13.707   3.696  10.171 -0.2352 -0.1089 -0.1850
  144loPI   C2B 2302  13.539   3.861   9.797  0.0078 -0.3047 -0.0169
  144loPI   C3B 2303  13.437   4.081   9.367  0.2070 -0.0920 -0.0833
  144loPI   C4B 2304  13.155   4.214   9.080  0.0457  0.0940 -0.0585
  145loPI    C1 2305  17.263  16.439  10.286 -0.0535  0.0784 -0.0423
  145loPI    C2 2306  17.159  16.685  10.584 -0.1835 -0.0238 -0.0020
  145loPI    C3 2307  16.927  16.372  10.493  0.1098 -0.2809  0.1148
  145loPI   PO4 2308  17.502  16.696  10.228 -0.0185  0.0555  0.2609
  145loPI   GL1 2309  17.824  16.793   9.974 -0.2130  0.0524  0.1705
  145loPI   GL2 2310  18.076  17.060   9.999 -0.1223 -0.2284 -0.2241
  145loPI   C1A 2311  17.640  16.692   9.560 -0.1424  0.1431 -0.1004
  145loPI   C2A 2312  17.744  16.509   9.253  0.0001 -0.0006 -0.0273
  145loPI   C3A 2313  17.741  16.463   8.811  0.0733 -0.0164 -0.0719
  145loPI   C4A 2314  17.514  16.414   8.499  0.0845  0.1400 -0.0983
  145loPI   C5A 2315  17.202  16.463   8.113 -0.1032  0.0902 -0.0161
  145loPI   C6A 2316  17.084  16.789   7.858 -0.0167  0.0915  0.1163
  145loPI   C1B 2317  18.284  16.925   9.639 -0.0528 -0.1347 -0.0160
  145loPI   C2B 2318  18.208  16.766   9.208 -0.2593 -0.3467  0.3926
  145loPI   C3B 2319  18.142  16.686   8.764 -0.0095 -0.0327 -0.3304
  145loPI   C4B 2320  17.914  16.813   8.424  0.0771 -0.2492 -0.0284
  146loPI    C1 2321   2.926  14.665  10.870 -0.1454  0.0323  0.1205
  146loPI    C2 2322   2.639  14.770  10.612  0.2057  0.3901 -0.1373
  146loPI    C3 2323   2.693  14.981  10.948  0.0090  0.1675  0.0385
  146loPI   PO4 2324   3.100  14.569  10.657 -0.4350  0.0530 -0.1142
  146loPI   GL1 2325   3.044  14.604  10.230 -0.0139 -0.1100  0.2266
  146loPI   GL2 2326   3.002  14.889  10.198  0.0307 -0.2244  0.0891
  146loPI   C1A 2327   3.162  14.762   9.793 -0.1120 -0.0391 -0.1254
  146loPI   C2A 2328   3.161  14.767   9.327 -0.3374  0.2323 -0.0070
  146loPI   C3A 2329   3.230  14.732   8.913 -0.0568 -0.0848  0.1785
  146loPI   C4A 2330   3.501  14.954   8.546  0.1421  0.0657  0.2482
  146loPI   C5A 2331   3.713  15.228   8.277 -0.2089  0.0749 -0.2084
  146loPI   C6A 2332   3.903  15.104   7.975 -0.2138  0.1241  0.1600
  146loPI   C1B 2333   2.819  15.154   9.781 -0.1082  0.1623 -0.1492
  146loPI   C2B 2334   2.733  15.120   9.327 -0.1316  0.1146  0.0058
  146loPI   C3B 2335   2.576  15.167   8.928 -0.0789 -0.2581 -0.1937
  146loPI   C4B 2336   2.544  15.105   8.500 -0.1673  0.0796 -0.1274
  147loPI    C1 2337   0.713  14.640  10.931 -0.0558  0.0178 -0.1850
  147loPI    C2 2338   0.398  14.833  11.083  0.0027  0.0656 -0.1240
  147loPI    C3 2339   0.700  14.724  11.321 -0.1212 -0.2802 -0.1204
  147loPI   PO4 2340   0.744  14.857  10.687 -0.0771 -0.0197  0.0947
  147loPI   GL1 2341   0.903  14.925  10.351  0.1674 -0.0287 -0.0114
  147loPI   GL2 2342   0.826  15.250  10.401  0.1652 -0.0667 -0.0874
  147loPI   C1A 2343   0.905  14.793   9.932  0.2637  0.2149  0.0480
  147loPI   C2A 2344   1.058  14.427   9.783  0.3456  0.0659 -0.0795
  147loPI   C3A 2345   1.145  14.286   9.430 -0.0510 -0.2436 -0.1919
  147loPI   C4A 2346   1.107  14.130   9.034  0.0416  0.1771  0.1677
  147loPI   C5A 2347   1.048  13.998   8.568 -0.0633 -0.1729 -0.1249
  147loPI   C6A 2348   1.279  13.636   8.413  0.1598  0.0316 -0.1589
  147loPI   C1B 2349   0.964  15.289   9.943 -0.1400  0.3400 -0.0789
  147loPI   C2B 2350   0.959  15.236   9.530 -0.2476 -0.1351  0.0023
  147loPI   C3B 2351   1.120  15.258   9.192 -0.1030 -0.2531  0.1131
  147loPI   C4B 2352   0.977  15.259   8.757 -0.0735  0.1599  0.0342
  148loPI    C1 2353   9.328   6.501  10.686  0.0916 -0.0886 -0.0105
  148loPI    C2 2354   9.338   6.883  10.804 -0.0402 -0.0596 -0.0915
  148loPI    C3 2355   9.097   6.623  10.989  0.0957 -0.1183  0.0047
  148loPI   PO4 2356   9.534   6.427  10.681  0.0628 -0.1181  0.3828
  148loPI   GL1 2357   9.600   6.155  10.398  0.0871 -0.1521  0.0111
  148loPI   GL2 2358   9.843   6.072  10.155  0.0723 -0.1983  0.1345
  148loPI   C1A 2359   9.389   6.284   9.976  0.4289  0.2516 -0.1963
  148loPI   C2A 2360   9.366   6.307   9.592 -0.0810  0.1024  0.0436
  148loPI   C3A 2361   9.340   6.513   9.298 -0.1619  0.0626 -0.1247
  148loPI   C4A 2362   9.192   6.639   8.931  0.3514 -0.0388 -0.0679
  148loPI   C5A 2363   8.900   6.844   8.592 -0.2302  0.1448 -0.4173
  148loPI   C6A 2364   8.637   6.865   8.263 -0.1523  0.2028 -0.0573
  148loPI   C1B 2365   9.736   5.920   9.730  0.2137  0.0881 -0.0321
  148loPI   C2B 2366   9.676   6.043   9.349 -0.0412  0.0740  0.2902
  148loPI   C3B 2367   9.671   6.191   8.934 -0.2177  0.1421  0.0979
  148loPI   C4B 2368   9.795   6.262   8.564 -0.0536 -0.0217 -0.3047
  149loPI    C1 2369  12.971  13.052  11.063  0.0147 -0.0573  0.0939
  149loPI    C2 2370  13.101  12.865  11.391 -0.0047 -0.2698 -0.0172
  149loPI    C3 2371  12.719  12.980  11.365  0.0166 -0.1789  0.0673
  149loPI   PO4 2372  13.056  12.862  10.758  0.1650 -0.0399  0.1461
  149loPI   GL1 2373  13.400  12.937  10.389  0.0300  0.1482 -0.1530
  149loPI   GL2 2374  13.613  12.665  10.315  0.2038  0.0409 -0.1949
  149loPI   C1A 2375  13.244  13.096   9.979 -0.2167  0.0429 -0.2223
  149loPI   C2A 2376  13.266  13.105   9.581 -0.1949  0.1135  0.0643
  149loPI   C3A 2377  13.162  13.105   9.273  0.0361  0.0639  0.2094
  149loPI   C4A 2378  13.274  13.080   8.848  0.4322  0.0106 -0.0208
  149loPI   C5A 2379  13.063  12.979   8.499 -0.0589  0.1236  0.2197
  149loPI   C6A 2380  13.154  12.711   8.134 -0.1953  0.1507  0.2305
  149loPI   C1B 2381  13.624  12.598   9.859  0.0426 -0.1556  0.1805
  149loPI   C2B 2382  13.573  12.708   9.382  0.0050  0.1539  0.2832
  149loPI   C3B 2383  13.523  12.682   8.999  0.1131 -0.1030  0.2221
  149loPI   C4B 2384  13.514  12.726   8.511  0.0958 -0.1898  0.2135
  150loPI    C1 2385  10.392   7.928  10.902 -0.0033  0.0731 -0.2253
  150loPI    C2 2386  10.688   8.086  10.684  0.1735  0.0118 -0.0331
  150loPI    C3 2387  10.706   8.096  11.083 -0.0285 -0.0976 -0.0198
  150loPI   PO4 2388  10.164   7.976  10.826  0.1366 -0.0922 -0.3089
  150loPI   GL1 2389  10.033   7.982  10.408  0.2731 -0.2102  0.1288
  150loPI   GL2 2390  10.326   8.174  10.351  0.1319 -0.0097  0.0881
  150loPI   C1A 2391  10.010   7.706  10.085  0.1967  0.0814  0.1827
  150loPI   C2A 2392  10.133   7.633   9.636  0.1588  0.0932  0.3257
  150loPI   C3A 2393  10.124   7.692   9.147  0.0289 -0.1301  0.2590
  150loPI   C4A 2394   9.940   7.668   8.661 -0.3409  0.4018 -0.1249
  150loPI   C5A 2395  10.017   7.603   8.224 -0.0166  0.4684 -0.2281
  150loPI   C6A 2396  10.184   7.606   7.872 -0.1976  0.3441  0.1024
  150loPI   C1B 2397  10.283   8.121   9.937 -0.0799  0.0822 -0.2942
  150loPI   C2B 2398  10.292   8.097   9.440 -0.2485  0.2296 -0.3890
  150loPI   C3B 2399  10.316   8.173   9.024  0.1694  0.0465 -0.3028
  150loPI   C4B 2400  10.316   8.083   8.614  0.0676 -0.0039  0.2424
  151loPI    C1 2401   7.060   1.863  10.515  0.0346 -0.1101  0.0481
  151loPI    C2 2402   7.258   1.857  10.863 -0.0371 -0.2407  0.0875
  151loPI    C3 2403   7.020   1.551  10.763 -0.1818 -0.1072  0.0186
  151loPI   PO4 2404   6.937   2.147  10.389 -0.2002 -0.0809  0.1618
  151loPI   GL1 2405   7.137   2.086  10.038 -0.1091  0.0319 -0.0332
  151loPI   GL2 2406   7.359   1.823  10.057  0.0726  0.1520  0.1345
  151loPI   C1A 2407   7.152   2.220   9.581  0.2273 -0.1065  0.0675
  151loPI   C2A 2408   7.121   2.111   9.204 -0.3294  0.0144  0.0578
  151loPI   C3A 2409   7.190   2.183   8.814  0.1020 -0.0604  0.0988
  151loPI   C4A 2410   7.311   2.097   8.404  0.1875  0.1597  0.0302
  151loPI   C5A 2411   7.413   1.906   8.098  0.0144  0.0253  0.2631
  151loPI   C6A 2412   6.994   1.905   7.878 -0.0804  0.0740 -0.0024
  151loPI   C1B 2413   7.393   1.694   9.631  0.0629  0.2201  0.3545
  151loPI   C2B 2414   7.490   1.803   9.191 -0.0826  0.1546  0.0148
  151loPI   C3B 2415   7.674   1.861   8.821 -0.0893  0.2674 -0.1296
  151loPI   C4B 2416   7.842   2.038   8.473  0.0360 -0.0190  0.1520
  152loPI    C1 2417  16.050   5.145  10.874 -0.0326  0.2861 -0.1935
  152loPI    C2 2418  15.931   5.371  11.182 -0.1806 -0.0886  0.0315
  152loPI    C3 2419  16.321   5.325  11.106 -0.1418 -0.0273  0.1894
  152loPI   PO4 2420  16.025   5.175  10.639  0.3670  0.0425 -0.0230
  152loPI   GL1 2421  16.223   5.370  10.257 -0.0962  0.0636  0.1025
  152loPI   GL2 2422  16.564   5.366  10.240  0.2523  0.0069 -0.0747
  152loPI   C1A 2423  15.894   5.166  10.011  0.0330 -0.1168 -0.0064
  152loPI   C2A 2424  15.618   5.072   9.690 -0.0074 -0.1237  0.0048
  152loPI   C3A 2425  15.566   4.878   9.282  0.0881 -0.1595 -0.3359
  152loPI   C4A 2426  15.768   4.643   8.946  0.0532 -0.0018  0.2505
  152loPI   C5A 2427  15.610   4.446   8.617 -0.0836 -0.0771 -0.3296
  152loPI   C6A 2428  15.230   4.361   8.368 -0.0207 -0.0072 -0.1882
  152loPI   C1B 2429  16.886   5.464  10.036 -0.1977 -0.1258  0.2866
  152loPI   C2B 2430  16.928   5.684   9.578  0.0568  0.0053 -0.2264
  152loPI   C3B 2431  16.990   5.678   9.089  0.3650  0.1145  0.0193
  152loPI   C4B 2432  16.961   5.507   8.636 -0.0470 -0.1506  0.0500
  153loPI    C1 2433   4.361   6.479  11.048  0.0411 -0.0983 -0.0031
  153loPI    C2 2434   4.140   6.631  11.345 -0.0369 -0.0649 -0.0779
  153loPI    C3 2435   4.333   6.284  11.397 -0.1115 -0.0973 -0.0140
  153loPI   PO4 2436   4.548   6.550  10.935  0.2869 -0.3669  0.3167
  153loPI   GL1 2437   4.482   6.665  10.529 -0.0627 -0.3780  0.2376
  153loPI   GL2 2438   4.587   6.450  10.392  0.0756  0.0273 -0.1381
  153loPI   C1A 2439   4.372   6.811  10.136  0.0397 -0.0561  0.0671
  153loPI   C2A 2440   4.309   6.752   9.668 -0.3032 -0.1093 -0.2312
  153loPI   C3A 2441   4.356   6.788   9.260  0.2195 -0.2546  0.2810
  153loPI   C4A 2442   4.251   6.700   8.858 -0.1075  0.2630 -0.4997
  153loPI   C5A 2443   4.189   6.558   8.344  0.1353  0.1007 -0.0170
  153loPI   C6A 2444   4.105   6.506   7.993  0.2581 -0.0370 -0.1802
  153loPI   C1B 2445   4.520   6.314   9.923  0.4065  0.3776 -0.0405
  153loPI   C2B 2446   4.576   6.358   9.573 -0.0201  0.1628  0.0800
  153loPI   C3B 2447   4.530   6.284   9.136  0.3794  0.2604  0.0385
  153loPI   C4B 2448   4.530   6.328   8.711 -0.1953  0.2637 -0.0525
  154loPI    C1 2449   0.812   7.426  11.041  0.0137  0.0054 -0.0836
  154loPI    C2 2450   0.609   7.628  11.319  0.0004  0.0936 -0.1569
  154loPI    C3 2451   1.008   7.634  11.320  0.0034 -0.0537 -0.0320
  154loPI   PO4 2452   0.647   7.304  10.903 -0.0993 -0.4360  0.1203
  154loPI   GL1 2453   0.476   7.172  10.440 -0.0204  0.0865 -0.0433
  154loPI   GL2 2454   0.218   6.980  10.410  0.2128  0.1834  0.0244
  154loPI   C1A 2455   0.505   7.403  10.083 -0.2171 -0.2603 -0.1390
  154loPI   C2A 2456   0.668   7.359   9.649  0.5994  0.2293  0.1593
  154loPI   C3A 2457   0.787   7.264   9.216 -0.0297  0.2379 -0.0761
  154loPI   C4A 2458   0.920   7.356   8.801  0.1166  0.2027  0.2156
  154loPI   C5A 2459   0.824   7.552   8.402  0.0304 -0.1848  0.1536
  154loPI   C6A 2460   1.039   7.585   8.068  0.3350 -0.0780 -0.1680
  154loPI   C1B 2461   0.048   7.082  10.052 -0.1355  0.1376  0.1438
  154loPI   C2B 2462   0.158   7.174   9.672 -0.1178  0.2353  0.2967
  154loPI   C3B 2463  -0.036   7.152   9.270  0.2058  0.2256 -0.0681
  154loPI   C4B 2464  -0.180   7.089   8.845 -0.0826 -0.0043  0.2023
  155loPI    C1 2465  10.795   1.573  10.681  0.2168 -0.1782  0.0938
  155loPI    C2 2466  10.549   1.797  10.459  0.2507 -0.3277 -0.0973
  155loPI    C3 2467  10.400   1.555  10.741  0.1947 -0.2652 -0.0729
  155loPI   PO4 2468  11.025   1.576  10.496 -0.3022 -0.1023  0.0355
  155loPI   GL1 2469  10.899   1.510  10.025 -0.2462 -0.0556 -0.1374
  155loPI   GL2 2470  10.579   1.639   9.888  0.2931 -0.1373  0.1083
  155loPI   C1A 2471  11.097   1.672   9.658 -0.0957  0.0630 -0.1792
  155loPI   C2A 2472  11.045   1.671   9.147 -0.4554 -0.1475 -0.2221
  155loPI   C3A 2473  11.000   1.791   8.706  0.0353  0.0313  0.1058
  155loPI   C4A 2474  11.310   1.748   8.361 -0.2714  0.3661 -0.0991
  155loPI   C5A 2475  11.553   1.894   8.009  0.0541 -0.2449 -0.0167
  155loPI   C6A 2476  11.709   2.136   7.701  0.0700 -0.0146  0.2559
  155loPI   C1B 2477  10.561   1.667   9.455 -0.0041  0.0768 -0.0792
  155loPI   C2B 2478  10.587   1.678   9.081 -0.0339  0.3911 -0.1612
  155loPI   C3B 2479  10.489   1.888   8.696 -0.0943  0.0969  0.1135
  155loPI   C4B 2480  10.208   1.842   8.383 -0.1357 -0.0962  0.1693
  156loPI    C1 2481  15.418  15.245  10.397 -0.0668 -0.0805  0.1142
  156loPI    C2 2482  15.672  14.946  10.475 -0.0074 -0.0314  0.1103
  156loPI    C3 2483  15.729  15.305  10.641  0.0331  0.0315 -0.0390
  156loPI   PO4 2484  15.401  15.277  10.191  0.0381 -0.2741  0.0451
  156loPI   GL1 2485  15.237  15.150   9.753  0.1545  0.4048  0.0647
  156loPI   GL2 2486  15.537  14.927   9.854  0.2330 -0.1651  0.1439
  156loPI   C1A 2487  15.034  15.004   9.371 -0.2537 -0.1703 -0.0682
  156loPI   C2A 2488  15.104  14.983   8.962 -0.0715 -0.0335  0.1527
  156loPI   C3A 2489  15.255  14.642   8.628 -0.2603 -0.1045 -0.3872
  156loPI   C4A 2490  15.665  14.466   8.480 -0.1590 -0.0368 -0.0305
  156loPI   C5A 2491  15.866  14.382   8.128  0.1017  0.0736 -0.0469
  156loPI   C6A 2492  15.996  14.096   7.794 -0.1263  0.0633 -0.0880
  156loPI   C1B 2493  15.546  14.796   9.438  0.1491 -0.1906 -0.3909
  156loPI   C2B 2494  15.534  14.567   9.050  0.1033 -0.0659  0.2828
  156loPI   C3B 2495  15.821  14.224   8.968  0.2188  0.0054  0.2601
  156loPI   C4B 2496  16.096  14.242   8.676 -0.0474  0.0029 -0.0376
  157loPI    C1 2497   7.233  16.559  10.248 -0.0955  0.0377  0.0962
  157loPI    C2 2498   7.514  16.766  10.445 -0.0303 -0.0720  0.1193
  157loPI    C3 2499   7.522  16.366  10.447 -0.1074 -0.0746  0.0053
  157loPI   PO4 2500   7.149  16.698  10.084 -0.0325  0.3377  0.0465
  157loPI   GL1 2501   7.507  16.739   9.847  0.2313  0.0686 -0.1044
  157loPI   GL2 2502   7.700  16.606   9.946  0.3133  0.2565 -0.1268
  157loPI   C1A 2503   7.314  16.811   9.362  0.0445 -0.0171 -0.2230
  157loPI   C2A 2504   7.244  16.742   8.903 -0.2773  0.3594  0.1195
  157loPI   C3A 2505   7.130  16.786   8.553 -0.1570  0.1492  0.0276
  157loPI   C4A 2506   6.945  16.458   8.162  0.1136  0.1104 -0.1249
  157loPI   C5A 2507   7.320  16.560   7.993  0.0981  0.1935 -0.2981
  157loPI   C6A 2508   7.762  16.826   8.009 -0.0125 -0.0253  0.2776
  157loPI   C1B 2509   7.879  16.583   9.547  0.1931  0.1300 -0.0865
  157loPI   C2B 2510   7.653  16.468   9.143 -0.0583  0.0483  0.0511
  157loPI   C3B 2511   7.640  16.252   8.769 -0.0488 -0.2332 -0.0965
  157loPI   C4B 2512   7.716  16.503   8.402  0.1068 -0.0369  0.1947
  158loPI    C1 2513   2.412  17.331  10.407  0.1161  0.0566 -0.0739
  158loPI    C2 2514   2.662  17.629  10.498 -0.1881  0.3197 -0.0799
  158loPI    C3 2515   2.629  17.314  10.743  0.2922  0.1826 -0.1800
  158loPI   PO4 2516   2.418  17.242  10.175  0.1838 -0.2649 -0.1331
  158loPI   GL1 2517   2.162  17.417   9.891  0.1149 -0.1198  0.1769
  158loPI   GL2 2518   2.182  17.100   9.797  0.1179 -0.1244 -0.0811
  158loPI   C1A 2519   2.068  17.730   9.606 -0.0155 -0.3823  0.5090
  158loPI   C2A 2520   2.147  17.853   9.242 -0.1438 -0.3401 -0.0414
  158loPI   C3A 2521   2.208  17.882   8.768 -0.1717 -0.1534 -0.1320
  158loPI   C4A 2522   2.145  17.759   8.290  0.2926 -0.2277  0.0556
  158loPI   C5A 2523   2.141  17.492   7.912 -0.2189  0.0405  0.0536
  158loPI   C6A 2524   1.858  17.321   7.684  0.0883 -0.1352  0.2367
  158loPI   C1B 2525   2.163  17.178   9.436 -0.2057 -0.0444  0.2891
  158loPI   C2B 2526   2.364  17.285   9.108 -0.1589 -0.0141 -0.0308
  158loPI   C3B 2527   2.320  17.372   8.681 -0.1671  0.2458 -0.1357
  158loPI   C4B 2528   2.322  17.177   8.316 -0.0016 -0.0526  0.2163
  159loPI    C1 2529  17.435   8.534  10.945  0.1468 -0.0210  0.0798
  159loPI    C2 2530  17.230   8.766  11.197 -0.0175 -0.4514  0.3521
  159loPI    C3 2531  17.623   8.821  11.150 -0.1061  0.0825  0.1695
  159loPI   PO4 2532  17.180   8.414  10.793  0.0173  0.0858 -0.0820
  159loPI   GL1 2533  17.160   8.546  10.386 -0.0035 -0.1235  0.0422
  159loPI   GL2 2534  17.270   8.347  10.240 -0.0665  0.2198 -0.0181
  159loPI   C1A 2535  16.832   8.613  10.113 -0.1330 -0.2571  0.0176
  159loPI   C2A 2536  16.665   8.630   9.753 -0.2055 -0.0327  0.2951
  159loPI   C3A 2537  16.469   8.638   9.365 -0.0036  0.0603  0.2098
  159loPI   C4A 2538  16.232   8.626   8.921  0.2296  0.0625  0.1167
  159loPI   C5A 2539  16.262   8.540   8.488 -0.0159  0.0105  0.1319
  159loPI   C6A 2540  16.044   8.225   8.157 -0.1983 -0.0958 -0.0726
  159loPI   C1B 2541  17.210   8.295   9.845 -0.1922 -0.2667 -0.0259
  159loPI   C2B 2542  16.872   8.311   9.394  0.0715 -0.1982 -0.3364
  159loPI   C3B 2543  16.859   8.132   8.933  0.1466 -0.1489  0.1247
  159loPI   C4B 2544  17.065   8.310   8.509  0.0548 -0.1368 -0.1576
  160loPI    C1 2545   9.302  17.905  10.297  0.0774 -0.1968 -0.1554
  160loPI    C2 2546   9.176  17.619  10.546 -0.0139  0.2237  0.2957
  160loPI    C3 2547   9.492  17.844  10.644  0.2399  0.0926 -0.1905
  160loPI   PO4 2548   9.290  17.831  10.057 -0.1704  0.0700 -0.1422
  160loPI   GL1 2549   9.007  17.707   9.770  0.0695  0.0343 -0.0519
  160loPI   GL2 2550   8.784  17.466   9.843 -0.0534 -0.0601  0.0550
  160loPI   C1A 2551   9.156  17.697   9.365 -0.3628  0.0318 -0.0676
  160loPI   C2A 2552   9.001  17.838   9.001  0.0016  0.2005  0.2306
  160loPI   C3A 2553   8.924  17.959   8.508 -0.0795  0.1055 -0.0183
  160loPI   C4A 2554   8.729  17.878   8.128 -0.0343 -0.1293 -0.0689
  160loPI   C5A 2555   8.631  18.223   7.745 -0.2965  0.1087  0.1238
  160loPI   C6A 2556   8.615  18.398   7.372  0.3413  0.0407  0.0382
  160loPI   C1B 2557   9.036  17.224   9.495  0.0656 -0.0949 -0.0253
  160loPI   C2B 2558   9.358  17.222   9.334  0.1798 -0.1492  0.0578
  160loPI   C3B 2559   9.474  17.292   8.922  0.2279 -0.0479 -0.3246
  160loPI   C4B 2560   9.322  17.580   8.678  0.1340 -0.1334 -0.1187
  161loPI    C1 2561   1.874   1.970  10.748  0.1123 -0.0332 -0.0543
  161loPI    C2 2562   1.838   2.356  10.847  0.0191 -0.0537 -0.0073
  161loPI    C3 2563   1.528   2.107  10.895  0.0375 -0.1069 -0.1600
  161loPI   PO4 2564   2.040   1.972  10.556  0.3904  0.1435  0.0714
  161loPI   GL1 2565   2.298   1.896  10.193 -0.2237 -0.0673 -0.3480
  161loPI   GL2 2566   2.037   2.168  10.084  0.1054  0.1592  0.3348
  161loPI   C1A 2567   2.146   1.831   9.760  0.2800 -0.0330  0.1313
  161loPI   C2A 2568   1.936   1.466   9.481  0.0928  0.2440  0.0850
  161loPI   C3A 2569   1.779   1.556   9.066 -0.1111  0.0934 -0.0473
  161loPI   C4A 2570   1.926   1.537   8.635 -0.0695  0.0401  0.1309
  161loPI   C5A 2571   1.810   1.821   8.287  0.2235  0.0198  0.1921
  161loPI   C6A 2572   1.644   1.974   7.945  0.1100 -0.0601 -0.0203
  161loPI   C1B 2573   1.947   2.313   9.609  0.1996  0.0306  0.0388
  161loPI   C2B 2574   1.833   2.389   9.122 -0.1047  0.0681 -0.1933
  161loPI   C3B 2575   1.486   2.504   8.763 -0.0566 -0.0418 -0.0979
  161loPI   C4B 2576   1.257   2.619   8.309 -0.0543  0.2153 -0.1085
  162loPI    C1 2577  17.894   8.313  10.987  0.4568  0.1478  0.2409
  162loPI    C2 2578  18.021   8.050  10.713 -0.3948  0.1087 -0.1501
  162loPI    C3 2579  18.138   8.015  11.094  0.2701 -0.2454 -0.3714
  162loPI   PO4 2580  17.934   8.529  10.840  0.2940 -0.1509  0.2577
  162loPI   GL1 2581  17.777   8.536  10.464 -0.0625  0.1180 -0.0608
  162loPI   GL2 2582  17.939   8.687  10.341 -0.2545  0.0831  0.2338
  162loPI   C1A 2583  17.639   8.511   9.954  0.4084  0.0963  0.0358
  162loPI   C2A 2584  17.638   8.372   9.613 -0.1480 -0.0026 -0.0659
  162loPI   C3A 2585  17.387   8.282   9.293 -0.0097 -0.0174  0.0139
  162loPI   C4A 2586  17.314   8.444   8.961 -0.3851  0.0346 -0.3908
  162loPI   C5A 2587  17.294   8.797   8.640  0.2056 -0.1668  0.0092
  162loPI   C6A 2588  17.402   8.679   8.180  0.2810 -0.2510  0.0857
  162loPI   C1B 2589  18.145   8.712  10.012  0.0772  0.0844 -0.1562
  162loPI   C2B 2590  18.120   8.563   9.514 -0.1730  0.2741  0.0654
  162loPI   C3B 2591  18.240   8.524   9.072 -0.1875 -0.1976  0.2499
  162loPI   C4B 2592  18.555   8.399   8.745  0.0907 -0.0819 -0.3375
  163loPI    C1 2593   3.451  16.382  10.740 -0.1077  0.0548 -0.1835
  163loPI    C2 2594   3.205  16.068  10.711 -0.1229  0.0288  0.1852
  163loPI    C3 2595   3.306  16.210  11.071  0.0386  0.3267  0.0255
  163loPI   PO4 2596   3.315  16.549  10.594 -0.0708 -0.0596 -0.2431
  163loPI   GL1 2597   3.071  16.647  10.273 -0.2101  0.0479 -0.0494
  163loPI   GL2 2598   2.858  16.395  10.114  0.2064  0.0205 -0.1256
  163loPI   C1A 2599   3.312  16.520   9.861 -0.2341 -0.0362  0.2181
  163loPI   C2A 2600   3.464  16.760   9.618 -0.2894 -0.1467 -0.0119
  163loPI   C3A 2601   3.692  16.976   9.408  0.0099  0.0184  0.1833
  163loPI   C4A 2602   3.592  17.029   9.012  0.2684  0.1103  0.0495
  163loPI   C5A 2603   3.598  16.971   8.584 -0.1534 -0.0123 -0.1826
  163loPI   C6A 2604   3.558  16.621   8.338  0.1813 -0.0433 -0.1392
  163loPI   C1B 2605   2.815  16.310   9.649 -0.2715  0.1608  0.0769
  163loPI   C2B 2606   2.937  15.925   9.440  0.2002  0.0161 -0.2550
  163loPI   C3B 2607   2.828  15.631   9.081 -0.1005  0.1275 -0.0777
  163loPI   C4B 2608   2.611  15.635   8.647  0.0146  0.1349 -0.1398
  164loPI    C1 2609   0.984   9.699  10.979 -0.3228  0.0196 -0.3846
  164loPI    C2 2610   0.862   9.318  10.968 -0.1160 -0.0801  0.2995
  164loPI    C3 2611   0.640   9.594  11.154 -0.1833  0.1061 -0.0495
  164loPI   PO4 2612   1.088   9.688  10.746 -0.3271  0.2127 -0.0110
  164loPI   GL1 2613   1.024   9.556  10.433  0.0745  0.2412  0.1498
  164loPI   GL2 2614   0.816   9.251  10.433  0.1163  0.2617  0.0780
  164loPI   C1A 2615   1.135   9.282  10.076  0.0318  0.1172 -0.2636
  164loPI   C2A 2616   1.227   9.393   9.678  0.0934 -0.0220 -0.1745
  164loPI   C3A 2617   1.230   9.606   9.313  0.1827 -0.0408 -0.0711
  164loPI   C4A 2618   1.275   9.717   8.912 -0.0728  0.0842 -0.2426
  164loPI   C5A 2619   1.426   9.747   8.509 -0.4946  0.0324  0.0225
  164loPI   C6A 2620   1.844   9.845   8.384  0.3784  0.0793 -0.1220
  164loPI   C1B 2621   0.647   9.402  10.048  0.2617  0.1691 -0.1328
  164loPI   C2B 2622   0.719   9.256   9.789  0.1084 -0.0979 -0.3061
  164loPI   C3B 2623   0.831   9.192   9.360  0.0267  0.1504  0.0902
  164loPI   C4B 2624   0.936   9.268   8.898  0.1540  0.1131 -0.2291
  165loPI    C1 2625  10.562  13.355  11.121 -0.2243 -0.1437 -0.0255
  165loPI    C2 2626  10.935  13.213  11.095 -0.1230  0.1327 -0.1186
  165loPI    C3 2627  10.844  13.485  11.374 -0.2710  0.0199 -0.0559
  165loPI   PO4 2628  10.510  13.402  10.882 -0.2612  0.1343  0.2290
  165loPI   GL1 2629  10.535  13.349  10.483  0.1166  0.0642  0.1499
  165loPI   GL2 2630  10.425  13.082  10.414  0.0465  0.0076 -0.2849
  165loPI   C1A 2631  10.612  13.516  10.061 -0.0299  0.0401 -0.1110
  165loPI   C2A 2632  10.647  13.490   9.600 -0.4101 -0.3068  0.0638
  165loPI   C3A 2633  10.550  13.524   9.178 -0.3323  0.1826 -0.0205
  165loPI   C4A 2634  10.534  13.573   8.762 -0.0369  0.0650  0.1633
  165loPI   C5A 2635  10.515  13.439   8.309 -0.0327  0.0504 -0.1551
  165loPI   C6A 2636  10.427  13.458   7.926  0.2079  0.3352  0.1983
  165loPI   C1B 2637  10.435  12.972   9.950  0.3205 -0.2473 -0.1867
  165loPI   C2B 2638  10.403  13.083   9.539 -0.2172  0.1974  0.0899
  165loPI   C3B 2639  10.277  13.086   9.028 -0.1844  0.0551  0.1312
  165loPI   C4B 2640  10.023  13.439   8.735  0.4243  0.0351  0.3454
  166loPI    C1 2641   3.551  17.997  10.614 -0.0749  0.1244  0.0948
  166loPI    C2 2642   3.373  18.265  10.850  0.0021  0.0293  0.2628
  166loPI    C3 2643   3.729  18.116  10.952 -0.0179 -0.0997  0.1454
  166loPI   PO4 2644   3.585  18.035  10.417  0.0605 -0.0121 -0.1149
  166loPI   GL1 2645   3.840  17.977  10.090  0.0511 -0.0419 -0.1366
  166loPI   GL2 2646   4.164  17.932   9.981  0.0268  0.0485 -0.1577
  166loPI   C1A 2647   3.845  18.218   9.749 -0.3836  0.4934 -0.1127
  166loPI   C2A 2648   3.979  18.217   9.341  0.0523 -0.3670 -0.0358
  166loPI   C3A 2649   4.279  18.315   9.081 -0.0535 -0.0749 -0.0445
  166loPI   C4A 2650   4.262  18.453   8.662 -0.2256 -0.1078  0.1973
  166loPI   C5A 2651   4.488  18.634   8.314  0.2098  0.1859  0.1114
  166loPI   C6A 2652   4.387  18.846   7.987 -0.0525 -0.0803  0.1519
  166loPI   C1B 2653   4.140  17.836   9.551 -0.0614 -0.2346 -0.0364
  166loPI   C2B 2654   4.173  17.846   9.143  0.4145  0.1819  0.1849
  166loPI   C3B 2655   4.272  17.743   8.746 -0.0586 -0.3022  0.2320
  166loPI   C4B 2656   4.433  17.984   8.367 -0.0891  0.0289  0.2382
  167loPI    C1 2657   8.110  14.284  10.940  0.0652 -0.0992 -0.0279
  167loPI    C2 2658   7.904  14.240  11.280 -0.0399 -0.3327 -0.1198
  167loPI    C3 2659   8.094  14.584  11.205 -0.2470 -0.1788  0.0474
  167loPI   PO4 2660   7.968  14.293  10.696 -0.1676 -0.1711  0.1225
  167loPI   GL1 2661   7.815  14.029  10.353  0.1816 -0.1754  0.0260
  167loPI   GL2 2662   8.032  13.852  10.263  0.0709 -0.1652  0.1742
  167loPI   C1A 2663   7.783  14.261  10.005  0.1559 -0.0406  0.1389
  167loPI   C2A 2664   7.582  14.247   9.611  0.1375 -0.1628  0.3045
  167loPI   C3A 2665   7.537  14.437   9.200 -0.3905  0.0145 -0.1088
  167loPI   C4A 2666   7.400  14.540   8.802 -0.0819 -0.0008 -0.0473
  167loPI   C5A 2667   7.490  14.605   8.404 -0.5729  0.0108  0.1829
  167loPI   C6A 2668   7.806  14.905   8.103 -0.1782 -0.1205 -0.0044
  167loPI   C1B 2669   7.865  13.811   9.760 -0.2502 -0.0385 -0.0373
  167loPI   C2B 2670   7.872  13.972   9.333  0.0736 -0.0749 -0.2628
  167loPI   C3B 2671   7.822  14.072   8.978 -0.0023  0.0524  0.0041
  167loPI   C4B 2672   7.830  14.149   8.409  0.0034 -0.0990  0.0136
  168loPI    C1 2673   7.680   5.870  10.650  0.1306 -0.0709 -0.0906
  168loPI    C2 2674   7.755   5.949  11.035 -0.0099 -0.1867 -0.0383
  168loPI    C3 2675   7.379   5.955  10.899  0.0658  0.1654 -0.2462
  168loPI   PO4 2676   7.814   6.060  10.555 -0.3204 -0.1143 -0.2657
  168loPI   GL1 2677   7.822   6.282  10.188 -0.0088  0.2522  0.0627
  168loPI   GL2 2678   7.492   6.410  10.095 -0.1457  0.0908 -0.0594
  168loPI   C1A 2679   7.850   6.185   9.821 -0.1002 -0.0725  0.2429
  168loPI   C2A 2680   7.868   6.192   9.355  0.1106  0.0204  0.1500
  168loPI   C3A 2681   7.887   6.324   9.031 -0.1731  0.1061  0.0692
  168loPI   C4A 2682   7.921   6.125   8.699  0.0262 -0.0147  0.2270
  168loPI   C5A 2683   8.075   5.798   8.355  0.0724  0.2593 -0.0733
  168loPI   C6A 2684   8.106   5.616   7.877  0.0573 -0.1623  0.0475
  168loPI   C1B 2685   7.383   6.371   9.619  0.1722  0.1800  0.1105
  168loPI   C2B 2686   7.415   6.423   9.174  0.0623  0.0618  0.0715
  168loPI   C3B 2687   7.565   6.510   8.681 -0.0615 -0.0592  0.0233
  168loPI   C4B 2688   7.812   6.545   8.275 -0.0350 -0.1723 -0.1498
  169loPI    C1 2689   4.095  10.661  11.028  0.0827  0.0173 -0.1666
  169loPI    C2 2690   4.254  10.384  11.268  0.0955  0.2816  0.1358
  169loPI    C3 2691   3.888  10.526  11.342  0.0443  0.2664 -0.0827
  169loPI   PO4 2692   4.221  10.550  10.752  0.0011  0.0138 -0.2397
  169loPI   GL1 2693   4.331  10.291  10.401 -0.0750  0.0575  0.0964
  169loPI   GL2 2694   4.420  10.658  10.305  0.2147  0.3158 -0.2324
  169loPI   C1A 2695   4.087  10.426  10.039 -0.0210 -0.0464  0.0716
  169loPI   C2A 2696   3.995  10.435   9.651  0.0151  0.0060  0.1424
  169loPI   C3A 2697   3.864  10.643   9.255 -0.1978  0.2419  0.0198
  169loPI   C4A 2698   3.525  10.695   8.941 -0.0549  0.2864  0.0942
  169loPI   C5A 2699   3.243  11.097   8.876  0.0568  0.0350  0.0994
  169loPI   C6A 2700   3.174  11.522   8.935  0.0710 -0.0490 -0.0225
  169loPI   C1B 2701   4.594  10.405   9.956  0.2232 -0.0557 -0.3350
  169loPI   C2B 2702   4.962  10.486   9.772  0.0697 -0.1914 -0.0198
  169loPI   C3B 2703   5.360  10.506   9.537 -0.1349 -0.2542  0.0818
  169loPI   C4B 2704   5.587  10.411   9.213 -0.3692 -0.1030  0.0481
  170loPI    C1 2705   5.486  14.719  10.639  0.1013  0.2404 -0.3014
  170loPI    C2 2706   5.797  14.499  10.517  0.0868 -0.0274  0.1260
  170loPI    C3 2707   5.811  14.689  10.869 -0.3148 -0.2258  0.2554
  170loPI   PO4 2708   5.382  14.784  10.403 -0.0087  0.1932  0.1574
  170loPI   GL1 2709   5.379  14.863  10.046  0.0098  0.0072 -0.1334
  170loPI   GL2 2710   5.250  15.152  10.051  0.2853  0.2475  0.4119
  170loPI   C1A 2711   5.652  14.898   9.629 -0.1384 -0.1401 -0.2491
  170loPI   C2A 2712   5.687  14.809   9.256  0.1472 -0.0429 -0.1476
  170loPI   C3A 2713   5.856  14.820   8.766 -0.1676  0.1349 -0.0443
  170loPI   C4A 2714   5.710  14.638   8.254  0.0849  0.0956  0.1271
  170loPI   C5A 2715   5.380  14.608   7.975 -0.0712  0.1439  0.1139
  170loPI   C6A 2716   4.905  14.642   7.800  0.2660 -0.2358 -0.2546
  170loPI   C1B 2717   4.953  15.000   9.714  0.0857 -0.1565  0.2046
  170loPI   C2B 2718   4.650  14.694   9.586 -0.3214  0.0491 -0.1481
  170loPI   C3B 2719   4.602  14.550   9.239 -0.1167 -0.1676  0.1970
  170loPI   C4B 2720   4.870  14.636   8.863 -0.2461  0.1180 -0.1113
  171loPI    C1 2721  11.305   1.959  10.815  0.1937  0.0156  0.1165
  171loPI    C2 2722  11.219   1.608  10.986 -0.0334 -0.1095 -0.2445
  171loPI    C3 2723  10.958   1.910  11.008  0.1257  0.0142 -0.0057
  171loPI   PO4 2724  11.367   2.004  10.532 -0.0159 -0.1790  0.0383
  171loPI   GL1 2725  11.354   1.748  10.161  0.1930 -0.1008  0.2163
  171loPI   GL2 2726  11.096   1.960  10.080  0.0449 -0.1292 -0.2488
  171loPI   C1A 2727  11.591   1.630   9.783  0.0556 -0.1123 -0.0552
  171loPI   C2A 2728  11.513   1.596   9.326 -0.0543  0.3020  0.0605
  171loPI   C3A 2729  11.515   1.506   8.920  0.3322 -0.4012  0.3692
  171loPI   C4A 2730  11.686   1.429   8.537 -0.3312 -0.1118  0.1128
  171loPI   C5A 2731  12.014   1.236   8.307  0.2017  0.1239  0.0083
  171loPI   C6A 2732  12.004   1.161   7.925 -0.1217  0.2480  0.2481
  171loPI   C1B 2733  11.281   2.170   9.748  0.2914  0.0259 -0.3853
  171loPI   C2B 2734  11.300   2.076   9.287  0.1707 -0.4033 -0.0681
  171loPI   C3B 2735  11.326   2.177   8.810 -0.1263  0.3256 -0.3485
  171loPI   C4B 2736  11.151   2.181   8.424  0.1492 -0.3393 -0.2067
  172loPI    C1 2737   9.526  16.110  10.693 -0.0054  0.0350 -0.1642
  172loPI    C2 2738   9.910  15.999  10.694 -0.0569 -0.1477 -0.1706
  172loPI    C3 2739   9.812  16.380  10.765  0.1000 -0.1843  0.2723
  172loPI   PO4 2740   9.465  15.987  10.398  0.1930 -0.2821 -0.1297
  172loPI   GL1 2741   9.475  15.945   9.960 -0.0818  0.2640  0.4488
  172loPI   GL2 2742   9.199  16.014   9.920  0.1302  0.0423 -0.0168
  172loPI   C1A 2743   9.605  15.901   9.456  0.0218  0.1500  0.0123
  172loPI   C2A 2744   9.575  15.916   8.998 -0.0526  0.2245 -0.0311
  172loPI   C3A 2745   9.743  15.830   8.671  0.2457 -0.0500  0.5583
  172loPI   C4A 2746  10.059  15.708   8.368  0.0982 -0.0723  0.0706
  172loPI   C5A 2747  10.578  15.848   8.210 -0.2431  0.1419  0.0742
  172loPI   C6A 2748  10.956  15.881   7.960  0.0842 -0.3006  0.1004
  172loPI   C1B 2749   9.211  16.293   9.507 -0.1518 -0.2000  0.2295
  172loPI   C2B 2750   9.644  16.420   9.225  0.0685  0.2107  0.0376
  172loPI   C3B 2751   9.781  16.436   8.772 -0.2919 -0.0061 -0.0502
  172loPI   C4B 2752   9.998  16.238   8.524 -0.0306  0.0194 -0.1566
  173loPI    C1 2753  17.016  11.182  10.596 -0.2833 -0.0880 -0.0143
  173loPI    C2 2754  16.791  11.492  10.480 -0.1215  0.0149 -0.0559
  173loPI    C3 2755  17.150  11.432  10.313 -0.0499 -0.0564  0.1214
  173loPI   PO4 2756  16.954  10.951  10.592 -0.0048 -0.3349 -0.4531
  173loPI   GL1 2757  16.800  10.743  10.267 -0.0327  0.1176 -0.0630
  173loPI   GL2 2758  16.721  11.004  10.135  0.1137  0.0416  0.1127
  173loPI   C1A 2759  16.644  10.626   9.831 -0.1063  0.1548 -0.1034
  173loPI   C2A 2760  16.604  10.619   9.386  0.0471  0.1616 -0.2413
  173loPI   C3A 2761  16.709  10.576   8.996  0.0198 -0.1360  0.0295
  173loPI   C4A 2762  17.099  10.471   8.776 -0.2454  0.0948  0.0975
  173loPI   C5A 2763  17.431  10.403   8.553 -0.1873  0.0639 -0.1815
  173loPI   C6A 2764  17.839  10.355   8.637 -0.1561 -0.0706 -0.0152
  173loPI   C1B 2765  16.805  11.164   9.713  0.0342  0.5178 -0.0598
  173loPI   C2B 2766  16.788  11.115   9.210 -0.0081  0.3968  0.0580
  173loPI   C3B 2767  16.826  11.000   8.746  0.2773 -0.1363  0.1693
  173loPI   C4B 2768  17.194  10.812   8.437  0.2037 -0.2010  0.1178
  174loPI    C1 2769   7.948   2.024  10.485 -0.2172 -0.0154  0.0482
  174loPI    C2 2770   7.985   1.715  10.736  0.1264 -0.1865 -0.2053
  174loPI    C3 2771   8.154   2.066  10.826 -0.1829 -0.0952  0.0374
  174loPI   PO4 2772   7.947   1.926  10.300 -0.2496 -0.0158 -0.3515
  174loPI   GL1 2773   7.875   2.347  10.083 -0.2973  0.1802  0.1796
  174loPI   GL2 2774   7.641   2.175   9.948  0.0118  0.1067  0.3119
  174loPI   C1A 2775   7.961   2.572   9.768  0.3478 -0.3650 -0.0214
  174loPI   C2A 2776   7.995   2.574   9.339  0.0117  0.0885 -0.0202
  174loPI   C3A 2777   7.887   2.735   8.971  0.0566 -0.1997 -0.0409
  174loPI   C4A 2778   7.839   2.935   8.606 -0.0625  0.0610  0.3097
  174loPI   C5A 2779   7.471   3.105   8.382 -0.0116  0.1288  0.0733
  174loPI   C6A 2780   7.622   3.361   8.047 -0.2026  0.0289 -0.0752
  174loPI   C1B 2781   7.698   2.164   9.477  0.0926  0.3788 -0.3166
  174loPI   C2B 2782   7.621   2.332   9.084 -0.2400  0.0309  0.2296
  174loPI   C3B 2783   7.575   2.418   8.663  0.0686 -0.0159  0.0084
  174loPI   C4B 2784   7.951   2.482   8.358 -0.2111  0.2264  0.0340
  175loPI    C1 2785  15.185   9.747  11.104 -0.0556  0.0916  0.0099
  175loPI    C2 2786  15.105   9.884  11.471 -0.1551 -0.0299  0.0341
  175loPI    C3 2787  14.905   9.569  11.327  0.2006 -0.2688  0.0514
  175loPI   PO4 2788  15.147   9.905  10.940 -0.0516 -0.0327  0.1026
  175loPI   GL1 2789  15.087   9.907  10.562 -0.2152 -0.1705  0.0861
  175loPI   GL2 2790  15.088  10.259  10.425 -0.0617  0.0426  0.2351
  175loPI   C1A 2791  14.742   9.893  10.407  0.1893  0.0514  0.0767
  175loPI   C2A 2792  14.513   9.714  10.006 -0.1288  0.3711  0.0857
  175loPI   C3A 2793  14.444   9.551   9.653 -0.0759 -0.2917 -0.0790
  175loPI   C4A 2794  14.461   9.528   9.173 -0.3269 -0.1822 -0.2424
  175loPI   C5A 2795  14.412   9.569   8.676 -0.0489 -0.3664 -0.0827
  175loPI   C6A 2796  14.245   9.495   8.165 -0.1288 -0.0202 -0.0861
  175loPI   C1B 2797  14.955  10.172  10.050  0.0009 -0.1563  0.1265
  175loPI   C2B 2798  14.719  10.053   9.714 -0.0851 -0.0325  0.1917
  175loPI   C3B 2799  14.635  10.109   9.286 -0.0231 -0.2001  0.0329
  175loPI   C4B 2800  14.718  10.000   8.838  0.3865  0.0472  0.1243
  176loPI    C1 2801   9.924   5.951  10.684 -0.1073  0.0502  0.0433
  176loPI    C2 2802   9.877   5.673  10.967  0.2024 -0.1952 -0.1393
  176loPI    C3 2803   9.560   5.805  10.762  0.0434 -0.3672 -0.0087
  176loPI   PO4 2804  10.131   5.833  10.520 -0.1840 -0.0447  0.0545
  176loPI   GL1 2805  10.152   5.533  10.129  0.1791  0.0557  0.2489
  176loPI   GL2 2806  10.335   5.292  10.154  0.1319 -0.2916  0.1375
  176loPI   C1A 2807  10.097   5.600   9.666 -0.3724 -0.0460 -0.2459
  176loPI   C2A 2808  10.098   5.728   9.241 -0.2848 -0.1318  0.1428
  176loPI   C3A 2809   9.956   5.815   8.780 -0.1304  0.0772 -0.0217
  176loPI   C4A 2810  10.113   5.945   8.420 -0.0782 -0.0266 -0.1248
  176loPI   C5A 2811  10.424   5.810   8.153 -0.0884 -0.2393 -0.1550
  176loPI   C6A 2812  10.821   5.541   8.261 -0.0051  0.0668 -0.0130
  176loPI   C1B 2813  10.553   5.390   9.732 -0.0950 -0.3305 -0.0605
  176loPI   C2B 2814  10.667   5.420   9.296  0.0523 -0.1209 -0.0546
  176loPI   C3B 2815  10.916   5.429   8.954 -0.0844 -0.0670 -0.1085
  176loPI   C4B 2816  11.173   5.543   8.620 -0.1486 -0.3510 -0.1520
  177loPI    C1 2817   5.846   1.238  10.724  0.1069 -0.2268 -0.1731
  177loPI    C2 2818   6.227   1.353  10.769  0.0535 -0.1393  0.0693
  177loPI    C3 2819   6.083   1.048  10.985 -0.0788 -0.0181  0.1538
  177loPI   PO4 2820   5.757   1.239  10.541  0.2365  0.3223  0.1319
  177loPI   GL1 2821   5.406   1.269  10.381  0.2499 -0.0618  0.0964
  177loPI   GL2 2822   5.175   1.255  10.455  0.2171  0.0748 -0.2000
  177loPI   C1A 2823   5.321   1.433   9.943 -0.1620 -0.1605  0.0933
  177loPI   C2A 2824   5.381   1.623   9.567  0.0693  0.1860  0.2344
  177loPI   C3A 2825   5.268   1.726   9.207  0.1873  0.2460  0.0933
  177loPI   C4A 2826   5.238   1.816   8.806 -0.1405 -0.1627  0.1919
  177loPI   C5A 2827   5.442   1.892   8.426 -0.2121 -0.0171 -0.3468
  177loPI   C6A 2828   5.560   1.795   8.027  0.1260 -0.1846  0.2065
  177loPI   C1B 2829   4.878   1.284  10.048 -0.0122  0.1569  0.0339
  177loPI   C2B 2830   4.740   1.399   9.722  0.1300 -0.0222  0.0165
  177loPI   C3B 2831   4.858   1.362   9.275 -0.0090 -0.1851 -0.0818
  177loPI   C4B 2832   4.960   1.390   8.791  0.2019 -0.1498  0.0309
  178loPI    C1 2833  15.153  14.776  10.399  0.0513 -0.1745  0.2517
  178loPI    C2 2834  14.772  14.658  10.360  0.0304 -0.0382  0.0223
  178loPI    C3 2835  14.921  14.737  10.723 -0.2415  0.1720  0.0914
  178loPI   PO4 2836  15.194  14.845  10.183  0.0833 -0.1354 -0.3063
  178loPI   GL1 2837  14.943  14.774   9.864  0.0523  0.1436 -0.2530
  178loPI   GL2 2838  14.759  14.389   9.913  0.2948  0.3848  0.1428
  178loPI   C1A 2839  15.166  14.457   9.538  0.1483 -0.3702 -0.3526
  178loPI   C2A 2840  15.175  14.168   9.257  0.2283 -0.0998 -0.0751
  178loPI   C3A 2841  15.269  14.197   8.906 -0.1415  0.0821 -0.0775
  178loPI   C4A 2842  15.250  14.185   8.453  0.0412 -0.0975 -0.0477
  178loPI   C5A 2843  15.478  14.037   8.092  0.1182 -0.0348 -0.0137
  178loPI   C6A 2844  15.184  13.853   7.789 -0.1012 -0.0991  0.0159
  178loPI   C1B 2845  14.679  14.191   9.472 -0.1089  0.0706 -0.0307
  178loPI   C2B 2846  14.709  13.987   9.027  0.0177 -0.1476 -0.1852
  178loPI   C3B 2847  14.911  13.889   8.709  0.0077  0.0459  0.1955
  178loPI   C4B 2848  14.819  13.906   8.276  0.1684  0.1873 -0.4068
  179loPI    C1 2849   2.899   9.799  11.024 -0.0751  0.1919  0.1808
  179loPI    C2 2850   3.005  10.040  10.722  0.1252  0.1299  0.2004
  179loPI    C3 2851   2.947  10.191  11.088  0.2849  0.1455  0.2204
  179loPI   PO4 2852   3.038   9.577  10.968 -0.0845 -0.3944  0.0603
  179loPI   GL1 2853   3.094   9.372  10.680 -0.0215  0.1220  0.4662
  179loPI   GL2 2854   2.915   9.573  10.486  0.0524  0.1948 -0.0672
  179loPI   C1A 2855   3.146   9.103  10.265  0.0080 -0.2458 -0.0118
  179loPI   C2A 2856   3.143   9.168   9.857  0.1197  0.2254  0.2827
  179loPI   C3A 2857   3.125   9.152   9.409 -0.2884  0.0712  0.1926
  179loPI   C4A 2858   2.979   9.207   8.985  0.1318  0.3191  0.0304
  179loPI   C5A 2859   2.794   9.204   8.618  0.0868 -0.2850  0.1236
  179loPI   C6A 2860   2.465   9.334   8.224 -0.0443  0.0648 -0.0826
  179loPI   C1B 2861   2.988   9.584  10.077 -0.0179  0.0733  0.1329
  179loPI   C2B 2862   2.935   9.531   9.687  0.0275 -0.0473  0.1340
  179loPI   C3B 2863   2.813   9.699   9.247  0.0586 -0.1120 -0.1758
  179loPI   C4B 2864   2.702   9.615   8.913 -0.2778  0.1135 -0.3016
  180loPI    C1 2865  11.306   4.083  10.986 -0.0171 -0.1218 -0.4184
  180loPI    C2 2866  11.062   3.811  11.148 -0.0971  0.1472 -0.0755
  180loPI    C3 2867  11.433   3.857  11.290 -0.0271  0.1055 -0.2425
  180loPI   PO4 2868  11.208   4.060  10.755  0.0144  0.0267  0.0884
  180loPI   GL1 2869  11.094   3.903  10.350 -0.1955 -0.2048  0.1393
  180loPI   GL2 2870  10.775   4.116  10.372 -0.3358  0.1720  0.3273
  180loPI   C1A 2871  11.162   4.023   9.869  0.0999 -0.1771  0.3068
  180loPI   C2A 2872  11.030   4.077   9.366  0.1583 -0.0356 -0.0954
  180loPI   C3A 2873  11.027   3.727   9.058 -0.2297  0.0374 -0.0535
  180loPI   C4A 2874  10.955   3.679   8.639  0.0259  0.0571  0.0468
  180loPI   C5A 2875  11.299   3.602   8.257  0.0963  0.2864  0.0025
  180loPI   C6A 2876  11.115   3.597   7.794  0.0126 -0.2257  0.1243
  180loPI   C1B 2877  10.549   4.077   9.987  0.1038 -0.0199  0.1875
  180loPI   C2B 2878  10.509   4.004   9.550  0.1954  0.1052  0.1765
  180loPI   C3B 2879  10.614   4.046   9.150  0.0152  0.1550  0.2133
  180loPI   C4B 2880  10.517   3.916   8.784  0.3118 -0.0971 -0.1172
  181loPI    C1 2881  14.001  17.071  10.775  0.1884  0.3098  0.1172
  181loPI    C2 2882  13.669  17.212  10.949 -0.0830 -0.0756 -0.0727
  181loPI    C3 2883  13.761  16.824  10.978  0.4293  0.0498  0.0908
  181loPI   PO4 2884  13.968  17.192  10.510  0.2481 -0.0348  0.0597
  181loPI   GL1 2885  14.073  17.177  10.072 -0.0839 -0.2930 -0.4037
  181loPI   GL2 2886  13.955  16.921  10.048 -0.0757 -0.0172  0.0304
  181loPI   C1A 2887  14.027  17.502   9.728 -0.1099  0.1393  0.1820
  181loPI   C2A 2888  14.285  17.418   9.414  0.0527 -0.1022  0.1188
  181loPI   C3A 2889  14.261  17.289   9.073 -0.3459  0.1808  0.0321
  181loPI   C4A 2890  14.397  17.234   8.543  0.1513  0.1021 -0.1688
  181loPI   C5A 2891  14.359  17.430   8.168 -0.1978 -0.5020  0.0483
  181loPI   C6A 2892  14.780  17.668   8.067  0.1857  0.3244 -0.0029
  181loPI   C1B 2893  14.273  16.964   9.718 -0.0188  0.0342 -0.0230
  181loPI   C2B 2894  14.512  16.888   9.312  0.1029 -0.1654  0.0459
  181loPI   C3B 2895  14.695  16.537   9.008 -0.0931  0.0828  0.3002
  181loPI   C4B 2896  14.846  16.280   8.724 -0.4550 -0.1897  0.0186
  182loPI    C1 2897   9.769  13.856  10.813 -0.2369 -0.4164  0.0084
  182loPI    C2 2898   9.889  13.937  11.186  0.2044  0.2620 -0.2610
  182loPI    C3 2899  10.055  13.634  10.984 -0.0510 -0.1221  0.0863
  182loPI   PO4 2900   9.762  14.069  10.700  0.0039 -0.0838  0.1558
  182loPI   GL1 2901   9.546  14.357  10.444 -0.0924 -0.0356 -0.0657
  182loPI   GL2 2902   9.331  14.348  10.331  0.1025 -0.0768 -0.1360
  182loPI   C1A 2903   9.813  14.321  10.088  0.2681  0.3039  0.0400
  182loPI   C2A 2904   9.781  14.279   9.669  0.0289  0.2651 -0.0349
  182loPI   C3A 2905   9.958  14.092   9.407  0.1942 -0.1553 -0.0117
  182loPI   C4A 2906   9.752  14.057   8.995  0.1914  0.1308 -0.0151
  182loPI   C5A 2907   9.664  13.873   8.582  0.1168 -0.2354  0.2659
  182loPI   C6A 2908   9.795  14.105   8.198 -0.0608  0.0368 -0.0789
  182loPI   C1B 2909   9.305  14.169   9.918  0.2100 -0.0698  0.1667
  182loPI   C2B 2910   9.275  14.025   9.534  0.1581 -0.0428  0.2052
  182loPI   C3B 2911   9.265  13.954   9.046 -0.0807  0.1399 -0.2572
  182loPI   C4B 2912   9.158  13.781   8.633 -0.1659  0.2185 -0.1345
  183loPI    C1 2913   9.522   7.240  11.094  0.0143  0.2719  0.0761
  183loPI    C2 2914   9.428   7.091  11.453  0.2036  0.2988  0.1383
  183loPI    C3 2915   9.335   7.470  11.363  0.0809  0.2666  0.1272
  183loPI   PO4 2916   9.795   7.219  11.029 -0.2650  0.0346 -0.2854
  183loPI   GL1 2917   9.837   7.393  10.625 -0.0348 -0.3488 -0.1606
  183loPI   GL2 2918   9.527   7.194  10.420  0.1941  0.0512 -0.0536
  183loPI   C1A 2919   9.977   7.226  10.266 -0.4469  0.0605  0.0166
  183loPI   C2A 2920   9.985   7.119   9.794 -0.1170  0.3406 -0.0962
  183loPI   C3A 2921  10.003   7.218   9.456  0.1964 -0.1410  0.0970
  183loPI   C4A 2922  10.057   7.143   8.981 -0.1895 -0.0265  0.2281
  183loPI   C5A 2923  10.000   7.079   8.558 -0.5562 -0.1358 -0.0780
  183loPI   C6A 2924   9.939   6.846   8.316 -0.0227 -0.0927  0.0182
  183loPI   C1B 2925   9.502   7.081   9.928  0.3206 -0.0361  0.4918
  183loPI   C2B 2926   9.454   7.102   9.518  0.1699  0.1017  0.1322
  183loPI   C3B 2927   9.528   7.077   9.137 -0.1019 -0.4074  0.3635
  183loPI   C4B 2928   9.486   6.995   8.737 -0.1747  0.1271  0.2038
  184loPI    C1 2929  12.623   8.214  11.227  0.2072 -0.0734 -0.1310
  184loPI    C2 2930  12.547   7.902  10.989 -0.2093 -0.0990  0.0274
  184loPI    C3 2931  12.650   7.842  11.371  0.0599 -0.0476 -0.0349
  184loPI   PO4 2932  12.898   8.364  11.154  0.0837  0.0050 -0.0264
  184loPI   GL1 2933  12.765   8.411  10.772  0.0398  0.2358  0.0076
  184loPI   GL2 2934  13.098   8.472  10.676  0.3658  0.3961  0.0522
  184loPI   C1A 2935  12.589   8.405  10.339 -0.1702  0.0908  0.0890
  184loPI   C2A 2936  12.385   8.511   9.898  0.1129 -0.0257  0.2123
  184loPI   C3A 2937  12.344   8.476   9.419 -0.0349  0.0089  0.0161
  184loPI   C4A 2938  12.417   8.353   9.002 -0.1115 -0.1708 -0.3710
  184loPI   C5A 2939  12.713   8.211   8.624 -0.2319  0.0771 -0.4853
  184loPI   C6A 2940  13.097   7.951   8.680  0.0386 -0.1286  0.3451
  184loPI   C1B 2941  13.084   8.445  10.289  0.0571 -0.0602 -0.0439
  184loPI   C2B 2942  12.884   8.516   9.892  0.0072 -0.0393 -0.2267
  184loPI   C3B 2943  13.051   8.493   9.475  0.0816  0.2967  0.0646
  184loPI   C4B 2944  13.046   8.488   8.988 -0.3300 -0.0090  0.3632
  185loPI    C1 2945  15.748   0.023  10.482  0.0673  0.1710 -0.0072
  185loPI    C2 2946  15.997  -0.289  10.450  0.0216  0.1497 -0.1648
  185loPI    C3 2947  15.744  -0.265  10.760  0.1273  0.1048 -0.0744
  185loPI   PO4 2948  15.918   0.218  10.399 -0.0014 -0.0662  0.1637
  185loPI   GL1 2949  15.777   0.352  10.035  0.1160 -0.0837  0.2910
  185loPI   GL2 2950  15.701   0.735  10.045  0.0890  0.1372 -0.0738
  185loPI   C1A 2951  15.801   0.389   9.594  0.0960 -0.1102  0.2623
  185loPI   C2A 2952  15.851   0.376   9.133  0.1207 -0.0532  0.1484
  185loPI   C3A 2953  15.809   0.464   8.774  0.0603 -0.0965 -0.0272
  185loPI   C4A 2954  15.647   0.273   8.391  0.0348  0.3528  0.0459
  185loPI   C5A 2955  15.325   0.182   8.106  0.1360 -0.2360 -0.0498
  185loPI   C6A 2956  14.928   0.212   8.129  0.0061 -0.0272  0.3749
  185loPI   C1B 2957  15.559   0.868   9.670 -0.0222 -0.0401  0.2410
  185loPI   C2B 2958  15.481   0.616   9.295 -0.1131 -0.0853  0.0762
  185loPI   C3B 2959  15.307   0.600   8.868 -0.2016  0.2789 -0.0321
  185loPI   C4B 2960  15.018   0.394   8.597 -0.0525  0.0534  0.0157
  186loPI    C1 2961   8.466  13.000  10.606 -0.0764 -0.3469 -0.0144
  186loPI    C2 2962   8.070  13.052  10.633 -0.0607 -0.2611  0.0583
  186loPI    C3 2963   8.301  13.107  10.955  0.0563  0.1038 -0.0838
  186loPI   PO4 2964   8.539  13.156  10.399  0.1445 -0.1049  0.0586
  186loPI   GL1 2965   8.248  13.422  10.155  0.0727  0.3048  0.0173
  186loPI   GL2 2966   8.234  13.115   9.995 -0.3900  0.1978 -0.0554
  186loPI   C1A 2967   8.308  13.563   9.733 -0.0262  0.0457  0.0465
  186loPI   C2A 2968   8.226  13.545   9.294  0.2420 -0.0974  0.1145
  186loPI   C3A 2969   8.152  13.695   8.935 -0.1070 -0.0571  0.1526
  186loPI   C4A 2970   7.960  13.626   8.547 -0.1047 -0.1561  0.2783
  186loPI   C5A 2971   7.794  13.374   8.200 -0.0613  0.3042  0.3367
  186loPI   C6A 2972   7.723  13.083   7.895  0.0394  0.1028  0.2615
  186loPI   C1B 2973   8.078  13.108   9.521 -0.1824 -0.0072  0.1201
  186loPI   C2B 2974   8.017  13.149   9.018 -0.1028 -0.3315 -0.0607
  186loPI   C3B 2975   7.945  13.033   8.642 -0.0141 -0.1439 -0.0443
  186loPI   C4B 2976   8.138  12.939   8.210  0.0261 -0.2079  0.0332
  187loPI    C1 2977   0.629  17.091  10.825 -0.1465 -0.0273 -0.0512
  187loPI    C2 2978   0.488  16.828  11.092 -0.0176  0.0460  0.0904
  187loPI    C3 2979   0.808  17.051  11.181 -0.1651  0.2991 -0.0027
  187loPI   PO4 2980   0.614  16.861  10.627 -0.1020  0.0123  0.1095
  187loPI   GL1 2981   0.741  16.604  10.287 -0.1340 -0.1420  0.0546
  187loPI   GL2 2982   1.090  16.728  10.213 -0.1256  0.4353  0.3734
  187loPI   C1A 2983   0.593  16.582   9.950  0.1354 -0.0244 -0.2447
  187loPI   C2A 2984   0.623  16.625   9.451 -0.0521 -0.0169 -0.1545
  187loPI   C3A 2985   0.633  16.506   8.923  0.0018  0.1339 -0.4901
  187loPI   C4A 2986   0.414  16.494   8.450  0.0584 -0.1447 -0.1308
  187loPI   C5A 2987   0.682  16.585   8.080 -0.0356 -0.2858  0.2091
  187loPI   C6A 2988   0.881  16.793   7.734  0.0093 -0.0820 -0.1853
  187loPI   C1B 2989   1.073  16.752   9.781  0.4151 -0.0029  0.4712
  187loPI   C2B 2990   1.049  16.853   9.381 -0.0628  0.0383  0.1081
  187loPI   C3B 2991   1.152  16.820   8.910  0.2784 -0.1018 -0.1600
  187loPI   C4B 2992   0.980  16.666   8.500  0.0531  0.1492 -0.0484
  188loPI    C1 2993  10.061   6.475  10.847 -0.0627  0.0147 -0.1468
  188loPI    C2 2994  10.384   6.680  10.729 -0.0769  0.0237 -0.1701
  188loPI    C3 2995  10.184   6.792  11.057 -0.0168 -0.0226 -0.1176
  188loPI   PO4 2996  10.066   6.371  10.504  0.1992 -0.0714  0.3566
  188loPI   GL1 2997  10.198   6.473  10.201  0.0388  0.0195 -0.1800
  188loPI   GL2 2998  10.238   6.774  10.296 -0.0160  0.2131 -0.1752
  188loPI   C1A 2999  10.270   6.730   9.802 -0.0947  0.1583 -0.1881
  188loPI   C2A 3000  10.378   6.756   9.385  0.0415  0.0376  0.1167
  188loPI   C3A 3001  10.340   6.679   8.969  0.0078 -0.3373  0.0889
  188loPI   C4A 3002  10.268   6.560   8.528  0.0928 -0.1768 -0.1660
  188loPI   C5A 3003  10.338   6.373   8.267 -0.0908  0.0120  0.1081
  188loPI   C6A 3004  10.747   6.206   8.150  0.1139  0.1186 -0.4029
  188loPI   C1B 3005  10.438   7.116  10.057 -0.1422  0.2498 -0.0067
  188loPI   C2B 3006  10.482   7.288   9.598 -0.0255 -0.3033 -0.0583
  188loPI   C3B 3007  10.482   7.191   9.188  0.0549  0.1886  0.3688
  188loPI   C4B 3008  10.459   7.197   8.681 -0.1736  0.0762  0.3912
  189loPI    C1 3009  16.276  11.672  10.532 -0.0432  0.1198  0.1272
  189loPI    C2 3010  16.136  11.422  10.811  0.3170 -0.0827  0.1326
  189loPI    C3 3011  16.348  11.744  10.919  0.0355  0.1126  0.1140
  189loPI   PO4 3012  16.187  11.481  10.285 -0.0409 -0.1372  0.1184
  189loPI   GL1 3013  15.926  11.465   9.930 -0.2112  0.2163 -0.0510
  189loPI   GL2 3014  15.729  11.363  10.137  0.0502  0.3070 -0.1932
  189loPI   C1A 3015  15.930  11.393   9.463 -0.1391  0.2847  0.0228
  189loPI   C2A 3016  15.925  11.343   9.052 -0.2731 -0.0753  0.1283
  189loPI   C3A 3017  15.972  11.260   8.584  0.1538 -0.0496  0.2793
  189loPI   C4A 3018  15.873  10.932   8.403  0.0565  0.2333 -0.0157
  189loPI   C5A 3019  15.466  10.736   8.336  0.1419  0.1354  0.1131
  189loPI   C6A 3020  15.060  10.719   8.241  0.0172 -0.0182 -0.0730
  189loPI   C1B 3021  15.498  11.372   9.758 -0.1075 -0.1779 -0.0600
  189loPI   C2B 3022  15.445  11.199   9.410  0.1608 -0.3498 -0.1235
  189loPI   C3B 3023  15.442  11.236   9.000  0.1618 -0.1615 -0.2335
  189loPI   C4B 3024  15.430  11.217   8.548 -0.2759  0.2268 -0.2566
  190loPI    C1 3025  13.410  17.840  10.575 -0.0188  0.0440 -0.1335
  190loPI    C2 3026  13.387  17.604  10.898 -0.0398 -0.0155 -0.1785
  190loPI    C3 3027  13.418  17.442  10.533  0.1470  0.0531 -0.1942
  190loPI   PO4 3028  13.243  18.071  10.494 -0.0193  0.1065 -0.1613
  190loPI   GL1 3029  13.446  18.163  10.152  0.0434  0.3560  0.0455
  190loPI   GL2 3030  13.518  17.850  10.053 -0.0236 -0.2744  0.0283
  190loPI   C1A 3031  13.675  18.154   9.709 -0.2916  0.1260 -0.0406
  190loPI   C2A 3032  13.579  18.109   9.403 -0.1228  0.0987  0.2793
  190loPI   C3A 3033  13.622  17.925   9.040 -0.2557  0.0190 -0.0796
  190loPI   C4A 3034  13.502  17.783   8.573  0.1217 -0.0874 -0.0524
  190loPI   C5A 3035  13.369  17.832   8.095  0.3318 -0.2135 -0.2795
  190loPI   C6A 3036  13.410  17.953   7.704 -0.2826 -0.1534  0.3010
  190loPI   C1B 3037  13.574  17.682   9.698 -0.2710  0.1028  0.1266
  190loPI   C2B 3038  13.694  17.485   9.306  0.0861 -0.0809  0.0563
  190loPI   C3B 3039  13.814  17.413   8.957 -0.0130  0.0459 -0.2620
  190loPI   C4B 3040  13.855  17.424   8.485 -0.0554  0.1015  0.0771
  191loPI    C1 3041   2.118  14.900  10.343 -0.0241  0.3365 -0.0735
  191loPI    C2 3042   1.818  15.133  10.469 -0.0742  0.1825  0.0960
  191loPI    C3 3043   1.746  14.837  10.209 -0.0768  0.1213  0.1660
  191loPI   PO4 3044   2.312  15.136  10.355  0.0823 -0.1940  0.0005
  191loPI   GL1 3045   2.206  15.250   9.994  0.0385  0.1081 -0.3332
  191loPI   GL2 3046   1.893  15.278  10.033 -0.0030  0.0092 -0.0139
  191loPI   C1A 3047   2.346  15.091   9.676  0.2302  0.0350  0.0086
  191loPI   C2A 3048   2.221  14.942   9.165 -0.3701 -0.1399  0.1994
  191loPI   C3A 3049   2.229  14.738   8.728 -0.0456  0.0455  0.0274
  191loPI   C4A 3050   2.424  14.386   8.481  0.1120 -0.1349  0.0423
  191loPI   C5A 3051   2.191  14.042   8.362 -0.2662 -0.4446 -0.1585
  191loPI   C6A 3052   1.744  13.862   8.472  0.3488  0.1392 -0.0352
  191loPI   C1B 3053   1.860  15.187   9.619 -0.0239 -0.0785 -0.0780
  191loPI   C2B 3054   1.675  15.101   9.240  0.0394 -0.0529  0.1741
  191loPI   C3B 3055   1.705  14.855   8.796 -0.0258  0.3175 -0.0728
  191loPI   C4B 3056   1.643  14.575   8.506  0.1998  0.2246  0.2590
  192loPI    C1 3057   1.404  11.918  10.669 -0.1579  0.1035  0.0716
  192loPI    C2 3058   1.430  12.209  10.942 -0.0698 -0.0060  0.1815
  192loPI    C3 3059   1.326  11.839  11.054 -0.3216  0.0140  0.0209
  192loPI   PO4 3060   1.664  11.850  10.603 -0.1106  0.0158 -0.2481
  192loPI   GL1 3061   1.756  12.074  10.280 -0.0988  0.1866 -0.0225
  192loPI   GL2 3062   1.526  12.238  10.337 -0.2316  0.2036 -0.0783
  192loPI   C1A 3063   1.816  11.995   9.857  0.1614 -0.0640  0.1798
  192loPI   C2A 3064   1.811  11.882   9.415  0.1411 -0.0569 -0.1117
  192loPI   C3A 3065   1.893  12.031   8.897  0.2232 -0.2373  0.0438
  192loPI   C4A 3066   1.752  11.664   8.624 -0.0994  0.1615  0.0740
  192loPI   C5A 3067   1.519  11.575   8.371 -0.1685 -0.1002 -0.2808
  192loPI   C6A 3068   1.571  11.294   8.178  0.0556  0.0793  0.1440
  192loPI   C1B 3069   1.582  12.451  10.040  0.0751  0.0214 -0.4193
  192loPI   C2B 3070   1.844  12.776   9.740 -0.1728  0.2621  0.1139
  192loPI   C3B 3071   2.048  12.804   9.345  0.1247  0.0878  0.1361
  192loPI   C4B 3072   2.170  12.760   8.976 -0.1614 -0.0005 -0.1895
  193loPI    C1 3073  14.595   1.379  10.612  0.1081 -0.0626 -0.1201
  193loPI    C2 3074  14.286   1.285  10.847 -0.1122  0.3327 -0.2427
  193loPI    C3 3075  14.591   1.030  10.807 -0.1921  0.1464  0.2615
  193loPI   PO4 3076  14.424   1.621  10.464  0.0689 -0.1101  0.1773
  193loPI   GL1 3077  14.303   1.696  10.084 -0.1051  0.0839  0.0758
  193loPI   GL2 3078  14.372   1.386  10.022  0.0254  0.0604 -0.1276
  193loPI   C1A 3079  14.634   1.875   9.837  0.0791  0.2151 -0.0600
  193loPI   C2A 3080  14.388   2.024   9.542  0.0929 -0.1993 -0.0616
  193loPI   C3A 3081  14.302   2.120   9.132 -0.1529 -0.0816 -0.5649
  193loPI   C4A 3082  14.290   2.086   8.682  0.2105 -0.0253  0.1658
  193loPI   C5A 3083  14.361   2.030   8.152  0.0348 -0.2173 -0.0080
  193loPI   C6A 3084  14.351   2.077   7.759  0.0650 -0.2495 -0.0448
  193loPI   C1B 3085  14.424   1.523   9.629  0.1584  0.3177 -0.1308
  193loPI   C2B 3086  14.291   1.649   9.235 -0.1480 -0.1715 -0.0126
  193loPI   C3B 3087  14.170   1.565   8.744  0.1395 -0.1203  0.0817
  193loPI   C4B 3088  14.038   1.737   8.395 -0.1039  0.1142 -0.1997
  194loPI    C1 3089  11.070  11.999  11.019 -0.2295  0.0055 -0.1034
  194loPI    C2 3090  11.392  12.019  11.256 -0.1104 -0.0297 -0.2605
  194loPI    C3 3091  11.093  12.280  11.302 -0.2183 -0.2124  0.1159
  194loPI   PO4 3092  11.101  11.883  10.812  0.2077 -0.0648 -0.0328
  194loPI   GL1 3093  11.057  12.082  10.369  0.3860  0.1479  0.0642
  194loPI   GL2 3094  10.947  11.756  10.184 -0.2381 -0.0933  0.0415
  194loPI   C1A 3095  11.081  12.248   9.968 -0.0932  0.1049  0.1915
  194loPI   C2A 3096  11.041  12.281   9.530  0.0897 -0.1514  0.1688
  194loPI   C3A 3097  10.954  12.320   9.121  0.0324  0.1426 -0.0496
  194loPI   C4A 3098  11.041  12.313   8.775  0.1188  0.1460 -0.1623
  194loPI   C5A 3099  11.022  12.306   8.328  0.2201  0.0003  0.2015
  194loPI   C6A 3100  11.281  12.118   8.057 -0.1439 -0.0009 -0.1562
  194loPI   C1B 3101  10.975  11.756   9.696 -0.0127  0.0032 -0.0209
  194loPI   C2B 3102  10.763  11.891   9.349  0.0847 -0.0668 -0.1346
  194loPI   C3B 3103  10.829  11.857   8.883  0.3342  0.0026 -0.0974
  194loPI   C4B 3104  10.812  11.781   8.447  0.1103  0.1377  0.0090
  195loPI    C1 3105   9.641   8.554  11.018 -0.2266  0.1683  0.2398
  195loPI    C2 3106   9.980   8.672  11.195 -0.0265  0.1645 -0.1314
  195loPI    C3 3107   9.893   8.283  11.170 -0.0181  0.1611 -0.1089
  195loPI   PO4 3108   9.574   8.668  10.772  0.1027 -0.1336  0.0971
  195loPI   GL1 3109   9.435   8.516  10.418  0.1102 -0.1896 -0.2452
  195loPI   GL2 3110   9.389   8.728  10.240  0.1341  0.1202 -0.3536
  195loPI   C1A 3111   9.323   8.394   9.937 -0.1526  0.0697  0.0763
  195loPI   C2A 3112   9.298   8.605   9.584 -0.1865  0.0761 -0.1081
  195loPI   C3A 3113   9.491   8.479   9.256 -0.3801 -0.0417 -0.1430
  195loPI   C4A 3114   9.519   8.523   8.926  0.1034 -0.2310  0.1912
  195loPI   C5A 3115   9.372   8.429   8.442 -0.0834 -0.0150 -0.1670
  195loPI   C6A 3116   9.082   8.593   8.132  0.0097  0.1782  0.3864
  195loPI   C1B 3117   9.466   8.967   9.927  0.1594 -0.1081 -0.1622
  195loPI   C2B 3118   9.553   8.967   9.428 -0.1639  0.1828 -0.3358
  195loPI   C3B 3119   9.711   8.960   9.033  0.1437 -0.3426  0.0659
  195loPI   C4B 3120   9.705   8.889   8.624 -0.1713 -0.2150  0.0708
  196loPI    C1 3121   4.023  16.406  10.904 -0.1271 -0.0950  0.0636
  196loPI    C2 3122   3.820  16.189  11.171 -0.1944 -0.0026  0.0883
  196loPI    C3 3123   4.164  16.364  11.276 -0.1681 -0.0514  0.0842
  196loPI   PO4 3124   3.945  16.297  10.670 -0.0648  0.0719  0.1341
  196loPI   GL1 3125   3.659  16.382  10.287  0.0861  0.1909  0.2195
  196loPI   GL2 3126   3.369  16.236  10.252 -0.0844 -0.0160 -0.0874
  196loPI   C1A 3127   3.759  16.308   9.876  0.2669  0.2727 -0.2510
  196loPI   C2A 3128   3.916  16.158   9.486  0.1860 -0.1305  0.3635
  196loPI   C3A 3129   3.932  16.032   9.088 -0.0229  0.1508  0.0903
  196loPI   C4A 3130   3.718  16.033   8.717 -0.1503 -0.1167 -0.1079
  196loPI   C5A 3131   3.593  15.802   8.371 -0.2223 -0.3316 -0.1064
  196loPI   C6A 3132   3.301  15.958   8.174  0.1145 -0.1009  0.0662
  196loPI   C1B 3133   3.306  16.054   9.832 -0.0704  0.3332 -0.0079
  196loPI   C2B 3134   3.436  16.252   9.415  0.1229 -0.1003  0.1251
  196loPI   C3B 3135   3.635  16.513   9.170  0.3809  0.3287 -0.2016
  196loPI   C4B 3136   3.758  16.522   8.803 -0.2719 -0.0434 -0.2037
  197loPI    C1 3137  13.410  10.961  10.974 -0.1302  0.1098 -0.0385
  197loPI    C2 3138  13.475  11.158  11.316 -0.1650 -0.1260  0.1059
  197loPI    C3 3139  13.379  10.770  11.323  0.1776 -0.2213 -0.1860
  197loPI   PO4 3140  13.536  11.163  10.792 -0.0213  0.0380  0.0465
  197loPI   GL1 3141  13.442  11.357  10.463  0.0781  0.2961 -0.0398
  197loPI   GL2 3142  13.749  11.550  10.473  0.2948 -0.2105 -0.0630
  197loPI   C1A 3143  13.555  11.277  10.040 -0.0700  0.1002  0.0820
  197loPI   C2A 3144  13.702  11.251   9.726  0.0732  0.1799  0.1693
  197loPI   C3A 3145  13.591  11.243   9.313  0.2106 -0.1406  0.0453
  197loPI   C4A 3146  13.636  11.255   8.815  0.0449 -0.1434  0.1670
  197loPI   C5A 3147  13.902  11.320   8.497  0.5145 -0.1820  0.3157
  197loPI   C6A 3148  14.252  11.278   8.226 -0.2343 -0.2426  0.3215
  197loPI   C1B 3149  13.831  11.728  10.101  0.0808 -0.0698  0.3898
  197loPI   C2B 3150  13.937  11.847   9.778  0.3521 -0.1223 -0.1202
  197loPI   C3B 3151  13.800  11.714   9.378  0.0920  0.1693  0.0190
  197loPI   C4B 3152  13.839  11.772   8.939  0.2691  0.0091 -0.0936
  198loPI    C1 3153  17.116  15.680  10.568  0.0152 -0.0984  0.3560
  198loPI    C2 3154  16.804  15.925  10.619  0.0710  0.0277  0.1096
  198loPI    C3 3155  16.947  15.715  10.929 -0.2001  0.0368  0.2440
  198loPI   PO4 3156  17.150  15.828  10.275  0.0359 -0.0378 -0.0201
  198loPI   GL1 3157  17.120  16.071   9.859 -0.1747  0.1779  0.2610
  198loPI   GL2 3158  17.138  16.372   9.758  0.0308  0.2421  0.0332
  198loPI   C1A 3159  16.925  15.939   9.477 -0.1912 -0.0509  0.1395
  198loPI   C2A 3160  17.241  15.790   9.189  0.2214 -0.1034  0.1493
  198loPI   C3A 3161  17.247  15.717   8.822 -0.1186  0.2019  0.0034
  198loPI   C4A 3162  17.307  15.650   8.393 -0.5134 -0.2829  0.1379
  198loPI   C5A 3163  17.411  15.326   8.103  0.3306  0.0808  0.1057
  198loPI   C6A 3164  17.716  15.025   7.970 -0.0211 -0.1199 -0.3252
  198loPI   C1B 3165  17.264  16.286   9.295 -0.1589  0.1450  0.1259
  198loPI   C2B 3166  17.190  16.278   8.886 -0.1194 -0.1250  0.1740
  198loPI   C3B 3167  16.994  16.328   8.563 -0.1223 -0.0810  0.0880
  198loPI   C4B 3168  16.994  16.696   8.852  0.3671 -0.0022  0.1393
  199loPI    C1 3169   4.095   3.985  10.969 -0.3203  0.0390  0.1698
  199loPI    C2 3170   4.095   4.352  11.128 -0.0093  0.0750  0.0944
  199loPI    C3 3171   4.218   4.040  11.346 -0.3092  0.0064  0.1709
  199loPI   PO4 3172   4.199   4.038  10.733  0.1685  0.0363 -0.1687
  199loPI   GL1 3173   4.274   4.058  10.408 -0.3266 -0.0825  0.1366
  199loPI   GL2 3174   4.343   4.358  10.303 -0.1013  0.0177  0.1107
  199loPI   C1A 3175   4.135   3.983  10.040 -0.0473 -0.1041 -0.0573
  199loPI   C2A 3176   4.030   4.174   9.600  0.0063  0.2326 -0.0545
  199loPI   C3A 3177   4.100   4.160   9.230  0.2788 -0.3238  0.1683
  199loPI   C4A 3178   4.050   4.087   8.766 -0.1597 -0.2258  0.0526
  199loPI   C5A 3179   3.777   3.870   8.428 -0.0988  0.0188 -0.0922
  199loPI   C6A 3180   3.727   3.641   8.077  0.1663 -0.0793  0.0792
  199loPI   C1B 3181   4.339   4.498   9.944 -0.0784  0.2848  0.4014
  199loPI   C2B 3182   4.408   4.588   9.438  0.0405 -0.1791 -0.1038
  199loPI   C3B 3183   4.350   4.520   9.043 -0.0046 -0.0005 -0.2082
  199loPI   C4B 3184   4.402   4.558   8.599  0.3279 -0.0272 -0.0937
  200loPI    C1 3185  11.580  13.293  11.009  0.0376 -0.1072  0.1418
  200loPI    C2 3186  11.929  13.254  11.201  0.1522  0.2280  0.0092
  200loPI    C3 3187  11.660  13.523  11.327  0.0509  0.1533 -0.0463
  200loPI   PO4 3188  11.710  13.283  10.763  0.7329 -0.0258 -0.0639
  200loPI   GL1 3189  11.608  13.367  10.277 -0.0152  0.0679  0.0639
  200loPI   GL2 3190  11.893  13.296  10.287 -0.6344  0.0936 -0.2278
  200loPI   C1A 3191  11.436  13.187   9.914  0.0775  0.2210 -0.1197
  200loPI   C2A 3192  11.355  13.236   9.572  0.0808 -0.3298  0.1475
  200loPI   C3A 3193  11.400  13.227   9.171 -0.1322  0.1652 -0.1436
  200loPI   C4A 3194  11.391  13.213   8.778 -0.1201 -0.0821 -0.1329
  200loPI   C5A 3195  11.437  13.166   8.326 -0.2779  0.2753 -0.0083
  200loPI   C6A 3196  11.797  13.376   8.032 -0.0828  0.2733 -0.0643
  200loPI   C1B 3197  11.909  13.382   9.842  0.1966 -0.1172 -0.2398
  200loPI   C2B 3198  11.863  13.296   9.461 -0.1419 -0.1175 -0.1355
  200loPI   C3B 3199  12.006  13.312   9.063  0.1594  0.3537 -0.2020
  200loPI   C4B 3200  12.068  13.259   8.560  0.1898 -0.3165  0.1249
  201loPI    C1 3201   2.091   7.317  10.725 -0.2048 -0.0231 -0.1770
  201loPI    C2 3202   1.833   7.618  10.777 -0.0975  0.0623 -0.1324
  201loPI    C3 3203   1.996   7.437  11.094 -0.1197 -0.0068 -0.1601
  201loPI   PO4 3204   1.912   7.155  10.506  0.1596  0.3561 -0.1876
  201loPI   GL1 3205   1.977   7.140  10.082  0.0142  0.1020  0.1952
  201loPI   GL2 3206   1.871   6.839   9.989 -0.0357 -0.3342  0.0713
  201loPI   C1A 3207   2.300   7.022   9.738  0.1127  0.0665  0.1376
  201loPI   C2A 3208   2.189   7.193   9.356 -0.0603  0.1144  0.2667
  201loPI   C3A 3209   2.318   7.246   9.031  0.2212 -0.1810  0.0874
  201loPI   C4A 3210   2.641   7.475   8.779 -0.2806 -0.1397 -0.3022
  201loPI   C5A 3211   2.735   7.839   8.584 -0.1707 -0.0735  0.0782
  201loPI   C6A 3212   2.739   8.212   8.380 -0.1939  0.0569  0.0870
  201loPI   C1B 3213   1.948   6.785   9.475 -0.0020 -0.2460  0.0585
  201loPI   C2B 3214   2.026   6.735   9.031  0.2399 -0.1962  0.1131
  201loPI   C3B 3215   2.042   6.781   8.665 -0.2219 -0.0633 -0.1741
  201loPI   C4B 3216   2.120   6.628   8.278 -0.0899  0.1498  0.1005
  202loPI    C1 3217  14.928  16.069  10.250 -0.2185  0.1075  0.0225
  202loPI    C2 3218  14.936  16.449  10.373 -0.0518  0.1229 -0.0341
  202loPI    C3 3219  15.092  16.161  10.602  0.0737  0.1254 -0.1150
  202loPI   PO4 3220  14.989  16.098   9.947 -0.0238 -0.4842 -0.2626
  202loPI   GL1 3221  14.923  16.006   9.618 -0.2014  0.0142 -0.0290
  202loPI   GL2 3222  14.615  16.092   9.480  0.0949  0.1214 -0.0406
  202loPI   C1A 3223  15.092  16.145   9.267  0.3522 -0.3147 -0.0942
  202loPI   C2A 3224  15.257  16.052   8.897 -0.3925  0.2034  0.2534
  202loPI   C3A 3225  15.305  15.867   8.418 -0.2116 -0.1241 -0.0515
  202loPI   C4A 3226  15.505  15.764   8.098 -0.0835  0.2246  0.1542
  202loPI   C5A 3227  15.853  15.920   7.768 -0.0422  0.2027  0.3045
  202loPI   C6A 3228  16.215  15.925   7.561 -0.0294  0.1270 -0.1396
  202loPI   C1B 3229  14.680  15.875   9.039 -0.1524 -0.0938 -0.3097
  202loPI   C2B 3230  14.739  15.829   8.562  0.0733 -0.1710 -0.1058
  202loPI   C3B 3231  14.594  15.565   8.258  0.0629 -0.1230 -0.1327
  202loPI   C4B 3232  14.417  15.538   7.969  0.3444  0.0471 -0.0683
  203loPI    C1 3233  12.210  17.601  10.492 -0.0541  0.0414 -0.1772
  203loPI    C2 3234  11.899  17.684  10.730  0.1534  0.0307  0.1028
  203loPI    C3 3235  12.048  17.313  10.717 -0.0067 -0.0256 -0.2289
  203loPI   PO4 3236  12.127  17.619  10.243 -0.1113  0.1571  0.1069
  203loPI   GL1 3237  12.305  17.803   9.926 -0.0430  0.1238 -0.1031
  203loPI   GL2 3238  12.534  17.916   9.751 -0.3206 -0.1322 -0.1671
  203loPI   C1A 3239  12.476  17.402   9.640  0.1328  0.0719 -0.2161
  203loPI   C2A 3240  12.767  17.257   9.407 -0.2311 -0.2648 -0.2882
  203loPI   C3A 3241  12.880  17.191   8.978  0.7056 -0.0612  0.0598
  203loPI   C4A 3242  13.039  16.981   8.623  0.0205 -0.3320 -0.2308
  203loPI   C5A 3243  12.939  16.759   8.264  0.1198  0.0729  0.0825
  203loPI   C6A 3244  12.887  16.472   7.915 -0.0209 -0.0995 -0.2113
  203loPI   C1B 3245  12.691  17.826   9.353  0.1621  0.2957  0.1081
  203loPI   C2B 3246  12.640  17.661   8.858  0.1035  0.0722 -0.1126
  203loPI   C3B 3247  12.577  17.673   8.408 -0.2804 -0.1029  0.2814
  203loPI   C4B 3248  12.503  18.071   8.144 -0.0861 -0.0362 -0.0287
  204loPI    C1 3249  16.704   7.572  11.012  0.2807 -0.0077 -0.1160
  204loPI    C2 3250  16.861   7.711  11.352  0.1829 -0.0428 -0.0562
  204loPI    C3 3251  16.749   7.328  11.326  0.1674 -0.0339 -0.1198
  204loPI   PO4 3252  16.914   7.613  10.779 -0.2921 -0.2859  0.1704
  204loPI   GL1 3253  17.161   7.571  10.325  0.1708 -0.0851 -0.0813
  204loPI   GL2 3254  17.045   7.986  10.502 -0.0895  0.0800  0.0662
  204loPI   C1A 3255  17.094   7.432   9.986 -0.0219  0.1498  0.1006
  204loPI   C2A 3256  17.054   7.378   9.514 -0.5289 -0.2828 -0.1090
  204loPI   C3A 3257  16.966   7.347   9.151 -0.2226 -0.2559 -0.0442
  204loPI   C4A 3258  16.770   7.381   8.756  0.0389  0.2390  0.1698
  204loPI   C5A 3259  16.715   7.579   8.431  0.3314 -0.0264  0.0856
  204loPI   C6A 3260  16.699   7.618   7.991 -0.0499 -0.2751  0.3332
  204loPI   C1B 3261  16.860   7.856  10.118 -0.0353  0.2045  0.0368
  204loPI   C2B 3262  16.752   7.723   9.758 -0.3893  0.0290 -0.1459
  204loPI   C3B 3263  16.667   7.733   9.335  0.1015 -0.0526  0.2158
  204loPI   C4B 3264  16.453   7.830   8.937  0.1588  0.0876 -0.0482
  205loPI    C1 3265  13.371  13.462  10.771  0.0327 -0.1009 -0.0239
  205loPI    C2 3266  13.496  13.782  10.975 -0.1261 -0.0985  0.0710
  205loPI    C3 3267  13.317  13.480  11.167 -0.1158 -0.1758 -0.0400
  205loPI   PO4 3268  13.230  13.509  10.524  0.0152  0.4050  0.2468
  205loPI   GL1 3269  13.006  13.503  10.238 -0.1632 -0.1783 -0.1159
  205loPI   GL2 3270  12.775  13.630  10.200 -0.0091  0.0266 -0.2043
  205loPI   C1A 3271  13.008  13.565   9.786  0.0740 -0.0388 -0.2011
  205loPI   C2A 3272  12.924  13.515   9.361  0.2785 -0.0935 -0.1554
  205loPI   C3A 3273  12.890  13.622   8.871  0.2823  0.0731 -0.0514
  205loPI   C4A 3274  12.962  13.534   8.452  0.0858 -0.0649  0.0576
  205loPI   C5A 3275  13.014  13.420   8.112 -0.0366  0.3769  0.0060
  205loPI   C6A 3276  12.914  13.311   7.716  0.0539 -0.3425  0.0345
  205loPI   C1B 3277  12.749  13.976   9.963  0.1046 -0.1490  0.1508
  205loPI   C2B 3278  13.066  14.017   9.604 -0.0278 -0.1965 -0.1050
  205loPI   C3B 3279  13.104  13.980   9.132 -0.1000 -0.0949  0.0393
  205loPI   C4B 3280  13.178  13.985   8.647 -0.2124  0.1794 -0.0375
  206loPI    C1 3281   6.642   3.608  10.807 -0.2377 -0.1428  0.0482
  206loPI    C2 3282   6.579   3.834  10.483 -0.2330 -0.2582 -0.0338
  206loPI    C3 3283   6.386   3.915  10.824 -0.1383 -0.0552 -0.0270
  206loPI   PO4 3284   6.859   3.462  10.681  0.1426 -0.3043  0.0777
  206loPI   GL1 3285   6.942   3.480  10.213 -0.3233  0.2415 -0.3094
  206loPI   GL2 3286   6.771   3.096  10.314  0.2984 -0.0602 -0.0008
  206loPI   C1A 3287   7.063   3.704   9.838  0.0555  0.1067 -0.0235
  206loPI   C2A 3288   7.031   3.803   9.392 -0.2336  0.0821  0.1025
  206loPI   C3A 3289   6.860   4.108   9.001 -0.0440 -0.0939 -0.2707
  206loPI   C4A 3290   7.021   4.057   8.621  0.0683 -0.2802  0.1067
  206loPI   C5A 3291   7.213   4.123   8.233  0.1079 -0.2316 -0.1277
  206loPI   C6A 3292   7.554   4.209   7.990  0.0487  0.1111 -0.1301
  206loPI   C1B 3293   6.907   3.036   9.871  0.2100 -0.4412 -0.2248
  206loPI   C2B 3294   6.904   3.199   9.542 -0.1254  0.2182  0.3326
  206loPI   C3B 3295   6.991   3.098   9.175  0.0346  0.1417 -0.0357
  206loPI   C4B 3296   6.781   3.511   8.973  0.3203 -0.3567 -0.0582
  207loPI    C1 3297  17.197   3.013  10.525 -0.2060 -0.0477  0.0456
  207loPI    C2 3298  17.171   2.861  10.894 -0.2214 -0.0885  0.0278
  207loPI    C3 3299  17.084   3.246  10.830 -0.3146 -0.1056  0.0503
  207loPI   PO4 3300  17.226   2.795  10.382 -0.2289  0.1619 -0.0359
  207loPI   GL1 3301  17.016   2.673  10.014 -0.0894 -0.0485 -0.1907
  207loPI   GL2 3302  16.934   2.339  10.150  0.0597 -0.0463  0.1656
  207loPI   C1A 3303  16.809   2.557   9.562  0.1362  0.0005  0.3163
  207loPI   C2A 3304  16.824   2.630   9.168  0.0952  0.2509  0.0785
  207loPI   C3A 3305  17.035   2.438   8.895  0.0301  0.0643  0.0989
  207loPI   C4A 3306  17.294   2.413   8.527  0.2961  0.0188 -0.0683
  207loPI   C5A 3307  17.670   2.441   8.263 -0.2231 -0.2691  0.0671
  207loPI   C6A 3308  17.789   2.793   7.939  0.1533  0.1237 -0.1089
  207loPI   C1B 3309  16.998   2.160   9.765 -0.2455 -0.0991 -0.0669
  207loPI   C2B 3310  17.125   2.126   9.322  0.3018  0.0895 -0.1423
  207loPI   C3B 3311  17.448   2.157   8.985 -0.0262 -0.0516  0.0040
  207loPI   C4B 3312  17.594   1.934   8.680 -0.0773 -0.1351 -0.1470
  208loPI    C1 3313  12.385  15.636  10.506  0.1557 -0.1795  0.1222
  208loPI    C2 3314  12.018  15.733  10.631  0.0639 -0.0718 -0.2187
  208loPI    C3 3315  12.325  15.735  10.889 -0.0530  0.4876 -0.0699
  208loPI   PO4 3316  12.308  15.388  10.415 -0.1400  0.1040 -0.1082
  208loPI   GL1 3317  12.463  15.313   9.968  0.0013 -0.0478 -0.1080
  208loPI   GL2 3318  12.647  15.605  10.056  0.1606  0.1521 -0.1402
  208loPI   C1A 3319  12.360  15.211   9.522 -0.0551  0.0319 -0.1952
  208loPI   C2A 3320  12.413  15.057   9.083  0.0786 -0.0655  0.4132
  208loPI   C3A 3321  12.440  14.956   8.691  0.2430 -0.0608 -0.1671
  208loPI   C4A 3322  12.390  14.677   8.390 -0.1586 -0.4254 -0.1411
  208loPI   C5A 3323  12.117  14.770   8.019 -0.0678  0.0150 -0.0680
  208loPI   C6A 3324  11.791  14.515   7.700  0.0456 -0.1773 -0.0224
  208loPI   C1B 3325  12.807  15.341   9.657 -0.0714 -0.2827 -0.1750
  208loPI   C2B 3326  12.871  15.313   9.248  0.0786  0.0817  0.1051
  208loPI   C3B 3327  12.874  15.245   8.820 -0.0635  0.0260 -0.1021
  208loPI   C4B 3328  13.056  15.299   8.427  0.0909 -0.2357  0.0882
  209loPI    C1 3329  13.800   9.103  11.318  0.4548  0.1317 -0.0595
  209loPI    C2 3330  13.804   9.491  11.220  0.2376  0.1365 -0.0542
  209loPI    C3 3331  13.663   9.376  11.577  0.0171  0.0286 -0.1742
  209loPI   PO4 3332  13.739   8.951  11.050 -0.1082  0.0191  0.0985
  209loPI   GL1 3333  14.003   8.764  10.671  0.3650  0.0864 -0.2459
  209loPI   GL2 3334  14.109   9.040  10.560 -0.1412  0.5366  0.2753
  209loPI   C1A 3335  13.810   8.694  10.294 -0.0235  0.1914  0.2818
  209loPI   C2A 3336  13.532   8.547  10.070  0.0514  0.1336 -0.2081
  209loPI   C3A 3337  13.594   8.595   9.655  0.0969  0.0236  0.0209
  209loPI   C4A 3338  13.544   8.557   9.224 -0.0473  0.2287  0.1774
  209loPI   C5A 3339  13.491   8.768   8.721  0.2021  0.0034 -0.0465
  209loPI   C6A 3340  13.710   8.699   8.446  0.2069 -0.0803 -0.1480
  209loPI   C1B 3341  14.221   9.147  10.043 -0.1328  0.0422  0.0972
  209loPI   C2B 3342  14.260   9.061   9.557  0.3374 -0.1127  0.0659
  209loPI   C3B 3343  14.189   9.101   9.086  0.0892  0.3282  0.0330
  209loPI   C4B 3344  14.502   9.075   8.747  0.1091 -0.0236  0.0716
  210loPI    C1 3345  14.112   9.930  11.044 -0.0750  0.0924  0.2183
  210loPI    C2 3346  13.952  10.250  10.866 -0.2430 -0.0029  0.1952
  210loPI    C3 3347  14.306  10.279  11.050 -0.1474  0.1384 -0.0064
  210loPI   PO4 3348  14.114   9.733  10.882 -0.1572  0.2177  0.0220
  210loPI   GL1 3349  13.923   9.597  10.617 -0.2587 -0.3159 -0.0250
  210loPI   GL2 3350  13.753   9.370  10.671  0.1506  0.0838 -0.0281
  210loPI   C1A 3351  14.057   9.646  10.206  0.2765  0.1909 -0.0969
  210loPI   C2A 3352  13.872   9.635   9.855 -0.0200  0.2007  0.1032
  210loPI   C3A 3353  13.872   9.541   9.512 -0.1980  0.1193 -0.0326
  210loPI   C4A 3354  13.835   9.515   9.028 -0.0662 -0.0550  0.1542
  210loPI   C5A 3355  13.830   9.611   8.562  0.0006  0.4122  0.1757
  210loPI   C6A 3356  13.894   9.888   8.175 -0.0284 -0.0045  0.0106
  210loPI   C1B 3357  13.756   9.187  10.222  0.1510 -0.0328  0.3412
  210loPI   C2B 3358  13.789   9.056   9.830 -0.3612  0.3416 -0.3084
  210loPI   C3B 3359  13.721   9.105   9.430  0.0211 -0.0313  0.2108
  210loPI   C4B 3360  13.662   8.998   9.111  0.1138 -0.1857 -0.0567
  211loPI    C1 3361   8.881   0.498  10.505 -0.1362 -0.0086  0.2451
  211loPI    C2 3362   8.931   0.104  10.551  0.0078 -0.0164  0.0396
  211loPI    C3 3363   9.249   0.340  10.497 -0.0878  0.1110  0.0295
  211loPI   PO4 3364   8.688   0.658  10.268 -0.0803 -0.0288 -0.0877
  211loPI   GL1 3365   8.720   0.880   9.892 -0.0673  0.2043 -0.3999
  211loPI   GL2 3366   8.912   1.114   9.922 -0.1385 -0.1446  0.0965
  211loPI   C1A 3367   8.827   0.802   9.481  0.0703 -0.0024 -0.1097
  211loPI   C2A 3368   8.805   0.912   8.991 -0.1073 -0.0445 -0.3276
  211loPI   C3A 3369   8.954   0.896   8.490  0.1585  0.1346  0.0542
  211loPI   C4A 3370   9.087   0.806   8.107  0.0430 -0.2043  0.1163
  211loPI   C5A 3371   9.215   1.009   7.715  0.1213  0.1123 -0.0165
  211loPI   C6A 3372   9.301   1.438   7.495 -0.1414 -0.0481 -0.2215
  211loPI   C1B 3373   8.755   1.337   9.513  0.0755  0.2501 -0.0347
  211loPI   C2B 3374   8.707   1.424   9.134 -0.1066 -0.1989  0.0921
  211loPI   C3B 3375   8.641   1.370   8.710  0.0252 -0.0745 -0.0912
  211loPI   C4B 3376   8.701   1.261   8.295 -0.0017 -0.3119  0.0236
  212loPI    C1 3377  17.855   9.293  10.951  0.0452  0.1446 -0.1958
  212loPI    C2 3378  18.166   9.543  10.981  0.0107  0.1466  0.1974
  212loPI    C3 3379  17.797   9.675  11.058 -0.0272  0.0172  0.2409
  212loPI   PO4 3380  17.962   9.090  10.675 -0.4832  0.2205  0.0426
  212loPI   GL1 3381  18.315   9.132  10.293 -0.2071 -0.2311  0.3207
  212loPI   GL2 3382  18.555   8.926  10.257 -0.1833  0.1025  0.0737
  212loPI   C1A 3383  18.248   9.202   9.870 -0.1079 -0.1326 -0.1555
  212loPI   C2A 3384  18.351   9.097   9.548 -0.1357  0.1081 -0.1833
  212loPI   C3A 3385  18.177   8.951   9.217  0.2128 -0.2062  0.0546
  212loPI   C4A 3386  17.981   9.173   8.932 -0.1912 -0.0240  0.0005
  212loPI   C5A 3387  17.977   9.587   8.753 -0.2299 -0.0212  0.1858
  212loPI   C6A 3388  17.946   9.863   8.411  0.1633  0.2003  0.0074
  212loPI   C1B 3389  18.593   8.741   9.801 -0.3827 -0.1718 -0.0673
  212loPI   C2B 3390  18.622   8.741   9.308 -0.1360  0.1256 -0.0610
  212loPI   C3B 3391  18.613   8.917   8.944  0.1331 -0.1107  0.1544
  212loPI   C4B 3392  18.347   8.859   8.655  0.1035 -0.0743 -0.1557
  213loPI    C1 3393  14.596   2.221  10.954 -0.3299  0.0700 -0.0054
  213loPI    C2 3394  14.459   2.524  11.177  0.0022  0.2976 -0.1035
  213loPI    C3 3395  14.818   2.364  11.255 -0.2095 -0.1389  0.0075
  213loPI   PO4 3396  14.517   2.241  10.695  0.4831 -0.5083 -0.1208
  213loPI   GL1 3397  14.160   2.330  10.448  0.3156  0.0997  0.0049
  213loPI   GL2 3398  14.220   2.132  10.229  0.0203  0.1358 -0.1847
  213loPI   C1A 3399  14.001   2.619  10.179  0.0095 -0.1883  0.0853
  213loPI   C2A 3400  14.170   2.866   9.896 -0.0286 -0.1700 -0.0068
  213loPI   C3A 3401  14.224   3.039   9.416  0.0639  0.1105 -0.1276
  213loPI   C4A 3402  14.118   3.288   9.075 -0.0370  0.0800  0.0139
  213loPI   C5A 3403  13.905   3.553   8.793 -0.2921  0.0635  0.1378
  213loPI   C6A 3404  13.763   3.740   8.438 -0.0020 -0.1095 -0.2172
  213loPI   C1B 3405  14.023   2.285   9.836  0.2327 -0.1453 -0.3473
  213loPI   C2B 3406  14.113   2.514   9.522  0.0391  0.2345  0.2304
  213loPI   C3B 3407  14.199   2.607   9.160 -0.2882 -0.0498  0.1026
  213loPI   C4B 3408  14.215   2.639   8.617  0.0027 -0.0646  0.2189
  214loPI    C1 3409   2.526  16.812  10.509  0.0912  0.0403  0.1090
  214loPI    C2 3410   2.892  16.904  10.639  0.0596  0.0159  0.2167
  214loPI    C3 3411   2.608  16.798  10.900  0.0708 -0.3023  0.1041
  214loPI   PO4 3412   2.547  16.758  10.299 -0.0880  0.0242  0.0198
  214loPI   GL1 3413   2.791  16.853   9.906  0.3002  0.3184  0.0694
  214loPI   GL2 3414   2.658  17.081   9.796 -0.0958 -0.3908  0.2883
  214loPI   C1A 3415   2.984  16.745   9.497  0.0424  0.5026  0.1687
  214loPI   C2A 3416   2.975  16.462   9.189 -0.1834  0.0584  0.0703
  214loPI   C3A 3417   3.222  16.052   9.057  0.0993 -0.0528 -0.2971
  214loPI   C4A 3418   3.102  15.721   8.642  0.3469 -0.2139 -0.3688
  214loPI   C5A 3419   3.246  15.428   8.358  0.1005  0.0682 -0.1144
  214loPI   C6A 3420   3.405  15.473   7.980  0.0379  0.0038 -0.1188
  214loPI   C1B 3421   2.791  17.170   9.428 -0.0950 -0.1488 -0.1348
  214loPI   C2B 3422   2.910  17.035   9.056  0.0590  0.0679  0.1226
  214loPI   C3B 3423   3.177  16.761   8.736 -0.2711 -0.2548 -0.1100
  214loPI   C4B 3424   3.090  16.667   8.304  0.2117  0.1409  0.3197
  215loPI    C1 3425   1.100   3.782  10.568 -0.1865 -0.1967 -0.1655
  215loPI    C2 3426   1.389   3.759  10.843 -0.1595  0.1677 -0.1592
  215loPI    C3 3427   1.117   3.468  10.815 -0.0363  0.0232  0.1095
  215loPI   PO4 3428   1.232   3.892  10.364 -0.2437  0.3146  0.0102
  215loPI   GL1 3429   1.459   3.862   9.983  0.0602  0.2119  0.2500
  215loPI   GL2 3430   1.644   3.639   9.975 -0.0720  0.0203  0.0030
  215loPI   C1A 3431   1.906   4.061   9.812  0.0203  0.0140 -0.0212
  215loPI   C2A 3432   1.985   4.068   9.418  0.1848 -0.0154 -0.0875
  215loPI   C3A 3433   1.942   4.263   8.973 -0.5327  0.1410  0.2815
  215loPI   C4A 3434   1.870   4.367   8.469 -0.0253  0.2068 -0.0293
  215loPI   C5A 3435   1.844   4.791   8.131  0.1034 -0.0455 -0.0757
  215loPI   C6A 3436   1.822   5.089   7.871  0.0715 -0.2329  0.0565
  215loPI   C1B 3437   1.739   3.698   9.550 -0.1447  0.0583 -0.1215
  215loPI   C2B 3438   1.724   3.721   9.079  0.0769  0.2505  0.1043
  215loPI   C3B 3439   1.558   3.924   8.684  0.1655  0.0094  0.0423
  215loPI   C4B 3440   1.645   3.815   8.253  0.1362 -0.1543 -0.2273
  216loPI    C1 3441   3.806  12.123  10.823  0.1958 -0.1277  0.0908
  216loPI    C2 3442   3.609  11.963  11.131  0.0581 -0.1493 -0.0074
  216loPI    C3 3443   3.951  12.161  11.194  0.1546 -0.3563  0.1313
  216loPI   PO4 3444   3.643  12.046  10.611  0.5013 -0.0338 -0.1177
  216loPI   GL1 3445   3.438  11.638  10.297  0.1316 -0.2985 -0.1435
  216loPI   GL2 3446   3.088  11.672  10.234  0.0153 -0.1940  0.2728
  216loPI   C1A 3447   3.703  11.382  10.041  0.0951  0.2903  0.0756
  216loPI   C2A 3448   3.951  11.210   9.665 -0.1654 -0.1883 -0.0319
  216loPI   C3A 3449   4.194  11.050   9.293  0.0407 -0.3424 -0.0850
  216loPI   C4A 3450   4.442  10.915   8.930 -0.1393 -0.1767 -0.2381
  216loPI   C5A 3451   4.253  10.826   8.593 -0.1152  0.0450  0.3900
  216loPI   C6A 3452   4.100  10.859   8.244  0.1493 -0.2506  0.1241
  216loPI   C1B 3453   3.269  11.502   9.802  0.1227 -0.0720 -0.2243
  216loPI   C2B 3454   3.221  11.230   9.400 -0.1055 -0.0908 -0.2578
  216loPI   C3B 3455   2.843  11.189   9.188  0.0692  0.1892  0.0273
  216loPI   C4B 3456   2.363  11.247   9.272  0.2221  0.0525  0.0791
  217loPI    C1 3457  17.761   5.937  11.162 -0.0244  0.2542 -0.1359
  217loPI    C2 3458  18.127   6.045  11.043  0.1387  0.0164  0.1366
  217loPI    C3 3459  17.873   6.320  11.185  0.1999  0.1868 -0.0787
  217loPI   PO4 3460  17.758   5.652  10.972  0.2126 -0.1992  0.0124
  217loPI   GL1 3461  17.769   5.634  10.529 -0.0708 -0.2276  0.0633
  217loPI   GL2 3462  17.717   5.327  10.308  0.3968 -0.0255 -0.1062
  217loPI   C1A 3463  17.789   5.935  10.220  0.1779  0.0233 -0.0765
  217loPI   C2A 3464  17.850   6.048   9.743  0.0335  0.0527 -0.0300
  217loPI   C3A 3465  17.965   6.136   9.377  0.1479 -0.1566 -0.1003
  217loPI   C4A 3466  18.017   6.200   8.995  0.1556 -0.0356  0.0435
  217loPI   C5A 3467  17.666   6.294   8.678 -0.0381  0.0246  0.1924
  217loPI   C6A 3468  17.526   6.504   8.368 -0.0094  0.0342  0.1505
  217loPI   C1B 3469  17.810   5.535   9.875  0.0565 -0.1689 -0.0624
  217loPI   C2B 3470  17.858   5.622   9.458 -0.2880  0.1021  0.2082
  217loPI   C3B 3471  17.886   5.652   9.063 -0.1243  0.2574  0.3437
  217loPI   C4B 3472  17.827   5.777   8.594  0.1377 -0.1550 -0.0351
  218loPI    C1 3473  14.122   3.235  10.936  0.0091 -0.1719 -0.1230
  218loPI    C2 3474  14.398   2.980  11.073  0.0956 -0.0002  0.0266
  218loPI    C3 3475  14.509   3.297  10.855  0.0097  0.0281  0.0237
  218loPI   PO4 3476  13.961   3.120  10.807 -0.1357 -0.1198 -0.1381
  218loPI   GL1 3477  13.998   3.125  10.388 -0.0109  0.0249  0.0876
  218loPI   GL2 3478  14.309   3.222  10.403 -0.0044  0.0225  0.0951
  218loPI   C1A 3479  13.886   3.236  10.014 -0.0821 -0.1809 -0.1158
  218loPI   C2A 3480  13.936   3.430   9.583 -0.1183 -0.2766  0.2561
  218loPI   C3A 3481  13.785   3.737   9.273 -0.0490  0.1273  0.1504
  218loPI   C4A 3482  13.870   4.036   9.010 -0.0856  0.1260  0.0500
  218loPI   C5A 3483  13.880   4.221   8.595  0.0988 -0.4113  0.1622
  218loPI   C6A 3484  13.968   4.119   8.177  0.1142  0.4646  0.3088
  218loPI   C1B 3485  14.427   3.296  10.034  0.0637 -0.0207  0.0050
  218loPI   C2B 3486  14.419   3.440   9.579  0.1588  0.1305  0.0966
  218loPI   C3B 3487  14.608   3.382   9.221 -0.0175  0.0492  0.0785
  218loPI   C4B 3488  14.610   3.420   8.777 -0.0108 -0.3698  0.2178
  219loPI    C1 3489  12.946  11.115  11.287 -0.0440 -0.2644  0.2097
  219loPI    C2 3490  12.801  11.372  11.557  0.1518 -0.1044  0.1652
  219loPI    C3 3491  13.120  11.147  11.646  0.1485 -0.1323  0.1069
  219loPI   PO4 3492  12.925  11.258  11.042 -0.1051 -0.0490 -0.2688
  219loPI   GL1 3493  13.013  11.116  10.643  0.0172 -0.0486  0.2413
  219loPI   GL2 3494  12.976  10.850  10.589  0.2573  0.0017 -0.1696
  219loPI   C1A 3495  13.018  11.177  10.200 -0.2352 -0.1743 -0.1004
  219loPI   C2A 3496  12.956  11.178   9.743 -0.2540  0.0614  0.2976
  219loPI   C3A 3497  13.067  11.182   9.391  0.1173  0.3032 -0.2029
  219loPI   C4A 3498  13.098  11.314   9.063  0.1369 -0.1147  0.0743
  219loPI   C5A 3499  13.153  11.426   8.674 -0.2213  0.3167  0.0622
  219loPI   C6A 3500  13.213  11.838   8.367  0.1957 -0.0668  0.0143
  219loPI   C1B 3501  12.837  10.677  10.194 -0.0153 -0.1667 -0.0276
  219loPI   C2B 3502  12.890  10.682   9.749  0.1600  0.2604 -0.0752
  219loPI   C3B 3503  12.860  10.738   9.297 -0.0626  0.1544 -0.1881
  219loPI   C4B 3504  12.784  10.745   8.911 -0.1010  0.2293 -0.1333
  220loPI    C1 3505  10.699  15.623  10.416  0.0012 -0.0674  0.0127
  220loPI    C2 3506  10.503  15.805  10.712 -0.0131 -0.0699  0.0047
  220loPI    C3 3507  10.607  15.421  10.749 -0.0612 -0.0849 -0.0152
  220loPI   PO4 3508  10.688  15.847  10.185  0.0796 -0.0148 -0.2491
  220loPI   GL1 3509  10.893  15.701   9.788  0.1665  0.0288  0.1910
  220loPI   GL2 3510  10.778  15.433   9.897  0.1442 -0.2399 -0.1562
  220loPI   C1A 3511  11.079  15.442   9.429  0.0689  0.2355  0.0121
  220loPI   C2A 3512  11.485  15.243   9.282  0.0844  0.1652  0.0328
  220loPI   C3A 3513  11.501  14.983   8.858 -0.0287 -0.1445  0.1059
  220loPI   C4A 3514  11.573  14.964   8.442 -0.2762 -0.0773 -0.0066
  220loPI   C5A 3515  11.657  14.959   8.013 -0.1900  0.0574 -0.1455
  220loPI   C6A 3516  11.866  15.143   7.728 -0.0913  0.1200 -0.0546
  220loPI   C1B 3517  10.641  15.443   9.445 -0.0441 -0.0539 -0.1951
  220loPI   C2B 3518  10.489  15.108   9.132  0.1829 -0.2823  0.0192
  220loPI   C3B 3519  10.708  14.899   8.773  0.0541 -0.0675  0.1085
  220loPI   C4B 3520  11.047  14.897   8.622 -0.2215  0.2055  0.1510
  221loPI    C1 3521  16.084  16.639  10.375  0.0126 -0.0736  0.3488
  221loPI    C2 3522  15.751  16.835  10.272 -0.0785 -0.2979  0.2093
  221loPI    C3 3523  15.890  16.859  10.647  0.2214  0.4776  0.0671
  221loPI   PO4 3524  16.213  16.626  10.103 -0.0346  0.1120 -0.3694
  221loPI   GL1 3525  16.511  16.658   9.751  0.0995 -0.0719 -0.2356
  221loPI   GL2 3526  16.550  16.451   9.499 -0.1137  0.2466  0.1743
  221loPI   C1A 3527  16.458  16.909   9.399 -0.2069  0.0385  0.2299
  221loPI   C2A 3528  16.498  16.860   8.955 -0.0017  0.0641 -0.1689
  221loPI   C3A 3529  16.261  16.949   8.624  0.0758  0.4510  0.3181
  221loPI   C4A 3530  15.944  17.036   8.229  0.1654  0.2392  0.0731
  221loPI   C5A 3531  15.603  17.264   8.057  0.0530 -0.0396 -0.4202
  221loPI   C6A 3532  15.554  17.490   7.715  0.0741 -0.0383 -0.0443
  221loPI   C1B 3533  16.644  16.432   9.152 -0.0760  0.1359  0.0242
  221loPI   C2B 3534  16.474  16.429   8.698 -0.2570  0.1282 -0.1808
  221loPI   C3B 3535  16.198  16.493   8.358  0.3335 -0.2588  0.0393
  221loPI   C4B 3536  16.240  16.248   7.947 -0.2183  0.0431 -0.1898
  222loPI    C1 3537   6.945  14.135  10.957  0.1895 -0.0919  0.0261
  222loPI    C2 3538   6.900  14.506  11.099  0.2809 -0.0230 -0.1223
  222loPI    C3 3539   7.027  14.213  11.341 -0.2010 -0.0533  0.1059
  222loPI   PO4 3540   6.616  14.126  10.741 -0.0307 -0.4004 -0.0974
  222loPI   GL1 3541   6.594  13.991  10.291  0.3634 -0.0622 -0.2741
  222loPI   GL2 3542   6.306  13.928  10.168  0.0483  0.1468  0.0956
  222loPI   C1A 3543   6.744  14.139   9.892 -0.2061  0.2005 -0.1854
  222loPI   C2A 3544   6.837  13.966   9.468  0.1762 -0.0163  0.0082
  222loPI   C3A 3545   6.718  13.919   9.094  0.4100 -0.1532 -0.0238
  222loPI   C4A 3546   6.690  13.783   8.667 -0.1342  0.1024  0.2770
  222loPI   C5A 3547   6.738  14.008   8.297  0.2065  0.1675 -0.1763
  222loPI   C6A 3548   6.995  14.267   7.982  0.4557  0.1286 -0.0722
  222loPI   C1B 3549   6.308  14.055   9.699 -0.0156  0.0342 -0.0977
  222loPI   C2B 3550   6.178  13.950   9.187  0.3105 -0.3524  0.0397
  222loPI   C3B 3551   6.179  13.805   8.790 -0.2608  0.1126  0.1439
  222loPI   C4B 3552   6.189  13.814   8.329 -0.0948 -0.0172  0.2422
  223loPI    C1 3553  17.497  12.434  10.978  0.0811  0.0100  0.1496
  223loPI    C2 3554  17.800  12.268  11.179 -0.0312 -0.1974  0.1501
  223loPI    C3 3555  17.507  12.038  11.033  0.0344 -0.0478 -0.2286
  223loPI   PO4 3556  17.631  12.602  10.818  0.1779  0.2527  0.0306
  223loPI   GL1 3557  17.700  12.520  10.437 -0.1168 -0.1833 -0.0355
  223loPI   GL2 3558  17.719  12.820  10.303  0.0793  0.1948  0.1417
  223loPI   C1A 3559  17.474  12.557  10.009  0.0441  0.1658 -0.0835
  223loPI   C2A 3560  17.353  12.466   9.579 -0.0807 -0.0606 -0.2595
  223loPI   C3A 3561  17.372  12.489   9.145  0.0025  0.0822 -0.0498
  223loPI   C4A 3562  17.303  12.565   8.689  0.0857 -0.0409 -0.1956
  223loPI   C5A 3563  17.102  12.461   8.318 -0.0355 -0.1849  0.1769
  223loPI   C6A 3564  16.943  12.659   7.894  0.1601 -0.0901 -0.0491
  223loPI   C1B 3565  17.706  12.928   9.853 -0.0389 -0.3023  0.0234
  223loPI   C2B 3566  17.764  12.790   9.345 -0.0403  0.4114 -0.5936
  223loPI   C3B 3567  17.814  12.628   8.940 -0.0500 -0.0389 -0.1670
  223loPI   C4B 3568  17.858  12.489   8.483  0.0159  0.0531 -0.2821
  224loPI    C1 3569   8.424   7.758  11.126 -0.3255 -0.0690 -0.0266
  224loPI    C2 3570   8.148   7.651  11.394 -0.0244  0.0039  0.3209
  224loPI    C3 3571   8.327   8.007  11.423  0.1904 -0.0897  0.1706
  224loPI   PO4 3572   8.334   7.750  10.923 -0.1271 -0.1215  0.0768
  224loPI   GL1 3573   8.203   7.639  10.536  0.4066  0.1325 -0.1240
  224loPI   GL2 3574   8.126   7.326  10.480  0.0907  0.1623 -0.2129
  224loPI   C1A 3575   8.218   7.899  10.168 -0.1260  0.1071  0.0744
  224loPI   C2A 3576   8.167   8.001   9.811  0.1520  0.1763 -0.1428
  224loPI   C3A 3577   7.767   8.201   9.560  0.1063 -0.1865 -0.1923
  224loPI   C4A 3578   7.526   8.374   9.144 -0.3057  0.2484  0.0636
  224loPI   C5A 3579   7.269   8.709   9.010 -0.0202  0.1218  0.0911
  224loPI   C6A 3580   6.930   9.031   8.874  0.0865 -0.1248  0.0763
  224loPI   C1B 3581   8.113   7.437   9.984  0.2133 -0.0030 -0.2044
  224loPI   C2B 3582   8.179   7.621   9.506 -0.0764  0.1377  0.1016
  224loPI   C3B 3583   8.254   7.943   9.225 -0.0604  0.0006 -0.2866
  224loPI   C4B 3584   8.514   8.181   9.168  0.0078  0.0151 -0.0805
  225loPI    C1 3585   3.867   9.086  11.141 -0.0202  0.0795  0.0495
  225loPI    C2 3586   4.111   9.356  11.305 -0.0613  0.0945  0.0859
  225loPI    C3 3587   3.741   9.307  11.449 -0.0987  0.1106 -0.0046
  225loPI   PO4 3588   3.904   9.166  10.905 -0.2992 -0.0031 -0.0332
  225loPI   GL1 3589   3.991   9.260  10.438  0.0667  0.0142 -0.0270
  225loPI   GL2 3590   3.926   9.533  10.417  0.2566 -0.0108  0.1297
  225loPI   C1A 3591   4.133   9.009  10.085  0.0955  0.0138  0.1114
  225loPI   C2A 3592   4.110   9.039   9.635  0.1749 -0.2842  0.0550
  225loPI   C3A 3593   4.217   9.204   9.266  0.1470  0.1075 -0.0909
  225loPI   C4A 3594   4.192   9.248   8.862  0.0859  0.0103 -0.0136
  225loPI   C5A 3595   4.270   9.125   8.473 -0.1606  0.2448  0.2566
  225loPI   C6A 3596   4.647   9.182   8.224 -0.1488  0.2076  0.0386
  225loPI   C1B 3597   3.972   9.432   9.956  0.1872  0.3656 -0.0474
  225loPI   C2B 3598   3.959   9.564   9.503 -0.0121 -0.2022 -0.0360
  225loPI   C3B 3599   3.881   9.560   9.156  0.0266 -0.1513  0.1954
  225loPI   C4B 3600   3.743   9.493   8.783  0.1957 -0.0615  0.1663
  226loPI    C1 3601   0.760   1.259  10.939 -0.0807 -0.0664 -0.0421
  226loPI    C2 3602   0.442   1.016  10.918 -0.0679 -0.0875  0.0048
  226loPI    C3 3603   0.459   1.299  11.200 -0.0775 -0.0396 -0.0425
  226loPI   PO4 3604   0.853   1.212  10.687  0.0753  0.0677 -0.2772
  226loPI   GL1 3605   0.883   1.166  10.289 -0.4672 -0.0440  0.2329
  226loPI   GL2 3606   0.777   1.119  10.062 -0.2345  0.1190 -0.1171
  226loPI   C1A 3607   1.223   0.860   9.964 -0.2187  0.2770  0.0392
  226loPI   C2A 3608   1.197   0.767   9.497  0.0812 -0.0764 -0.0578
  226loPI   C3A 3609   1.157   0.780   9.003  0.2682 -0.0871  0.0102
  226loPI   C4A 3610   1.082   0.825   8.632  0.1428  0.1476  0.0034
  226loPI   C5A 3611   1.286   0.941   8.295  0.0092  0.1676 -0.0323
  226loPI   C6A 3612   1.463   0.746   8.032 -0.2233 -0.2231 -0.0113
  226loPI   C1B 3613   0.829   1.041   9.668 -0.1122 -0.1995  0.1092
  226loPI   C2B 3614   1.036   1.171   9.242  0.0392 -0.1237  0.0695
  226loPI   C3B 3615   0.915   1.319   8.839 -0.2150 -0.2942  0.1444
  226loPI   C4B 3616   0.954   1.255   8.400  0.0560 -0.1963  0.0153
  227loPI    C1 3617  16.138  14.113  10.795 -0.0422 -0.0333 -0.2322
  227loPI    C2 3618  16.373  14.372  10.988 -0.1097 -0.1908  0.0669
  227loPI    C3 3619  16.070  14.195  11.180 -0.2607 -0.2516 -0.2217
  227loPI   PO4 3620  16.335  13.982  10.608 -0.1667 -0.0950  0.2182
  227loPI   GL1 3621  16.492  13.882  10.195  0.2234  0.5413 -0.1311
  227loPI   GL2 3622  16.188  13.656  10.197  0.1689 -0.0703  0.2314
  227loPI   C1A 3623  16.445  13.864   9.721  0.2735 -0.0510 -0.1942
  227loPI   C2A 3624  16.437  13.562   9.449 -0.0427 -0.0000  0.1143
  227loPI   C3A 3625  16.391  13.401   8.956  0.0544 -0.0456  0.0601
  227loPI   C4A 3626  16.728  13.378   8.703  0.1724  0.3392  0.1677
  227loPI   C5A 3627  16.760  13.314   8.260  0.1909  0.0751 -0.1664
  227loPI   C6A 3628  16.520  13.229   7.963  0.0867 -0.1010 -0.1228
  227loPI   C1B 3629  16.341  13.373   9.953 -0.1039  0.3051 -0.0196
  227loPI   C2B 3630  16.446  13.058   9.753  0.1983 -0.0657 -0.2564
  227loPI   C3B 3631  16.375  12.931   9.303 -0.2750  0.0269  0.0524
  227loPI   C4B 3632  16.410  12.940   8.827  0.2518  0.1904 -0.0644
  228loPI    C1 3633  11.006  16.156  10.434 -0.0839  0.2613  0.1447
  228loPI    C2 3634  11.216  16.179  10.774  0.3055  0.0566 -0.0751
  228loPI    C3 3635  10.991  15.856  10.699  0.1227  0.1557  0.0389
  228loPI   PO4 3636  11.235  16.203  10.286 -0.1030  0.0481 -0.0629
  228loPI   GL1 3637  11.244  16.078   9.747  0.1330  0.1895  0.0813
  228loPI   GL2 3638  11.440  16.351   9.648  0.0287 -0.0452 -0.0468
  228loPI   C1A 3639  11.119  15.938   9.374 -0.1131 -0.0455 -0.0687
  228loPI   C2A 3640  11.127  15.786   9.081 -0.1443  0.1910 -0.1559
  228loPI   C3A 3641  11.090  15.765   8.571  0.1864  0.1151 -0.1415
  228loPI   C4A 3642  11.236  15.522   8.242 -0.0873 -0.3021 -0.2709
  228loPI   C5A 3643  11.382  15.455   7.868 -0.1474 -0.1187  0.1082
  228loPI   C6A 3644  11.406  15.566   7.514 -0.2904  0.1593  0.0909
  228loPI   C1B 3645  11.576  16.206   9.237  0.1179 -0.3166  0.1216
  228loPI   C2B 3646  11.794  16.421   8.911 -0.0262  0.0107  0.1996
  228loPI   C3B 3647  11.858  16.483   8.483 -0.0961 -0.1339  0.2415
  228loPI   C4B 3648  11.978  16.758   8.188  0.1647 -0.0416  0.0038
  229loPI    C1 3649   2.658   2.786  11.236  0.0184 -0.1576 -0.2226
  229loPI    C2 3650   2.445   3.007  11.492  0.0061 -0.0712 -0.3068
  229loPI    C3 3651   2.549   2.633  11.589 -0.0291 -0.0515 -0.1910
  229loPI   PO4 3652   2.564   2.920  10.995 -0.4357 -0.0298 -0.0324
  229loPI   GL1 3653   2.718   2.872  10.592 -0.1657 -0.3656  0.2133
  229loPI   GL2 3654   2.503   2.744  10.324 -0.0193 -0.1901  0.2202
  229loPI   C1A 3655   2.918   3.018  10.162  0.1446 -0.1221 -0.1225
  229loPI   C2A 3656   2.858   3.187   9.734 -0.0654 -0.2281 -0.0631
  229loPI   C3A 3657   3.054   3.266   9.274 -0.0813 -0.1360 -0.0305
  229loPI   C4A 3658   2.931   3.237   8.831  0.0916 -0.2255  0.2743
  229loPI   C5A 3659   2.831   3.286   8.445  0.0099 -0.2488  0.4251
  229loPI   C6A 3660   2.461   3.105   8.201 -0.1051  0.0271 -0.1045
  229loPI   C1B 3661   2.237   2.604  10.008  0.0498  0.2180 -0.0252
  229loPI   C2B 3662   2.100   2.791   9.677 -0.4730  0.0635 -0.1533
  229loPI   C3B 3663   1.635   2.767   9.526 -0.3025 -0.1860 -0.1329
  229loPI   C4B 3664   1.437   2.637   9.219 -0.0563  0.0132  0.1209
  230loPI    C1 3665   9.367   4.586  10.907  0.0204  0.0586  0.0854
  230loPI    C2 3666   9.043   4.616  10.674  0.0435  0.1141  0.0604
  230loPI    C3 3667   9.003   4.518  11.059 -0.0027  0.1139  0.0555
  230loPI   PO4 3668   9.525   4.514  10.590 -0.2937  0.0388 -0.1492
  230loPI   GL1 3669   9.726   4.551  10.215 -0.0113 -0.1954 -0.0824
  230loPI   GL2 3670   9.708   4.319  10.124  0.2430  0.0916 -0.2502
  230loPI   C1A 3671   9.752   4.764   9.796  0.0155  0.2126 -0.0477
  230loPI   C2A 3672   9.688   4.989   9.317 -0.1013 -0.0254  0.0085
  230loPI   C3A 3673   9.492   5.149   8.900 -0.2151 -0.1533 -0.3964
  230loPI   C4A 3674   9.659   5.006   8.511 -0.0040 -0.0923  0.1995
  230loPI   C5A 3675   9.549   4.884   8.075  0.0518  0.2965  0.0603
  230loPI   C6A 3676   9.219   4.855   7.764  0.2296 -0.2842  0.0003
  230loPI   C1B 3677   9.646   4.324   9.675 -0.0326  0.0682 -0.2394
  230loPI   C2B 3678   9.649   4.493   9.300 -0.4939 -0.1685  0.1312
  230loPI   C3B 3679   9.606   4.668   8.903 -0.1050 -0.1274 -0.3860
  230loPI   C4B 3680   9.429   4.609   8.516  0.0821  0.1211 -0.1746
  231loPI    C1 3681  14.691   6.673  11.214 -0.0169 -0.0873  0.0378
  231loPI    C2 3682  14.913   6.715  11.545  0.0765 -0.0039 -0.0347
  231loPI    C3 3683  15.030   6.465  11.255  0.0244 -0.0340 -0.0299
  231loPI   PO4 3684  14.672   6.899  11.144 -0.0246 -0.4714 -0.0739
  231loPI   GL1 3685  14.696   7.127  10.861  0.0239  0.2309  0.4830
  231loPI   GL2 3686  14.346   6.915  10.751 -0.2403  0.1841 -0.0739
  231loPI   C1A 3687  14.867   7.010  10.487  0.0846 -0.1538  0.1098
  231loPI   C2A 3688  14.836   6.732  10.186  0.2607 -0.0208  0.0260
  231loPI   C3A 3689  14.700   6.561   9.767 -0.1935 -0.0855 -0.0759
  231loPI   C4A 3690  14.724   6.532   9.380  0.2391 -0.1406 -0.0404
  231loPI   C5A 3691  14.810   6.291   8.965  0.1637 -0.0526  0.0992
  231loPI   C6A 3692  15.081   6.344   8.664 -0.2480  0.0912  0.2692
  231loPI   C1B 3693  14.373   6.814  10.352  0.1188  0.2442  0.1530
  231loPI   C2B 3694  14.326   6.834   9.900  0.0219 -0.0698 -0.0757
  231loPI   C3B 3695  14.304   6.889   9.416 -0.1299  0.0266 -0.0173
  231loPI   C4B 3696  14.424   6.872   9.011  0.0097 -0.2259 -0.0924
  232loPI    C1 3697   0.259   0.538  10.489  0.1832 -0.0039  0.0037
  232loPI    C2 3698   0.111   0.309  10.781  0.1232  0.0148 -0.0120
  232loPI    C3 3699   0.080   0.707  10.803  0.1786  0.0191 -0.0112
  232loPI   PO4 3700   0.203   0.389  10.272  0.0732 -0.0327  0.0489
  232loPI   GL1 3701  -0.051   0.073  10.083 -0.1526  0.0038 -0.2283
  232loPI   GL2 3702  -0.228   0.320   9.974  0.3378  0.0384  0.0009
  232loPI   C1A 3703   0.026  -0.078   9.677 -0.2322  0.0927 -0.2080
  232loPI   C2A 3704   0.203  -0.194   9.251  0.0487 -0.1975 -0.1337
  232loPI   C3A 3705   0.330   0.028   8.961 -0.1000  0.1045  0.3152
  232loPI   C4A 3706   0.593  -0.118   8.740  0.0527 -0.1360  0.0001
  232loPI   C5A 3707   0.682  -0.024   8.233 -0.0392  0.0298  0.0603
  232loPI   C6A 3708   0.804  -0.000   7.775 -0.0203  0.0641 -0.2073
  232loPI   C1B 3709  -0.151   0.547   9.613 -0.1730 -0.2205  0.1192
  232loPI   C2B 3710   0.021   0.908   9.374 -0.0177  0.0230  0.0474
  232loPI   C3B 3711  -0.030   1.005   8.935  0.1229 -0.1313 -0.0403
  232loPI   C4B 3712   0.060   1.072   8.525  0.0993  0.0261  0.2432
  233loPI    C1 3713  16.432   3.476  10.539  0.1835 -0.0575  0.1259
  233loPI    C2 3714  16.355   3.601  10.911  0.0298 -0.0732  0.1002
  233loPI    C3 3715  16.585   3.279  10.852 -0.1016 -0.1842  0.1890
  233loPI   PO4 3716  16.458   3.731  10.383  0.2734 -0.3353 -0.2133
  233loPI   GL1 3717  16.509   3.899  10.011 -0.0925  0.1540  0.0858
  233loPI   GL2 3718  16.783   3.790   9.938 -0.0776  0.0239 -0.3037
  233loPI   C1A 3719  16.587   4.205   9.775  0.0390 -0.1600 -0.2304
  233loPI   C2A 3720  16.591   4.209   9.322  0.0909  0.2202 -0.2893
  233loPI   C3A 3721  16.496   4.187   8.945 -0.0839 -0.0297 -0.1344
  233loPI   C4A 3722  16.629   4.377   8.584 -0.0539  0.1888 -0.2363
  233loPI   C5A 3723  16.975   4.589   8.400 -0.1322 -0.0121 -0.2284
  233loPI   C6A 3724  17.352   4.410   8.316  0.3669 -0.2874 -0.0098
  233loPI   C1B 3725  16.913   3.879   9.518  0.1703  0.0207 -0.2219
  233loPI   C2B 3726  16.849   3.855   9.090 -0.0138 -0.0424 -0.2635
  233loPI   C3B 3727  16.779   3.888   8.664  0.0497 -0.1790  0.0870
  233loPI   C4B 3728  16.811   3.631   8.290  0.1141 -0.1107 -0.0686
  234loPI    C1 3729   9.778  10.446  11.206 -0.0816  0.1544 -0.0568
  234loPI    C2 3730   9.655  10.752  11.432  0.0302  0.1040  0.0737
  234loPI    C3 3731  10.043  10.711  11.343 -0.0077  0.1004 -0.0946
  234loPI   PO4 3732   9.590  10.401  11.026 -0.2494 -0.0935  0.0925
  234loPI   GL1 3733   9.504  10.534  10.503  0.0660 -0.0701 -0.1110
  234loPI   GL2 3734   9.592  10.228  10.576  0.0457  0.1109 -0.2675
  234loPI   C1A 3735   9.776  10.485  10.160  0.0670 -0.0288  0.2866
  234loPI   C2A 3736   9.600  10.411   9.863  0.0859  0.2889  0.0294
  234loPI   C3A 3737   9.670  10.401   9.403 -0.0166  0.3972  0.1654
  234loPI   C4A 3738   9.856  10.242   9.123 -0.1548  0.1694 -0.0999
  234loPI   C5A 3739  10.045  10.190   8.741 -0.2201  0.1546  0.0977
  234loPI   C6A 3740  10.121  10.303   8.368  0.0741  0.0801  0.1353
  234loPI   C1B 3741   9.564  10.040  10.173 -0.3095  0.1729  0.1548
  234loPI   C2B 3742   9.581   9.936   9.740 -0.0604  0.0978  0.0592
  234loPI   C3B 3743   9.657   9.769   9.330  0.1121  0.2096  0.2230
  234loPI   C4B 3744   9.699   9.806   8.895 -0.1476 -0.1346  0.0682
  235loPI    C1 3745   8.853   0.066  10.017 -0.0103  0.1182  0.0391
  235loPI    C2 3746   8.513   0.057  10.228 -0.0820  0.0632 -0.0781
  235loPI    C3 3747   8.767  -0.252  10.243 -0.0899  0.0567 -0.0768
  235loPI   PO4 3748   8.969   0.261  10.083 -0.4122  0.0938  0.1769
  235loPI   GL1 3749   9.041   0.362   9.667 -0.2313 -0.0507 -0.0786
  235loPI   GL2 3750   9.233   0.076   9.628  0.1874 -0.2430  0.1155
  235loPI   C1A 3751   8.858   0.250   9.263  0.0170 -0.0302 -0.2196
  235loPI   C2A 3752   8.991   0.299   8.869 -0.1016 -0.1163 -0.1713
  235loPI   C3A 3753   9.160   0.439   8.501 -0.1698 -0.0522  0.1764
  235loPI   C4A 3754   9.257   0.276   8.049  0.0516  0.0002  0.2894
  235loPI   C5A 3755   9.450   0.496   7.602  0.1039  0.2019  0.1431
  235loPI   C6A 3756   9.705   0.853   7.480  0.1958  0.1730  0.0093
  235loPI   C1B 3757   9.382   0.167   9.300  0.2383  0.1323  0.1470
  235loPI   C2B 3758   9.555   0.378   8.927 -0.2026 -0.2720 -0.0072
  235loPI   C3B 3759   9.824   0.405   8.603  0.2318 -0.0006  0.0245
  235loPI   C4B 3760   9.694   0.409   8.225 -0.1562  0.0294  0.0954
  236loPI    C1 3761   0.949  11.159  10.886 -0.1657  0.1956  0.0079
  236loPI    C2 3762   0.718  11.273  11.192  0.1510  0.0756  0.2979
  236loPI    C3 3763   0.988  10.982  11.242  0.0716 -0.0839 -0.1525
  236loPI   PO4 3764   0.740  11.202  10.703 -0.1647  0.2189 -0.1454
  236loPI   GL1 3765   0.523  11.291  10.268 -0.0457  0.0304  0.4219
  236loPI   GL2 3766   0.728  11.378  10.038  0.0105 -0.0512 -0.2977
  236loPI   C1A 3767   0.493  10.905  10.019  0.1199 -0.1354  0.0796
  236loPI   C2A 3768   0.540  10.654   9.653  0.2662  0.0040  0.0511
  236loPI   C3A 3769   0.550  10.703   9.242  0.2070  0.2534  0.1544
  236loPI   C4A 3770   0.462  11.015   8.933 -0.1690  0.1710  0.1143
  236loPI   C5A 3771   0.380  11.054   8.536 -0.5419  0.0454  0.1525
  236loPI   C6A 3772   0.223  11.053   8.107 -0.0900 -0.0365 -0.0140
  236loPI   C1B 3773   0.981  11.556   9.806 -0.1939  0.0176  0.1294
  236loPI   C2B 3774   1.117  11.727   9.484 -0.2661  0.0176  0.0147
  236loPI   C3B 3775   1.319  11.967   9.231  0.0616  0.0821  0.0835
  236loPI   C4B 3776   1.405  12.048   8.850 -0.1386 -0.1703  0.0765
  237loPI    C1 3777  14.736   6.035  11.259 -0.2510 -0.0943 -0.0325
  237loPI    C2 3778  15.116   5.965  11.360 -0.2747  0.0009  0.1251
  237loPI    C3 3779  14.833   5.695  11.445 -0.2231 -0.1296 -0.1110
  237loPI   PO4 3780  14.672   6.168  11.029  0.1286 -0.0633 -0.1447
  237loPI   GL1 3781  14.653   6.484  10.760 -0.0825 -0.0442 -0.2512
  237loPI   GL2 3782  14.990   6.618  10.752  0.1652 -0.1237 -0.1157
  237loPI   C1A 3783  14.404   6.329  10.368 -0.0447 -0.0562  0.0228
  237loPI   C2A 3784  14.277   6.381   9.996 -0.1761  0.2175  0.1577
  237loPI   C3A 3785  14.189   6.461   9.630 -0.1571 -0.2510 -0.2118
  237loPI   C4A 3786  14.189   6.459   9.200  0.1186  0.1847 -0.2863
  237loPI   C5A 3787  14.193   6.304   8.776  0.1427 -0.1725  0.0570
  237loPI   C6A 3788  14.534   6.141   8.504 -0.0568  0.0053  0.0595
  237loPI   C1B 3789  15.008   6.324  10.436  0.1160 -0.0391  0.0212
  237loPI   C2B 3790  14.886   6.212  10.087  0.0102  0.1477  0.0824
  237loPI   C3B 3791  14.618   6.079   9.733  0.4812  0.0634  0.0031
  237loPI   C4B 3792  14.480   6.021   9.299 -0.0878  0.3637 -0.1539
  238loPI    C1 3793   6.915   6.528  10.526 -0.1675  0.3192 -0.0196
  238loPI    C2 3794   6.956   6.217  10.774 -0.0658  0.2838 -0.0801
  238loPI    C3 3795   6.605   6.408  10.748 -0.1908  0.0429 -0.1968
  238loPI   PO4 3796   7.047   6.457  10.333  0.0663 -0.0805  0.1600
  238loPI   GL1 3797   6.946   6.428   9.869 -0.4069  0.0564 -0.1125
  238loPI   GL2 3798   7.037   6.162   9.963 -0.0027  0.0391  0.0855
  238loPI   C1A 3799   6.995   6.434   9.365  0.4294 -0.2837 -0.0045
  238loPI   C2A 3800   6.979   6.493   8.969  0.3179  0.0814 -0.0174
  238loPI   C3A 3801   7.146   6.290   8.672 -0.0821 -0.1651 -0.1881
  238loPI   C4A 3802   7.491   6.149   8.404  0.0860  0.3208 -0.0157
  238loPI   C5A 3803   7.781   6.088   8.081 -0.1804 -0.0498 -0.1098
  238loPI   C6A 3804   8.155   6.170   7.994 -0.1512 -0.1023  0.1591
  238loPI   C1B 3805   6.922   6.017   9.575  0.2838 -0.0042 -0.0133
  238loPI   C2B 3806   7.077   6.001   9.167  0.0577  0.0456 -0.0726
  238loPI   C3B 3807   6.989   5.814   8.734  0.0539  0.1249 -0.0998
  238loPI   C4B 3808   7.143   5.428   8.570  0.2807  0.1204 -0.0234
  239loPI    C1 3809  12.067   3.969  11.115  0.0152 -0.0217  0.0818
  239loPI    C2 3810  12.370   3.857  11.351  0.0140 -0.0232  0.0826
  239loPI    C3 3811  12.018   3.959  11.512  0.0089 -0.0378  0.0806
  239loPI   PO4 3812  12.169   4.078  10.900  0.1873 -0.1385 -0.1848
  239loPI   GL1 3813  12.322   3.963  10.510 -0.1405 -0.1726 -0.0136
  239loPI   GL2 3814  11.974   3.973  10.456 -0.0136  0.1096 -0.0339
  239loPI   C1A 3815  12.465   4.357  10.249 -0.2522 -0.1987  0.2530
  239loPI   C2A 3816  12.391   4.446   9.766  0.0861  0.1260 -0.2094
  239loPI   C3A 3817  12.508   4.540   9.376  0.1472 -0.3187 -0.0881
  239loPI   C4A 3818  12.363   4.740   9.077 -0.0151 -0.1356  0.1345
  239loPI   C5A 3819  12.188   4.630   8.609 -0.0353  0.0302 -0.0822
  239loPI   C6A 3820  12.442   4.453   8.289  0.0716 -0.3094  0.0080
  239loPI   C1B 3821  12.041   4.193  10.025  0.1121 -0.4842 -0.1500
  239loPI   C2B 3822  12.049   4.194   9.549  0.1941 -0.0564  0.1206
  239loPI   C3B 3823  12.287   4.148   9.115 -0.0269  0.1014  0.0522
  239loPI   C4B 3824  12.372   4.155   8.669 -0.1640 -0.2066  0.1538
  240loPI    C1 3825   6.883   9.729  11.072  0.1203  0.2052  0.1307
  240loPI    C2 3826   6.560   9.887  11.246 -0.0538 -0.1253  0.1165
  240loPI    C3 3827   6.786   9.624  11.445  0.0558 -0.0959  0.0321
  240loPI   PO4 3828   6.740   9.889  10.762  0.1232  0.1388 -0.1250
  240loPI   GL1 3829   6.947  10.252  10.459  0.1058  0.1922 -0.1881
  240loPI   GL2 3830   6.801   9.924  10.257 -0.0809 -0.0128 -0.0435
  240loPI   C1A 3831   7.286  10.190  10.145  0.0483 -0.2060 -0.0150
  240loPI   C2A 3832   7.383  10.490   9.758 -0.0027 -0.0013 -0.0199
  240loPI   C3A 3833   7.508  10.427   9.308  0.0912 -0.0030 -0.1427
  240loPI   C4A 3834   7.643  10.610   8.969  0.0360  0.0448 -0.1386
  240loPI   C5A 3835   7.727  10.780   8.495 -0.2308  0.0836  0.2100
  240loPI   C6A 3836   7.641  10.983   8.103 -0.0718  0.2083  0.1043
  240loPI   C1B 3837   6.912   9.830   9.903 -0.1624 -0.2548  0.4224
  240loPI   C2B 3838   7.088  10.040   9.594 -0.1638 -0.1849  0.0546
  240loPI   C3B 3839   7.132  10.082   9.200 -0.0309 -0.2397  0.1564
  240loPI   C4B 3840   7.246  10.090   8.725  0.2452 -0.3097  0.0914
  241loPI    C1 3841  13.782   7.719  11.278  0.3397 -0.1820 -0.4429
  241loPI    C2 3842  13.951   7.418  11.480  0.0966 -0.0172  0.0238
  241loPI    C3 3843  14.080   7.792  11.534 -0.0263  0.0390 -0.0667
  241loPI   PO4 3844  13.544   7.583  11.206  0.0870  0.2672 -0.2955
  241loPI   GL1 3845  13.245   7.723  10.835  0.0019  0.0680 -0.2570
  241loPI   GL2 3846  13.053   7.959  10.923  0.2604  0.2932 -0.0429
  241loPI   C1A 3847  13.579   7.552  10.539  0.1879 -0.0741 -0.0229
  241loPI   C2A 3848  13.609   7.646  10.072 -0.0984  0.0656 -0.3607
  241loPI   C3A 3849  13.698   7.684   9.680 -0.0261 -0.2671 -0.0670
  241loPI   C4A 3850  13.719   7.688   9.238 -0.2708 -0.0484 -0.2241
  241loPI   C5A 3851  13.646   7.827   8.924 -0.2905  0.2476 -0.1014
  241loPI   C6A 3852  13.622   7.883   8.522 -0.1802 -0.1246 -0.2826
  241loPI   C1B 3853  12.951   7.897  10.477  0.0031  0.3602  0.1616
  241loPI   C2B 3854  12.850   8.039  10.065  0.3910 -0.2926  0.0262
  241loPI   C3B 3855  12.736   8.057   9.612  0.0421  0.0470  0.0293
  241loPI   C4B 3856  12.751   8.040   9.182 -0.0642  0.0484  0.4658
  242loPI    C1 3857  13.829   1.129  10.625  0.2162  0.2689 -0.3263
  242loPI    C2 3858  13.511   1.269  10.425  0.0167  0.0308 -0.1818
  242loPI    C3 3859  13.671   1.483  10.722 -0.0050  0.1533 -0.2581
  242loPI   PO4 3860  13.807   0.915  10.627  0.1086 -0.0518  0.0749
  242loPI   GL1 3861  13.828   0.756  10.222 -0.1105  0.1853  0.0039
  242loPI   GL2 3862  13.523   0.865  10.218  0.1973  0.1053  0.1341
  242loPI   C1A 3863  13.674   0.716   9.777  0.1213  0.2649  0.0749
  242loPI   C2A 3864  13.658   0.577   9.420 -0.1049 -0.2141 -0.0001
  242loPI   C3A 3865  13.508   0.439   8.954 -0.2740  0.1542  0.3520
  242loPI   C4A 3866  13.490   0.220   8.510  0.2553 -0.2769  0.1180
  242loPI   C5A 3867  13.463   0.318   8.040  0.2587  0.0908 -0.0619
  242loPI   C6A 3868  13.704   0.322   7.650  0.0737  0.3412 -0.0841
  242loPI   C1B 3869  13.754   1.204   9.949 -0.1869 -0.0873 -0.2821
  242loPI   C2B 3870  13.928   1.592   9.729  0.0108  0.3747  0.0099
  242loPI   C3B 3871  13.905   1.963   9.460  0.3146 -0.0898  0.0833
  242loPI   C4B 3872  13.913   1.931   8.974  0.1671  0.0246 -0.0425
  243loPI    C1 3873   3.072   5.818  10.893  0.0134 -0.1110 -0.0878
  243loPI    C2 3874   2.713   5.743  11.052  0.0809 -0.0118  0.1163
  243loPI    C3 3875   2.880   6.103  11.097  0.1353 -0.0060 -0.1182
  243loPI   PO4 3876   3.059   5.775  10.641  0.1323  0.1695 -0.1182
  243loPI   GL1 3877   3.275   5.986  10.336  0.1672 -0.1387  0.0041
  243loPI   GL2 3878   2.961   5.984  10.226 -0.0284  0.0785  0.3300
  243loPI   C1A 3879   3.610   5.835  10.104 -0.0620 -0.0522 -0.1527
  243loPI   C2A 3880   3.725   5.946   9.744  0.2819 -0.1368 -0.1994
  243loPI   C3A 3881   3.651   5.855   9.320 -0.0411  0.1659  0.1783
  243loPI   C4A 3882   3.717   5.893   8.927  0.3460  0.0180 -0.1050
  243loPI   C5A 3883   3.793   5.863   8.515 -0.2305  0.0462 -0.1105
  243loPI   C6A 3884   3.482   5.931   8.081  0.2788  0.0700 -0.2048
  243loPI   C1B 3885   3.162   5.934   9.796 -0.2125  0.0218  0.0240
  243loPI   C2B 3886   3.112   5.966   9.312 -0.1599 -0.1684 -0.0005
  243loPI   C3B 3887   3.150   5.979   8.900  0.0597 -0.2488 -0.1340
  243loPI   C4B 3888   3.271   5.941   8.550  0.0727 -0.0608 -0.1241
  244loPI    C1 3889   0.251  13.313  10.905  0.1620  0.0645  0.1910
  244loPI    C2 3890   0.035  12.984  10.833 -0.1233  0.3403 -0.2671
  244loPI    C3 3891  -0.061  13.223  11.139 -0.0163  0.0899 -0.0334
  244loPI   PO4 3892   0.260  13.413  10.664  0.0665 -0.4292  0.0458
  244loPI   GL1 3893   0.444  13.575  10.323  0.4661 -0.0841 -0.1083
  244loPI   GL2 3894   0.659  13.317  10.307  0.3611 -0.1007 -0.3505
  244loPI   C1A 3895   0.514  13.597   9.899  0.3136  0.3192 -0.1138
  244loPI   C2A 3896   0.661  13.476   9.489  0.0772 -0.2448  0.1323
  244loPI   C3A 3897   0.635  13.298   9.120 -0.2980  0.1194 -0.1621
  244loPI   C4A 3898   0.503  13.171   8.754 -0.0434 -0.0879 -0.3224
  244loPI   C5A 3899   0.286  13.496   8.426 -0.2410 -0.1737  0.4664
  244loPI   C6A 3900   0.207  13.515   7.993  0.2759  0.0970  0.0825
  244loPI   C1B 3901   0.686  13.130   9.915 -0.2477  0.1480  0.1399
  244loPI   C2B 3902   0.774  12.889   9.524  0.0876 -0.1246  0.3632
  244loPI   C3B 3903   0.660  12.675   9.106  0.1026 -0.2589 -0.1952
  244loPI   C4B 3904   0.536  12.296   8.841  0.0981  0.3347  0.1478
  245loPI    C1 3905  13.459  16.543  10.510 -0.0610  0.1275  0.0055
  245loPI    C2 3906  13.426  16.763  10.177  0.0692  0.1596  0.0134
  245loPI    C3 3907  13.497  16.941  10.528  0.0250  0.1177  0.0435
  245loPI   PO4 3908  13.453  16.278  10.373 -0.2689  0.1723  0.0537
  245loPI   GL1 3909  13.480  16.256   9.954 -0.1599 -0.3868 -0.3503
  245loPI   GL2 3910  13.753  16.426   9.890 -0.0622  0.1042 -0.2084
  245loPI   C1A 3911  13.423  16.095   9.502  0.1155  0.0255 -0.2859
  245loPI   C2A 3912  13.610  15.892   9.062  0.0700  0.2339 -0.1406
  245loPI   C3A 3913  13.662  15.887   8.633 -0.0141  0.0295 -0.0539
  245loPI   C4A 3914  13.319  15.840   8.234  0.0753  0.2868 -0.0895
  245loPI   C5A 3915  12.881  15.560   8.036  0.1162  0.2796 -0.0411
  245loPI   C6A 3916  12.785  15.164   7.724 -0.0586  0.1458 -0.0323
  245loPI   C1B 3917  13.698  16.475   9.485 -0.1119 -0.1448 -0.2221
  245loPI   C2B 3918  13.579  16.435   9.014 -0.1076  0.2849  0.1370
  245loPI   C3B 3919  13.771  16.391   8.760  0.1428  0.0033 -0.0373
  245loPI   C4B 3920  13.851  16.500   8.381 -0.2261  0.0296 -0.3450
  246loPI    C1 3921  12.439  16.596  10.419  0.1540 -0.0075  0.1683
  246loPI    C2 3922  12.233  16.838  10.662  0.0622  0.0418  0.0425
  246loPI    C3 3923  12.040  16.604  10.401  0.1581 -0.0451  0.0490
  246loPI   PO4 3924  12.592  16.709  10.273  0.2176 -0.0901  0.0185
  246loPI   GL1 3925  12.629  16.899   9.894  0.0398  0.2628 -0.1228
  246loPI   GL2 3926  13.036  16.815   9.850  0.4569  0.1069 -0.1121
  246loPI   C1A 3927  12.721  16.801   9.414  0.1152  0.2396  0.1078
  246loPI   C2A 3928  12.573  16.771   9.007  0.2592 -0.0493 -0.1464
  246loPI   C3A 3929  12.117  16.831   8.927  0.3171  0.1199  0.0453
  246loPI   C4A 3930  11.791  16.945   8.674 -0.0719 -0.1121 -0.0407
  246loPI   C5A 3931  11.479  16.683   8.302 -0.5249  0.0611 -0.1269
  246loPI   C6A 3932  11.176  16.398   8.046  0.0445 -0.0544 -0.3455
  246loPI   C1B 3933  13.234  16.646   9.481  0.1644 -0.3526 -0.3112
  246loPI   C2B 3934  13.105  16.664   9.093  0.0975 -0.2247 -0.1241
  246loPI   C3B 3935  12.860  16.374   8.811 -0.1510 -0.0171  0.0011
  246loPI   C4B 3936  12.801  16.246   8.411  0.1140  0.2103 -0.2061
  247loPI    C1 3937  16.064  10.610  11.186 -0.0536 -0.0717 -0.1177
  247loPI    C2 3938  15.818  10.857  11.384 -0.0702 -0.1913  0.0129
  247loPI    C3 3939  16.137  10.702  11.568  0.0125 -0.1662 -0.1075
  247loPI   PO4 3940  16.058  10.746  10.873 -0.0815 -0.0859  0.0775
  247loPI   GL1 3941  15.769  10.623  10.503 -0.0764 -0.1148  0.0345
  247loPI   GL2 3942  15.459  10.658  10.440 -0.0604 -0.3779 -0.2542
  247loPI   C1A 3943  15.944  10.732  10.123  0.2766 -0.3615 -0.0794
  247loPI   C2A 3944  16.258  10.993   9.845  0.2389 -0.3632  0.2962
  247loPI   C3A 3945  16.352  11.036   9.421  0.0456  0.0054  0.0969
  247loPI   C4A 3946  16.292  11.004   8.983 -0.0522  0.3402 -0.3213
  247loPI   C5A 3947  16.358  10.937   8.654  0.1260  0.3121  0.1891
  247loPI   C6A 3948  16.514  10.654   8.454 -0.1540  0.0939 -0.1700
  247loPI   C1B 3949  15.349  10.459  10.000 -0.0087 -0.0658 -0.0166
  247loPI   C2B 3950  15.307  10.742   9.650 -0.1171  0.4645 -0.2831
  247loPI   C3B 3951  15.288  10.723   9.225 -0.2237  0.0105  0.1125
  247loPI   C4B 3952  15.283  10.791   8.771 -0.0099 -0.1132 -0.3640
  248loPI    C1 3953  14.262  14.501  10.371  0.2127 -0.0617 -0.1806
  248loPI    C2 3954  14.544  14.225  10.309  0.1705 -0.1353 -0.0484
  248loPI    C3 3955  14.490  14.378  10.675  0.0813 -0.0749 -0.0864
  248loPI   PO4 3956  14.271  14.704  10.227 -0.0778 -0.1874  0.1214
  248loPI   GL1 3957  14.368  14.693   9.818  0.1357 -0.0027 -0.1195
  248loPI   GL2 3958  14.165  14.718   9.615 -0.1235 -0.0759  0.2564
  248loPI   C1A 3959  14.691  14.721   9.517  0.2166 -0.2195  0.0963
  248loPI   C2A 3960  14.823  14.553   9.101  0.0921  0.1106  0.0520
  248loPI   C3A 3961  14.774  14.351   8.685  0.2278  0.0191 -0.1997
  248loPI   C4A 3962  14.820  14.424   8.221 -0.0521  0.0254 -0.0949
  248loPI   C5A 3963  14.789  14.261   7.834 -0.1831  0.1230 -0.1450
  248loPI   C6A 3964  15.040  14.272   7.426 -0.1761  0.4146  0.2364
  248loPI   C1B 3965  14.337  14.480   9.232 -0.0771 -0.0784 -0.0409
  248loPI   C2B 3966  14.346  14.607   8.807 -0.4587 -0.1039 -0.1550
  248loPI   C3B 3967  14.280  14.449   8.389 -0.0535  0.0268 -0.0942
  248loPI   C4B 3968  14.318  14.272   7.949 -0.2895 -0.1599 -0.1301
  249loPI    C1 3969  14.266  11.427  11.356 -0.0534  0.0504 -0.1599
  249loPI    C2 3970  13.870  11.478  11.341 -0.0601  0.0798  0.0809
  249loPI    C3 3971  14.061  11.502  11.691  0.1525  0.0453 -0.0313
  249loPI   PO4 3972  14.306  11.373  11.073  0.3320  0.2030  0.0309
  249loPI   GL1 3973  14.580  11.687  10.724  0.1057 -0.3260 -0.0252
  249loPI   GL2 3974  14.264  11.712  10.704 -0.2235  0.2427  0.0378
  249loPI   C1A 3975  14.744  11.493  10.383 -0.3433 -0.3513 -0.0677
  249loPI   C2A 3976  14.645  11.479   9.988  0.0596 -0.4080 -0.0993
  249loPI   C3A 3977  14.625  11.562   9.585  0.0110 -0.1651 -0.0139
  249loPI   C4A 3978  14.594  11.531   9.194 -0.2713 -0.3193  0.1064
  249loPI   C5A 3979  14.443  11.443   8.688 -0.1239 -0.3940 -0.2272
  249loPI   C6A 3980  14.721  11.347   8.437  0.1863  0.0494 -0.1428
  249loPI   C1B 3981  14.222  11.478  10.293 -0.0817 -0.0290  0.0755
  249loPI   C2B 3982  14.138  11.399   9.867  0.0669 -0.2034  0.2886
  249loPI   C3B 3983  14.147  11.393   9.453  0.1287 -0.0845  0.2704
  249loPI   C4B 3984  14.066  11.298   9.087 -0.2000  0.0768 -0.1978
  250loPI    C1 3985  15.178   9.066  11.144  0.0576 -0.2588  0.1271
  250loPI    C2 3986  15.388   8.862  11.416  0.1631  0.1587  0.3674
  250loPI    C3 3987  15.020   8.992  11.504 -0.0404 -0.2135  0.0940
  250loPI   PO4 3988  15.344   9.281  11.053  0.0511 -0.0184  0.0250
  250loPI   GL1 3989  15.405   9.361  10.720  0.0974  0.0767  0.2043
  250loPI   GL2 3990  15.649   9.311  10.534 -0.0218 -0.3024 -0.5497
  250loPI   C1A 3991  15.017   9.439  10.336  0.2771 -0.2382  0.1051
  250loPI   C2A 3992  14.975   9.622   9.828 -0.3962 -0.0953 -0.1896
  250loPI   C3A 3993  14.906   9.690   9.410  0.3305  0.3548  0.0183
  250loPI   C4A 3994  14.905   9.536   9.006 -0.0582  0.0921 -0.0875
  250loPI   C5A 3995  15.197   9.607   8.797 -0.3010  0.0467 -0.2814
  250loPI   C6A 3996  15.383   9.623   8.397 -0.0233  0.3184  0.1104
  250loPI   C1B 3997  15.871   9.718  10.407 -0.1039 -0.0345 -0.0844
  250loPI   C2B 3998  15.824   9.745   9.953 -0.1538  0.0893 -0.0859
  250loPI   C3B 3999  15.874   9.344   9.622  0.0964  0.2102 -0.2444
  250loPI   C4B 4000  16.098   9.003   9.358  0.0713  0.1446  0.3333
  251loPI    C1 4001   2.293   7.924  11.086  0.0764  0.2438  0.0218
  251loPI    C2 4002   2.304   7.729  11.435 -0.1130 -0.0014 -0.1057
  251loPI    C3 4003   2.165   8.104  11.420  0.1279  0.1002  0.1201
  251loPI   PO4 4004   2.307   7.746  10.910  0.1410 -0.2870  0.3072
  251loPI   GL1 4005   2.190   7.737  10.470  0.2356 -0.3411  0.2859
  251loPI   GL2 4006   1.909   7.662  10.265  0.1202 -0.0062 -0.0159
  251loPI   C1A 4007   2.337   7.776  10.026 -0.0451 -0.1897 -0.1686
  251loPI   C2A 4008   2.221   7.677   9.622 -0.0109  0.0699  0.0731
  251loPI   C3A 4009   2.233   7.748   9.211  0.0126  0.0325  0.2822
  251loPI   C4A 4010   2.268   7.796   8.823 -0.0403  0.1617 -0.0602
  251loPI   C5A 4011   2.314   7.969   8.452 -0.0111  0.0696  0.2690
  251loPI   C6A 4012   2.440   7.928   7.915 -0.0090  0.0811 -0.1731
  251loPI   C1B 4013   1.765   7.588   9.891  0.2252  0.1040  0.0936
  251loPI   C2B 4014   1.688   7.638   9.444  0.2315  0.0529  0.0025
  251loPI   C3B 4015   1.740   7.845   9.015 -0.1736 -0.2117 -0.3061
  251loPI   C4B 4016   1.801   7.754   8.557 -0.0653  0.1467 -0.0380
  252loPI    C1 4017   6.742  16.235  10.480  0.0956  0.1414  0.0929
  252loPI    C2 4018   7.074  16.013  10.476 -0.2203 -0.3467  0.1737
  252loPI    C3 4019   6.867  16.058  10.816 -0.2861 -0.1182  0.1047
  252loPI   PO4 4020   6.801  16.352  10.137 -0.0714 -0.0621  0.2471
  252loPI   GL1 4021   6.918  16.346   9.750 -0.0676  0.0186  0.2524
  252loPI   GL2 4022   6.721  16.617   9.666 -0.2052 -0.0831  0.1306
  252loPI   C1A 4023   7.326  16.260   9.486 -0.1345 -0.0411  0.0196
  252loPI   C2A 4024   7.262  16.229   9.110 -0.1800  0.1292 -0.1677
  252loPI   C3A 4025   7.164  16.321   8.659 -0.2986 -0.2697  0.0687
  252loPI   C4A 4026   7.422  16.166   8.347 -0.0942 -0.1126 -0.0300
  252loPI   C5A 4027   7.656  15.871   8.202  0.0632 -0.1674 -0.1280
  252loPI   C6A 4028   7.756  15.473   8.007  0.0710 -0.2331  0.3003
  252loPI   C1B 4029   6.872  16.528   9.266 -0.4192  0.2228 -0.1774
  252loPI   C2B 4030   6.643  16.475   8.952  0.1652  0.2959  0.0210
  252loPI   C3B 4031   6.563  16.380   8.516  0.2268 -0.1538  0.3217
  252loPI   C4B 4032   6.321  16.520   8.157  0.0850 -0.1506  0.1021
  253loPI    C1 4033   9.513  16.923  10.261  0.0945 -0.1495 -0.0118
  253loPI    C2 4034   9.684  16.873  10.619 -0.2495 -0.0308  0.1737
  253loPI    C3 4035   9.361  17.107  10.582 -0.1616  0.0340 -0.2332
  253loPI   PO4 4036   9.736  17.062  10.109 -0.0194 -0.0275  0.1007
  253loPI   GL1 4037   9.760  17.304   9.731  0.1838 -0.3633  0.1135
  253loPI   GL2 4038   9.545  17.568   9.705 -0.3383  0.0328  0.0365
  253loPI   C1A 4039   9.873  17.308   9.317 -0.1207 -0.2496  0.3405
  253loPI   C2A 4040   9.956  17.548   8.916  0.0882  0.1306  0.1734
  253loPI   C3A 4041   9.782  17.609   8.507  0.0282 -0.0016 -0.1751
  253loPI   C4A 4042   9.754  17.859   8.126 -0.1317  0.1571 -0.1353
  253loPI   C5A 4043   9.716  18.181   7.746  0.0197 -0.0563 -0.0286
  253loPI   C6A 4044   9.506  18.159   7.274  0.0735 -0.0839  0.0968
  253loPI   C1B 4045   9.610  17.689   9.200 -0.2038  0.0740  0.1146
  253loPI   C2B 4046   9.608  17.934   8.898  0.0672  0.3432 -0.2756
  253loPI   C3B 4047   9.509  18.088   8.524 -0.0287  0.2214 -0.0627
  253loPI   C4B 4048   9.291  17.811   8.230 -0.4190 -0.1684  0.0374
  254loPI    C1 4049   9.745  15.068  11.010  0.1543  0.1389 -0.0751
  254loPI    C2 4050  10.103  14.930  11.123  0.1222 -0.0081 -0.1497
  254loPI    C3 4051   9.908  15.192  11.354  0.1421 -0.1594  0.0418
  254loPI   PO4 4052   9.806  15.097  10.683 -0.0309 -0.0098 -0.0205
  254loPI   GL1 4053   9.795  15.330  10.299  0.3558 -0.0493 -0.0187
  254loPI   GL2 4054   9.706  15.579  10.198  0.1631  0.1848 -0.0070
  254loPI   C1A 4055   9.505  15.109   9.939 -0.1775 -0.3911 -0.0726
  254loPI   C2A 4056   9.436  15.010   9.557 -0.3600  0.1826 -0.2873
  254loPI   C3A 4057   9.559  14.908   9.095 -0.0713  0.1261 -0.0116
  254loPI   C4A 4058   9.634  14.926   8.633 -0.0936  0.0042 -0.1618
  254loPI   C5A 4059   9.703  14.607   8.203  0.1648 -0.5315 -0.1768
  254loPI   C6A 4060   9.895  14.404   7.812 -0.0084 -0.2531 -0.1754
  254loPI   C1B 4061   9.718  15.518   9.761 -0.0616  0.1496  0.2434
  254loPI   C2B 4062   9.700  15.421   9.258  0.2069  0.1807 -0.0514
  254loPI   C3B 4063   9.694  15.345   8.831 -0.0675 -0.0741 -0.0596
  254loPI   C4B 4064   9.856  15.220   8.313 -0.1181 -0.1202 -0.0628
  255loPI    C1 4065  16.188   9.342  11.348 -0.1271 -0.2717  0.3259
  255loPI    C2 4066  16.501   9.479  11.556 -0.0385  0.0628 -0.0173
  255loPI    C3 4067  16.130   9.598  11.650 -0.0277 -0.0237  0.1379
  255loPI   PO4 4068  16.397   9.292  11.052 -0.1369 -0.0017 -0.2481
  255loPI   GL1 4069  16.371   9.387  10.553 -0.1502 -0.4054  0.1729
  255loPI   GL2 4070  16.198   9.223  10.582 -0.0651  0.2875 -0.1165
  255loPI   C1A 4071  16.530   9.233  10.201  0.0590 -0.2372 -0.1958
  255loPI   C2A 4072  16.397   9.092   9.865 -0.1377 -0.1118 -0.0515
  255loPI   C3A 4073  16.399   9.343   9.567  0.0734 -0.1120  0.0518
  255loPI   C4A 4074  16.123   9.513   9.210  0.4022 -0.1164 -0.2930
  255loPI   C5A 4075  15.863   9.555   8.851  0.3349  0.2818 -0.1327
  255loPI   C6A 4076  15.826   9.398   8.464 -0.2638 -0.2206 -0.1151
  255loPI   C1B 4077  15.995   9.279  10.161  0.0000  0.3831 -0.1770
  255loPI   C2B 4078  15.502   9.327  10.081 -0.2791 -0.1963  0.0132
  255loPI   C3B 4079  15.385   9.361   9.619  0.0411 -0.1762  0.2851
  255loPI   C4B 4080  15.274   9.355   9.311  0.0931  0.0800  0.0164
  256loPI    C1 4081   1.469   0.211  10.667 -0.1699  0.0687 -0.2081
  256loPI    C2 4082   1.481   0.563  10.857 -0.0564 -0.0277 -0.0334
  256loPI    C3 4083   1.396   0.229  11.060 -0.0880 -0.1121 -0.1837
  256loPI   PO4 4084   1.658   0.337  10.395 -0.0849  0.1588  0.0804
  256loPI   GL1 4085   1.593   0.454  10.035  0.2791  0.3873 -0.1662
  256loPI   GL2 4086   1.854   0.655   9.972 -0.0777  0.0306  0.0404
  256loPI   C1A 4087   1.388   0.320   9.710 -0.0588 -0.1686  0.1929
  256loPI   C2A 4088   1.408   0.350   9.286 -0.1598 -0.1896  0.0798
  256loPI   C3A 4089   1.363   0.284   8.941 -0.0109  0.0459 -0.0989
  256loPI   C4A 4090   1.058   0.311   8.610 -0.0809 -0.2572  0.2393
  256loPI   C5A 4091   1.070   0.414   8.179  0.0444  0.0808  0.0586
  256loPI   C6A 4092   1.161   0.440   7.760 -0.1211  0.2642 -0.2178
  256loPI   C1B 4093   1.714   0.656   9.545 -0.0258  0.2351 -0.2565
  256loPI   C2B 4094   1.816   0.602   9.072  0.1904  0.0740 -0.0653
  256loPI   C3B 4095   1.610   0.698   8.717  0.0494  0.0824 -0.0079
  256loPI   C4B 4096   1.532   0.357   8.491 -0.0293  0.1669  0.3093
  257loPI    C1 4097  11.864  13.718  10.628  0.0765  0.2902 -0.0228
  257loPI    C2 4098  11.666  13.873  10.939 -0.0322  0.0612  0.0240
  257loPI    C3 4099  12.015  13.685  10.997 -0.1423 -0.1423  0.0339
  257loPI   PO4 4100  11.775  13.837  10.395  0.0846 -0.2825 -0.2478
  257loPI   GL1 4101  11.857  14.003  10.031  0.0436  0.1540 -0.0894
  257loPI   GL2 4102  12.162  14.072  10.096 -0.1413 -0.0631 -0.0042
  257loPI   C1A 4103  12.024  13.840   9.639 -0.2412  0.1475  0.0227
  257loPI   C2A 4104  12.003  13.724   9.281 -0.0264  0.0364  0.1394
  257loPI   C3A 4105  11.994  13.771   8.757 -0.1158  0.3902 -0.1044
  257loPI   C4A 4106  12.000  13.725   8.251 -0.0301 -0.2897 -0.0435
  257loPI   C5A 4107  12.344  13.431   8.106 -0.1036 -0.1127  0.1636
  257loPI   C6A 4108  12.302  13.042   7.856 -0.0359 -0.1014 -0.0911
  257loPI   C1B 4109  12.363  14.197   9.732  0.2564 -0.2143  0.0488
  257loPI   C2B 4110  12.229  14.149   9.254  0.0379  0.0459 -0.1573
  257loPI   C3B 4111  12.253  14.197   8.723  0.1187 -0.4081  0.0626
  257loPI   C4B 4112  12.226  14.224   8.325  0.1908 -0.0033  0.0542
  258loPI    C1 4113   3.463   3.195  10.755  0.2552  0.1537 -0.1089
  258loPI    C2 4114   3.600   3.036  11.095 -0.0343  0.1200 -0.0050
  258loPI    C3 4115   3.431   3.398  11.098 -0.3087 -0.0049 -0.0569
  258loPI   PO4 4116   3.599   3.266  10.557 -0.1909 -0.1316  0.2323
  258loPI   GL1 4117   3.487   3.121  10.107 -0.1033  0.3966  0.0289
  258loPI   GL2 4118   3.618   2.834  10.175 -0.0654 -0.1364  0.2579
  258loPI   C1A 4119   3.394   3.183   9.650 -0.0199 -0.2109 -0.0394
  258loPI   C2A 4120   3.534   3.264   9.186 -0.2299 -0.2198  0.2128
  258loPI   C3A 4121   3.399   3.264   8.693 -0.0847  0.0206  0.1509
  258loPI   C4A 4122   3.642   3.313   8.397  0.1000 -0.0214  0.1092
  258loPI   C5A 4123   4.111   3.215   8.280 -0.2120  0.0958 -0.2884
  258loPI   C6A 4124   4.348   3.412   8.020 -0.1428 -0.0020  0.1555
  258loPI   C1B 4125   3.687   2.637   9.758 -0.2323 -0.0575  0.0046
  258loPI   C2B 4126   3.869   2.522   9.379 -0.0231  0.2507 -0.1016
  258loPI   C3B 4127   3.986   2.354   9.044 -0.2171 -0.0710  0.0351
  258loPI   C4B 4128   3.861   2.391   8.593 -0.1738  0.2288 -0.0107
  259loPI    C1 4129   5.323   2.112  10.831  0.2890 -0.2330 -0.0174
  259loPI    C2 4130   5.443   2.243  11.190  0.0478  0.1007 -0.0540
  259loPI    C3 4131   5.310   1.868  11.148  0.0468  0.0695  0.2121
  259loPI   PO4 4132   5.539   2.185  10.678  0.2105 -0.0725 -0.3872
  259loPI   GL1 4133   5.482   2.048  10.314 -0.3751 -0.2928  0.1795
  259loPI   GL2 4134   5.359   1.800  10.286  0.1949 -0.0977  0.1387
  259loPI   C1A 4135   5.263   2.217   9.946 -0.3095 -0.0953 -0.2359
  259loPI   C2A 4136   5.292   2.117   9.546 -0.1666  0.2877  0.3467
  259loPI   C3A 4137   5.536   2.124   9.173 -0.1990 -0.2101  0.1566
  259loPI   C4A 4138   5.618   2.164   8.808 -0.1313  0.0194  0.0130
  259loPI   C5A 4139   5.872   2.364   8.432 -0.0037  0.1693  0.1427
  259loPI   C6A 4140   6.036   2.727   8.192 -0.2021 -0.0198  0.0749
  259loPI   C1B 4141   5.659   1.887   9.867 -0.0941  0.1170 -0.0906
  259loPI   C2B 4142   5.877   1.946   9.563 -0.3165 -0.1999  0.3306
  259loPI   C3B 4143   6.067   2.062   9.225 -0.0056  0.1002 -0.1714
  259loPI   C4B 4144   6.204   2.085   8.835 -0.0605 -0.2133  0.1467
  260loPI    C1 4145   8.876   3.268  10.661 -0.0478 -0.0202  0.0521
  260loPI    C2 4146   8.832   2.902  10.818 -0.2425 -0.0090  0.0262
  260loPI    C3 4147   8.752   3.225  11.039 -0.1674  0.0162  0.0171
  260loPI   PO4 4148   9.074   3.239  10.522 -0.0053 -0.1166 -0.1901
  260loPI   GL1 4149   9.240   3.138  10.257  0.0079  0.1749  0.3204
  260loPI   GL2 4150   9.437   3.340  10.133  0.0138 -0.0148 -0.0356
  260loPI   C1A 4151   9.305   2.953   9.846 -0.1281 -0.0384 -0.3471
  260loPI   C2A 4152   9.289   2.975   9.446 -0.3078 -0.1693  0.0330
  260loPI   C3A 4153   9.271   3.228   9.150 -0.0221 -0.2777 -0.0860
  260loPI   C4A 4154   9.126   3.379   8.749  0.1874 -0.0471 -0.0959
  260loPI   C5A 4155   8.886   3.722   8.506  0.0076 -0.5841 -0.1956
  260loPI   C6A 4156   8.707   3.827   8.128  0.2796  0.0349 -0.1120
  260loPI   C1B 4157   9.326   3.425   9.715  0.1957  0.0245 -0.1474
  260loPI   C2B 4158   9.236   3.681   9.379 -0.0192  0.4545 -0.0613
  260loPI   C3B 4159   9.177   3.806   9.011 -0.1219  0.1848  0.2855
  260loPI   C4B 4160   9.491   3.797   8.601 -0.0047 -0.0560 -0.2589
  261loPI    C1 4161   5.321   0.817  10.610  0.1443 -0.0807  0.2427
  261loPI    C2 4162   5.633   0.817  10.860  0.1881 -0.1987  0.1886
  261loPI    C3 4163   5.263   0.759  11.001  0.1824  0.0081  0.2618
  261loPI   PO4 4164   5.526   0.692  10.341  0.1573  0.2679 -0.2469
  261loPI   GL1 4165   5.373   0.619   9.856 -0.0969  0.1258  0.1282
  261loPI   GL2 4166   5.244   0.920   9.991  0.0301  0.1200  0.1297
  261loPI   C1A 4167   5.420   0.694   9.418  0.0136 -0.1172  0.1521
  261loPI   C2A 4168   5.589   0.682   9.003 -0.3143  0.0044  0.1609
  261loPI   C3A 4169   5.718   0.736   8.599  0.1885 -0.0733  0.0175
  261loPI   C4A 4170   5.707   1.011   8.359  0.0688  0.1747  0.0226
  261loPI   C5A 4171   5.770   1.369   8.309  0.0744 -0.0763  0.1757
  261loPI   C6A 4172   5.974   1.562   8.076  0.2366 -0.1029  0.0519
  261loPI   C1B 4173   5.223   1.143   9.568  0.0792 -0.1200 -0.3132
  261loPI   C2B 4174   5.403   1.218   9.194  0.1833 -0.0766  0.1057
  261loPI   C3B 4175   5.520   1.370   8.783 -0.1351  0.0436 -0.0334
  261loPI   C4B 4176   5.262   1.287   8.381 -0.2394  0.1649 -0.2147
  262loPI    C1 4177   8.917   1.120  10.415 -0.0321  0.2206  0.0286
  262loPI    C2 4178   8.723   0.911  10.696 -0.0590  0.0845 -0.0901
  262loPI    C3 4179   9.122   0.893  10.672 -0.0517  0.1470 -0.0206
  262loPI   PO4 4180   8.734   1.366  10.363 -0.1058 -0.2282  0.0924
  262loPI   GL1 4181   8.707   1.656  10.159  0.0838  0.3623 -0.1484
  262loPI   GL2 4182   8.968   1.608   9.962  0.0008 -0.2059 -0.1780
  262loPI   C1A 4183   8.424   1.626   9.750  0.0565 -0.1342  0.3381
  262loPI   C2A 4184   8.356   1.663   9.369  0.0455 -0.0522  0.2671
  262loPI   C3A 4185   8.407   1.755   8.951 -0.0931  0.2753  0.0922
  262loPI   C4A 4186   8.343   1.899   8.555  0.2729  0.2527 -0.0870
  262loPI   C5A 4187   8.254   2.120   8.186 -0.0635  0.0251 -0.0006
  262loPI   C6A 4188   8.250   2.487   7.971  0.3182  0.0085  0.0880
  262loPI   C1B 4189   9.118   1.658   9.529  0.2081 -0.0243  0.2254
  262loPI   C2B 4190   9.172   1.724   9.172  0.1331  0.0812  0.2568
  262loPI   C3B 4191   8.962   1.798   8.790  0.3494  0.0170  0.0940
  262loPI   C4B 4192   8.934   1.783   8.329  0.0891 -0.1381 -0.1471
  263loPI    C1 4193   2.513   0.786  10.741  0.1199 -0.0716 -0.0439
  263loPI    C2 4194   2.872   0.958  10.699  0.1756 -0.1584  0.0704
  263loPI    C3 4195   2.763   0.808  11.053 -0.1621  0.2887  0.1650
  263loPI   PO4 4196   2.543   0.650  10.501  0.0190  0.3821 -0.0097
  263loPI   GL1 4197   2.750   0.835  10.160 -0.2578 -0.0158  0.1165
  263loPI   GL2 4198   2.841   0.518  10.175 -0.2314  0.1724 -0.0087
  263loPI   C1A 4199   2.655   0.926   9.806 -0.1550  0.0534 -0.0102
  263loPI   C2A 4200   2.606   0.997   9.307 -0.0833 -0.1095  0.0147
  263loPI   C3A 4201   2.565   0.979   8.791  0.3447 -0.1358  0.2707
  263loPI   C4A 4202   2.767   0.855   8.446  0.0948 -0.0276 -0.2721
  263loPI   C5A 4203   2.935   0.737   8.067  0.1479  0.2129  0.2147
  263loPI   C6A 4204   3.294   0.697   7.920 -0.1210 -0.1403 -0.0597
  263loPI   C1B 4205   2.823   0.471   9.697  0.0899 -0.0762 -0.0301
  263loPI   C2B 4206   2.836   0.543   9.273  0.2691 -0.0362  0.1602
  263loPI   C3B 4207   2.945   0.572   8.875  0.0074  0.1801 -0.3111
  263loPI   C4B 4208   3.095   0.501   8.497 -0.0539  0.2472 -0.1181
  264loPI    C1 4209  17.916  14.036  10.884  0.0120  0.1003  0.1420
  264loPI    C2 4210  17.906  13.637  10.904  0.0722  0.0991  0.1484
  264loPI    C3 4211  18.180  13.841  11.112  0.2214  0.1275 -0.0734
  264loPI   PO4 4212  17.865  14.087  10.684  0.1028 -0.2592 -0.0351
  264loPI   GL1 4213  18.095  14.297  10.255 -0.0382  0.2478 -0.1443
  264loPI   GL2 4214  18.349  14.116  10.202  0.1730  0.0835  0.3327
  264loPI   C1A 4215  17.833  14.511  10.051  0.2768 -0.1316 -0.0943
  264loPI   C2A 4216  17.763  14.439   9.611 -0.3259  0.0786  0.0400
  264loPI   C3A 4217  17.808  13.979   9.472 -0.1014  0.0055 -0.0076
  264loPI   C4A 4218  17.880  13.806   9.053 -0.1144 -0.0597 -0.3159
  264loPI   C5A 4219  18.075  13.888   8.753 -0.0611 -0.2805 -0.0398
  264loPI   C6A 4220  18.395  13.958   8.338  0.1151  0.0358 -0.0291
  264loPI   C1B 4221  18.195  14.246   9.714  0.0375  0.2644  0.0498
  264loPI   C2B 4222  18.298  14.273   9.275  0.2921 -0.1107 -0.0352
  264loPI   C3B 4223  18.353  14.324   8.856 -0.2825  0.0975 -0.0377
  264loPI   C4B 4224  18.373  14.493   8.538 -0.3479 -0.0659 -0.0436
  265loPI    C1 4225   1.721  10.550  11.020  0.1051  0.1239 -0.1201
  265loPI    C2 4226   1.773  10.449  11.404 -0.0500  0.2546 -0.0634
  265loPI    C3 4227   2.086  10.560  11.182  0.0633  0.0301 -0.0183
  265loPI   PO4 4228   1.511  10.317  10.879 -0.2793 -0.0902 -0.0622
  265loPI   GL1 4229   1.404  10.332  10.543  0.1163 -0.1085  0.2866
  265loPI   GL2 4230   1.569  10.658  10.491 -0.3513 -0.0529 -0.1389
  265loPI   C1A 4231   1.317  10.310  10.010  0.0275  0.0562 -0.0532
  265loPI   C2A 4232   0.998  10.178   9.742 -0.2555  0.4247  0.0339
  265loPI   C3A 4233   0.839  10.305   9.382  0.1267  0.2419 -0.0429
  265loPI   C4A 4234   0.727  10.200   9.035  0.5067 -0.0038 -0.2063
  265loPI   C5A 4235   0.748   9.951   8.722  0.1024 -0.0159 -0.1359
  265loPI   C6A 4236   0.967   9.645   8.486  0.0603 -0.0059 -0.0731
  265loPI   C1B 4237   1.529  10.754  10.001  0.0137 -0.1581  0.0107
  265loPI   C2B 4238   1.468  10.963   9.631  0.0201  0.2288  0.3822
  265loPI   C3B 4239   1.453  10.931   9.116  0.0898  0.1431 -0.1004
  265loPI   C4B 4240   1.508  11.145   8.762 -0.2073 -0.2653  0.0680
  266loPI    C1 4241   8.814   2.271  10.743  0.1190  0.0253 -0.0649
  266loPI    C2 4242   8.603   2.497  10.996  0.1101  0.0230 -0.0702
  266loPI    C3 4243   8.869   2.233  11.137 -0.2776 -0.3617 -0.0380
  266loPI   PO4 4244   8.771   2.486  10.396 -0.1255  0.1179 -0.1355
  266loPI   GL1 4245   8.910   2.160  10.114  0.1908 -0.0889 -0.0594
  266loPI   GL2 4246   9.159   2.029  10.315 -0.2689  0.1739  0.6298
  266loPI   C1A 4247   8.767   1.990   9.700  0.2800  0.2743  0.2206
  266loPI   C2A 4248   8.670   2.038   9.303  0.2043  0.2180  0.1799
  266loPI   C3A 4249   8.642   2.208   8.851 -0.0259  0.1518 -0.2212
  266loPI   C4A 4250   8.987   2.319   8.565 -0.0135 -0.0462  0.0805
  266loPI   C5A 4251   9.369   2.281   8.325 -0.0640 -0.2537 -0.0753
  266loPI   C6A 4252   9.618   2.088   8.008  0.1937 -0.1031 -0.1124
  266loPI   C1B 4253   9.305   2.046   9.893  0.2313  0.0512  0.0143
  266loPI   C2B 4254   9.233   2.130   9.444 -0.0419  0.1534  0.0552
  266loPI   C3B 4255   9.045   2.334   9.252  0.1496  0.1136 -0.1194
  266loPI   C4B 4256   9.195   2.603   8.963 -0.2777  0.2743 -0.3016
  267loPI    C1 4257  17.961  17.526  10.556  0.0741  0.0873  0.0520
  267loPI    C2 4258  17.579  17.534  10.672  0.0916  0.3451  0.0965
  267loPI    C3 4259  17.865  17.435  10.933  0.0319 -0.1325 -0.0102
  267loPI   PO4 4260  17.890  17.634  10.280  0.0071  0.0047  0.0566
  267loPI   GL1 4261  17.791  17.535   9.830 -0.1196  0.1138  0.3324
  267loPI   GL2 4262  17.576  17.748   9.800 -0.1339 -0.2849 -0.2037
  267loPI   C1A 4263  17.765  17.204   9.522  0.1230 -0.1450  0.0566
  267loPI   C2A 4264  17.726  17.114   9.025 -0.0802  0.0516  0.1581
  267loPI   C3A 4265  17.632  17.376   8.617 -0.2306  0.1244 -0.1458
  267loPI   C4A 4266  17.715  17.635   8.418  0.3574 -0.0877 -0.2347
  267loPI   C5A 4267  17.826  17.871   8.026  0.2249  0.2024 -0.0758
  267loPI   C6A 4268  17.826  18.131   7.710 -0.1512  0.2841  0.0264
  267loPI   C1B 4269  17.814  17.648   9.345 -0.0961  0.1949 -0.1795
  267loPI   C2B 4270  17.901  17.647   8.928 -0.1088 -0.0557  0.0628
  267loPI   C3B 4271  18.215  17.717   8.554  0.1542  0.2422  0.2173
  267loPI   C4B 4272  18.382  17.593   8.165 -0.0440 -0.1145 -0.0631
  268loPI    C1 4273  12.823  10.619  11.216 -0.1163  0.1395  0.1281
  268loPI    C2 4274  12.991  10.605  11.579  0.0196 -0.1747  0.0568
  268loPI    C3 4275  12.733  10.320  11.467 -0.1833  0.0352 -0.0184
  268loPI   PO4 4276  13.003  10.629  11.024  0.3685 -0.3143  0.1182
  268loPI   GL1 4277  13.013  10.324  10.670  0.2177  0.1185  0.0669
  268loPI   GL2 4278  12.916  10.013  10.591  0.0559  0.1787  0.1212
  268loPI   C1A 4279  13.138  10.317  10.245  0.1326  0.0176  0.1486
  268loPI   C2A 4280  13.192  10.320   9.793 -0.1868 -0.2714 -0.2576
  268loPI   C3A 4281  13.232  10.364   9.353  0.1291  0.1949 -0.0500
  268loPI   C4A 4282  13.189  10.472   8.973  0.0779  0.5284 -0.3858
  268loPI   C5A 4283  12.990  10.599   8.479  0.0774  0.1354  0.0557
  268loPI   C6A 4284  12.598  10.700   8.333 -0.0329  0.0074 -0.0617
  268loPI   C1B 4285  13.033   9.831  10.175 -0.0717  0.1172 -0.1974
  268loPI   C2B 4286  13.016   9.850   9.733  0.1140  0.0497 -0.0589
  268loPI   C3B 4287  13.047   9.927   9.340 -0.0142 -0.2247 -0.0181
  268loPI   C4B 4288  12.970   9.766   9.012  0.1162 -0.0118 -0.1020
  269loPI    C1 4289  15.841  13.916  10.453 -0.0697 -0.1634 -0.1583
  269loPI    C2 4290  15.467  13.983  10.329 -0.0880  0.0980  0.0315
  269loPI    C3 4291  15.532  13.777  10.665 -0.0583 -0.0090 -0.0392
  269loPI   PO4 4292  16.012  14.221  10.284  0.1776  0.0477 -0.0382
  269loPI   GL1 4293  16.042  14.152   9.959  0.1407 -0.2263  0.0517
  269loPI   GL2 4294  15.769  13.914   9.909 -0.0740 -0.0432  0.0703
  269loPI   C1A 4295  16.081  14.501   9.731 -0.2622  0.1275 -0.1492
  269loPI   C2A 4296  16.084  14.545   9.267  0.4471  0.1272  0.0752
  269loPI   C3A 4297  16.060  14.699   8.836 -0.2540 -0.2212 -0.1269
  269loPI   C4A 4298  16.125  14.799   8.503 -0.3154  0.0031  0.1217
  269loPI   C5A 4299  16.125  14.870   8.117 -0.0894 -0.1703  0.0658
  269loPI   C6A 4300  15.888  15.002   7.788  0.0418  0.3679 -0.1834
  269loPI   C1B 4301  15.919  13.524   9.684 -0.1553 -0.0813 -0.1712
  269loPI   C2B 4302  15.963  13.366   9.226 -0.0285 -0.2455  0.2272
  269loPI   C3B 4303  15.944  13.231   8.828 -0.1712  0.3007  0.2192
  269loPI   C4B 4304  15.704  13.415   8.558 -0.1031  0.1808  0.1269
  270loPI    C1 4305   6.656  17.026   9.995  0.1742 -0.1020 -0.1759
  270loPI    C2 4306   6.893  17.094  10.310  0.1399 -0.1890 -0.1310
  270loPI    C3 4307   6.644  16.780  10.310 -0.0622 -0.0308 -0.1279
  270loPI   PO4 4308   6.598  17.300   9.901  0.2042  0.0834  0.2587
  270loPI   GL1 4309   6.434  17.464   9.604  0.2510  0.1595 -0.3452
  270loPI   GL2 4310   6.816  17.492   9.460 -0.1008 -0.0353 -0.0046
  270loPI   C1A 4311   6.283  17.661   9.261  0.1731 -0.0730  0.2611
  270loPI   C2A 4312   6.228  17.754   8.839  0.0113 -0.0202  0.0106
  270loPI   C3A 4313   6.167  17.818   8.342  0.2078  0.0780  0.0842
  270loPI   C4A 4314   5.817  17.928   8.019 -0.2919  0.0577 -0.1361
  270loPI   C5A 4315   5.851  18.325   7.647  0.1073  0.1382  0.0213
  270loPI   C6A 4316   5.918  18.298   7.262  0.2093  0.2252 -0.0694
  270loPI   C1B 4317   6.882  17.068   9.275  0.0110  0.0574 -0.2386
  270loPI   C2B 4318   6.693  16.988   8.770 -0.1840  0.0865 -0.1483
  270loPI   C3B 4319   6.538  16.874   8.410 -0.0546  0.0652 -0.1291
  270loPI   C4B 4320   6.424  17.141   8.065 -0.1690  0.0910 -0.2509
  271loPI    C1 4321   7.716   2.499  10.814 -0.1989  0.1758 -0.1122
  271loPI    C2 4322   8.061   2.586  10.998 -0.2080  0.0461 -0.0319
  271loPI    C3 4323   7.730   2.519  11.213 -0.2286 -0.0649 -0.0974
  271loPI   PO4 4324   7.774   2.626  10.554 -0.0235  0.2616  0.1722
  271loPI   GL1 4325   7.635   2.886  10.281  0.0071 -0.0198  0.1903
  271loPI   GL2 4326   7.782   2.989   9.921 -0.0912 -0.2127  0.3329
  271loPI   C1A 4327   7.369   3.212   9.849  0.0186 -0.2084 -0.0438
  271loPI   C2A 4328   7.340   3.378   9.335 -0.1737 -0.0277 -0.1920
  271loPI   C3A 4329   7.264   3.467   8.884  0.0537 -0.0472 -0.1408
  271loPI   C4A 4330   7.256   3.557   8.396 -0.0209  0.0570  0.0192
  271loPI   C5A 4331   6.767   3.831   8.262  0.4254 -0.0318 -0.2285
  271loPI   C6A 4332   6.328   3.745   8.260  0.1399 -0.1662 -0.2857
  271loPI   C1B 4333   7.788   3.080   9.457  0.0965 -0.3742 -0.0602
  271loPI   C2B 4334   7.735   3.175   9.031  0.2184 -0.2920 -0.3273
  271loPI   C3B 4335   7.720   3.448   8.612  0.2686  0.1026  0.0018
  271loPI   C4B 4336   7.699   3.806   8.295 -0.1473 -0.1134  0.2496
  272loPI    C1 4337   6.084   8.206  10.821  0.0439 -0.0727  0.0069
  272loPI    C2 4338   5.991   8.545  11.012 -0.0133 -0.0112 -0.1285
  272loPI    C3 4339   5.941   8.192  11.194 -0.1037  0.0445 -0.0444
  272loPI   PO4 4340   6.213   8.302  10.631 -0.2153  0.1942  0.0808
  272loPI   GL1 4341   6.209   8.541  10.204  0.1305  0.1436  0.4232
  272loPI   GL2 4342   6.417   8.591   9.938  0.0472 -0.0018  0.0771
  272loPI   C1A 4343   5.964   8.828   9.857 -0.0457  0.1562 -0.1601
  272loPI   C2A 4344   5.881   9.224   9.597 -0.2444  0.0703  0.4330
  272loPI   C3A 4345   6.062   9.076   9.177 -0.2063  0.0790  0.0663
  272loPI   C4A 4346   6.035   9.172   8.665 -0.1495  0.0505  0.3247
  272loPI   C5A 4347   5.651   9.457   8.424  0.4032  0.1999  0.2054
  272loPI   C6A 4348   5.278   9.455   8.226 -0.0780  0.1784  0.2888
  272loPI   C1B 4349   6.712   8.723   9.669 -0.0343 -0.1579  0.1113
  272loPI   C2B 4350   6.689   8.771   9.258  0.1429 -0.0930 -0.0084
  272loPI   C3B 4351   6.440   8.822   8.913  0.2066  0.2834 -0.0814
  272loPI   C4B 4352   6.542   8.735   8.534 -0.1816  0.1312  0.0397
  273loPI    C1 4353   6.344  17.976  10.646 -0.0249 -0.1218 -0.0245
  273loPI    C2 4354   6.063  17.705  10.561 -0.0748 -0.1308  0.1654
  273loPI    C3 4355   6.171  17.768  10.941  0.1427 -0.0898  0.0978
  273loPI   PO4 4356   6.334  18.060  10.351 -0.0783 -0.0163  0.0252
  273loPI   GL1 4357   6.408  17.990   9.930 -0.0006 -0.0865  0.1649
  273loPI   GL2 4358   6.661  17.800   9.836  0.1654 -0.1168  0.0019
  273loPI   C1A 4359   6.116  18.181   9.703 -0.0080 -0.2559 -0.3539
  273loPI   C2A 4360   6.092  18.126   9.358  0.0034 -0.2206  0.0807
  273loPI   C3A 4361   6.130  18.182   8.953  0.2831  0.1307  0.1289
  273loPI   C4A 4362   6.120  18.384   8.585 -0.1113  0.0633 -0.3978
  273loPI   C5A 4363   6.168  18.890   8.527  0.1765 -0.2034  0.1037
  273loPI   C6A 4364   6.115  19.451   8.665 -0.0783  0.0030  0.2172
  273loPI   C1B 4365   6.720  18.023   9.495 -0.0332 -0.0596  0.0052
  273loPI   C2B 4366   6.573  18.017   9.082 -0.0745 -0.1015 -0.1592
  273loPI   C3B 4367   6.678  17.946   8.597 -0.0885 -0.1555  0.1799
  273loPI   C4B 4368   6.560  18.128   8.203 -0.1881  0.1520 -0.4209
  274loPI    C1 4369  16.804  12.007  10.601  0.1188 -0.2823 -0.2496
  274loPI    C2 4370  16.828  11.752  10.907  0.1187 -0.0136 -0.0212
  274loPI    C3 4371  17.135  11.789  10.654  0.2105 -0.0701  0.0811
  274loPI   PO4 4372  16.601  11.988  10.456 -0.3280 -0.0412 -0.1962
  274loPI   GL1 4373  16.567  11.871  10.097  0.1123  0.0255  0.0937
  274loPI   GL2 4374  16.583  11.601  10.002 -0.1886 -0.0022 -0.0950
  274loPI   C1A 4375  16.213  11.898   9.782 -0.3660 -0.1375  0.1780
  274loPI   C2A 4376  16.138  11.900   9.401  0.0541 -0.1334  0.0096
  274loPI   C3A 4377  16.046  11.822   9.007 -0.0807 -0.1097 -0.0856
  274loPI   C4A 4378  16.106  11.726   8.592  0.0046  0.0912 -0.1388
  274loPI   C5A 4379  16.384  11.857   8.303  0.2062  0.1722 -0.0883
  274loPI   C6A 4380  16.592  12.257   8.327 -0.1494 -0.1444  0.2175
  274loPI   C1B 4381  16.392  11.429   9.705 -0.0078 -0.2041 -0.0668
  274loPI   C2B 4382  16.422  11.505   9.188  0.0377  0.0506 -0.0586
  274loPI   C3B 4383  16.449  11.381   8.733  0.0645  0.1703 -0.3527
  274loPI   C4B 4384  16.515  11.376   8.381  0.2436  0.4263  0.0802
  275loPI    C1 4385  10.718   8.602  11.156  0.0026  0.1348 -0.0222
  275loPI    C2 4386  10.409   8.383  11.285  0.0448  0.0464 -0.0704
  275loPI    C3 4387  10.433   8.770  11.381  0.1015 -0.0288  0.2299
  275loPI   PO4 4388  10.758   8.572  10.860  0.1778  0.2229  0.1492
  275loPI   GL1 4389  10.674   8.548  10.461  0.0926 -0.1189 -0.2098
  275loPI   GL2 4390  10.431   8.723  10.414 -0.1359 -0.1137 -0.1031
  275loPI   C1A 4391  11.011   8.648  10.151  0.1424 -0.0084  0.0838
  275loPI   C2A 4392  11.083   8.640   9.696 -0.3032 -0.1098  0.0637
  275loPI   C3A 4393  11.110   8.753   9.237  0.1113 -0.1302  0.1855
  275loPI   C4A 4394  11.038   8.587   8.866  0.0001 -0.0125 -0.1952
  275loPI   C5A 4395  11.226   8.416   8.480  0.2046  0.2006 -0.1090
  275loPI   C6A 4396  11.468   8.197   8.247  0.1724  0.0596 -0.0449
  275loPI   C1B 4397  10.544   8.539  10.018 -0.0303 -0.0248 -0.0235
  275loPI   C2B 4398  10.578   8.517   9.641 -0.0453 -0.0973 -0.0126
  275loPI   C3B 4399  10.529   8.625   9.185 -0.3503  0.1316  0.0496
  275loPI   C4B 4400  10.511   8.603   8.716  0.1311  0.0284  0.0336
  276loPI    C1 4401   4.847   9.964  10.940 -0.0099  0.0530 -0.0333
  276loPI    C2 4402   4.679  10.030  11.297 -0.2479 -0.2735 -0.0806
  276loPI    C3 4403   5.076  10.055  11.255 -0.2292 -0.1068  0.1758
  276loPI   PO4 4404   4.734   9.800  10.767 -0.3880 -0.2398  0.1760
  276loPI   GL1 4405   4.514   9.809  10.463 -0.0089  0.0412  0.0707
  276loPI   GL2 4406   4.788   9.657  10.276  0.1792 -0.0004 -0.1036
  276loPI   C1A 4407   4.252   9.850  10.142  0.1064  0.0458  0.3058
  276loPI   C2A 4408   4.233   9.960   9.725 -0.0774  0.3454 -0.2579
  276loPI   C3A 4409   4.609  10.084   9.521  0.2198 -0.0694  0.1354
  276loPI   C4A 4410   4.907  10.225   9.256 -0.0576  0.0980 -0.3671
  276loPI   C5A 4411   5.158  10.465   8.911  0.0213  0.1794 -0.1499
  276loPI   C6A 4412   5.295  10.843   8.665  0.0778 -0.2783 -0.0741
  276loPI   C1B 4413   4.730   9.856   9.954 -0.0708 -0.2036  0.1432
  276loPI   C2B 4414   4.931   9.680   9.599 -0.1799  0.1471 -0.0178
  276loPI   C3B 4415   5.178   9.717   9.238 -0.0598 -0.1137 -0.0446
  276loPI   C4B 4416   5.348   9.974   8.926 -0.0644 -0.0356 -0.2622
  277loPI    C1 4417  16.714   2.888  10.566  0.1227 -0.0179 -0.1948
  277loPI    C2 4418  16.786   2.495  10.578 -0.2537 -0.0859 -0.0235
  277loPI    C3 4419  16.566   2.667  10.865 -0.0449  0.2617 -0.0660
  277loPI   PO4 4420  16.657   2.944  10.359  0.0137 -0.1947 -0.1581
  277loPI   GL1 4421  16.540   2.867   9.945 -0.2401 -0.0574 -0.0790
  277loPI   GL2 4422  16.829   3.139   9.962  0.0748 -0.0041  0.0822
  277loPI   C1A 4423  16.335   2.675   9.578  0.1874 -0.0608 -0.0785
  277loPI   C2A 4424  16.161   2.733   9.154  0.1477  0.0275 -0.1441
  277loPI   C3A 4425  16.336   2.663   8.741  0.2905 -0.0319  0.2206
  277loPI   C4A 4426  16.402   2.516   8.357  0.1772 -0.0834 -0.0477
  277loPI   C5A 4427  16.323   2.478   7.903  0.1291 -0.1841 -0.0188
  277loPI   C6A 4428  16.197   2.697   7.491 -0.1674  0.0834 -0.2078
  277loPI   C1B 4429  16.628   3.131   9.501  0.0499 -0.2297 -0.1018
  277loPI   C2B 4430  16.508   3.077   9.063  0.0373  0.1756  0.1499
  277loPI   C3B 4431  16.143   3.147   8.847 -0.1431  0.1816 -0.0016
  277loPI   C4B 4432  15.982   3.401   8.627  0.0599 -0.0430 -0.2539
  278loPI    C1 4433  10.010  17.736  10.525  0.0770 -0.0121  0.0193
  278loPI    C2 4434   9.960  17.867  10.900 -0.0903  0.1956 -0.0733
  278loPI    C3 4435  10.321  17.745  10.777 -0.0368  0.1153  0.1577
  278loPI   PO4 4436   9.935  17.922  10.382  0.0999  0.3693  0.0257
  278loPI   GL1 4437   9.838  18.002   9.931 -0.0359 -0.0427 -0.3853
  278loPI   GL2 4438   9.738  18.055   9.652 -0.0374  0.0274  0.2315
  278loPI   C1A 4439  10.172  18.232   9.815  0.0383  0.0416  0.2378
  278loPI   C2A 4440  10.449  18.295   9.411 -0.0341 -0.1908  0.3090
  278loPI   C3A 4441  10.630  18.302   9.058 -0.0522  0.1238  0.7633
  278loPI   C4A 4442  10.641  18.202   8.634  0.0986  0.1823 -0.1324
  278loPI   C5A 4443  10.819  17.926   8.341  0.0261 -0.1153  0.0144
  278loPI   C6A 4444  11.118  17.897   7.972 -0.0582 -0.1093 -0.2287
  278loPI   C1B 4445  10.067  17.944   9.236  0.0022  0.1969  0.5194
  278loPI   C2B 4446  10.386  17.772   8.998 -0.2282  0.0217 -0.1682
  278loPI   C3B 4447  10.781  17.537   8.942  0.1753  0.1402 -0.1970
  278loPI   C4B 4448  11.195  17.447   9.102 -0.1820 -0.2357 -0.1113
  279loPI    C1 4449  10.669  14.625  10.971 -0.0764 -0.0896 -0.2847
  279loPI    C2 4450  10.609  15.010  11.061 -0.0744 -0.1456 -0.0370
  279loPI    C3 4451  10.944  14.827  11.180 -0.2326 -0.3168  0.1525
  279loPI   PO4 4452  10.404  14.582  10.908 -0.2830  0.0339 -0.1988
  279loPI   GL1 4453  10.236  14.524  10.434  0.0640 -0.3711  0.0432
  279loPI   GL2 4454  10.153  14.210  10.386 -0.0584  0.1557  0.2167
  279loPI   C1A 4455  10.228  14.532  10.012  0.0949  0.0092 -0.0289
  279loPI   C2A 4456  10.285  14.454   9.642  0.0766  0.0834 -0.0706
  279loPI   C3A 4457  10.398  14.713   9.344  0.2374 -0.0283  0.1121
  279loPI   C4A 4458  10.536  14.466   8.874 -0.0005  0.0136 -0.3325
  279loPI   C5A 4459  10.461  14.424   8.461  0.1199 -0.3990 -0.2279
  279loPI   C6A 4460  10.516  14.502   7.974 -0.1503  0.0696 -0.1465
  279loPI   C1B 4461  10.618  14.296  10.114  0.0369 -0.0217 -0.1551
  279loPI   C2B 4462  10.746  14.540   9.698  0.3364  0.2364  0.1009
  279loPI   C3B 4463  10.864  14.514   9.215  0.0022  0.0991 -0.2757
  279loPI   C4B 4464  11.017  14.450   8.848  0.0525 -0.0378  0.1446
  280loPI    C1 4465   2.878   4.736  10.911  0.2449 -0.0969  0.0111
  280loPI    C2 4466   2.770   4.577  11.262  0.2044 -0.2432 -0.0666
  280loPI    C3 4467   2.862   4.966  11.238  0.1071 -0.2101  0.0851
  280loPI   PO4 4468   2.980   4.559  10.750 -0.3322  0.0418 -0.0153
  280loPI   GL1 4469   3.157   4.518  10.385 -0.1657  0.2664 -0.1395
  280loPI   GL2 4470   3.224   4.222  10.470  0.0229 -0.0566 -0.3109
  280loPI   C1A 4471   3.281   4.537   9.824  0.2952  0.1425  0.0677
  280loPI   C2A 4472   3.266   4.589   9.447 -0.2689  0.2991 -0.0569
  280loPI   C3A 4473   3.357   4.609   9.099 -0.6556 -0.0581  0.6237
  280loPI   C4A 4474   3.381   4.667   8.681 -0.2620  0.1082  0.2482
  280loPI   C5A 4475   3.390   4.705   8.238 -0.2073  0.1078 -0.4849
  280loPI   C6A 4476   3.346   4.572   7.779  0.1029 -0.0880 -0.2095
  280loPI   C1B 4477   3.105   4.120  10.093  0.0092 -0.0161 -0.1354
  280loPI   C2B 4478   3.011   4.051   9.738  0.0661  0.1836 -0.3170
  280loPI   C3B 4479   2.952   4.141   9.293  0.0729  0.3724 -0.1195
  280loPI   C4B 4480   3.046   4.203   8.882 -0.0310 -0.1233 -0.0634
  281loPI    C1 4481   8.443   9.219  11.058 -0.2392  0.1164 -0.0724
  281loPI    C2 4482   8.311   8.859  11.172 -0.1398  0.0625 -0.1255
  281loPI    C3 4483   8.074   9.180  11.207 -0.1559  0.0267  0.1134
  281loPI   PO4 4484   8.648   9.123  10.879  0.0317 -0.4782 -0.3243
  281loPI   GL1 4485   8.785   9.220  10.532 -0.1782  0.1990 -0.2705
  281loPI   GL2 4486   8.583   9.392  10.430 -0.0769 -0.0187 -0.2903
  281loPI   C1A 4487   8.983   9.014  10.188 -0.2724  0.2103 -0.0194
  281loPI   C2A 4488   9.026   9.123   9.722 -0.3300 -0.1465 -0.0092
  281loPI   C3A 4489   8.990   9.243   9.383 -0.1465  0.0935 -0.2974
  281loPI   C4A 4490   9.020   9.291   8.896  0.0061  0.1303  0.1043
  281loPI   C5A 4491   9.006   9.337   8.416 -0.2558 -0.1545 -0.0513
  281loPI   C6A 4492   8.810   9.500   8.166  0.1075  0.0684 -0.1867
  281loPI   C1B 4493   8.726   9.375  10.010  0.0202  0.0367 -0.1133
  281loPI   C2B 4494   8.576   9.348   9.614 -0.1542  0.1150 -0.0021
  281loPI   C3B 4495   8.494   9.437   9.228 -0.0821 -0.0061 -0.4322
  281loPI   C4B 4496   8.268   9.365   8.867 -0.1156 -0.1014  0.2151
  282loPI    C1 4497  13.022  16.813  10.504  0.0517 -0.0435 -0.1421
  282loPI    C2 4498  12.809  16.833  10.842  0.4575  0.0596  0.1147
  282loPI    C3 4499  12.894  16.477  10.680  0.2447  0.0107  0.1074
  282loPI   PO4 4500  13.038  17.037  10.374  0.2637  0.1877  0.0225
  282loPI   GL1 4501  13.260  17.265  10.058 -0.1466 -0.0689  0.2504
  282loPI   GL2 4502  13.575  17.316  10.092  0.2120  0.0277  0.0450
  282loPI   C1A 4503  13.267  17.186   9.533  0.0704 -0.1093 -0.0833
  282loPI   C2A 4504  13.398  17.048   9.193 -0.1388  0.0270  0.1714
  282loPI   C3A 4505  13.631  16.961   8.705  0.2380  0.3560 -0.0446
  282loPI   C4A 4506  13.569  16.904   8.304 -0.0179 -0.2465  0.1546
  282loPI   C5A 4507  13.812  16.711   7.919  0.2867  0.1195 -0.0215
  282loPI   C6A 4508  14.053  16.445   7.770  0.0282  0.2125 -0.4132
  282loPI   C1B 4509  13.671  17.146   9.771 -0.1540  0.1255  0.1547
  282loPI   C2B 4510  13.885  17.014   9.410 -0.2386 -0.2015 -0.1387
  282loPI   C3B 4511  13.977  16.836   9.111 -0.2016 -0.1037 -0.0363
  282loPI   C4B 4512  14.306  16.839   8.836  0.0683  0.2136  0.0302
  283loPI    C1 4513   9.191   9.156  11.044 -0.0163 -0.2830 -0.1506
  283loPI    C2 4514   9.576   9.054  11.080  0.0482  0.0888  0.3092
  283loPI    C3 4515   9.297   8.862  11.294 -0.0167 -0.1216  0.0415
  283loPI   PO4 4516   9.197   9.384  10.774 -0.0939  0.0237  0.2933
  283loPI   GL1 4517   9.371   9.232  10.394  0.0176 -0.1036 -0.2423
  283loPI   GL2 4518   9.603   9.168  10.619 -0.2652  0.0491 -0.0357
  283loPI   C1A 4519   9.266   9.456   9.966 -0.0613 -0.0358 -0.0742
  283loPI   C2A 4520   9.372   9.444   9.573  0.0280 -0.0203  0.0233
  283loPI   C3A 4521   9.463   9.371   9.138 -0.1193 -0.1543  0.0345
  283loPI   C4A 4522   9.468   9.390   8.691 -0.4348  0.1165 -0.2029
  283loPI   C5A 4523   9.833   9.338   8.457  0.0230 -0.0558  0.0922
  283loPI   C6A 4524  10.086   9.627   8.493  0.2068 -0.1348 -0.0419
  283loPI   C1B 4525   9.815   9.011  10.208 -0.1086 -0.3301  0.1556
  283loPI   C2B 4526  10.192   9.015  10.020  0.0189  0.1243  0.1241
  283loPI   C3B 4527  10.254   8.957   9.598  0.1173  0.4472 -0.0519
  283loPI   C4B 4528  10.302   9.040   9.241  0.1973 -0.2642  0.0137
  284loPI    C1 4529   8.992  16.959  10.203  0.0037  0.0697 -0.1397
  284loPI    C2 4530   8.823  17.297  10.334 -0.2692 -0.0967 -0.0543
  284loPI    C3 4531   8.877  16.990  10.585  0.2189 -0.0277 -0.0656
  284loPI   PO4 4532   8.840  16.904  10.024  0.2867  0.3858  0.0787
  284loPI   GL1 4533   8.914  16.679   9.691  0.1051  0.5215  0.0094
  284loPI   GL2 4534   8.694  16.847   9.567 -0.0153 -0.1468 -0.0381
  284loPI   C1A 4535   8.666  16.343   9.628 -0.0669  0.2113  0.3183
  284loPI   C2A 4536   8.644  16.350   9.172  0.1639 -0.1717  0.2111
  284loPI   C3A 4537   8.659  16.107   8.785 -0.0592  0.0947  0.3641
  284loPI   C4A 4538   8.759  15.886   8.419 -0.4117 -0.0524  0.0420
  284loPI   C5A 4539   9.114  15.928   8.257  0.1100  0.0642 -0.0906
  284loPI   C6A 4540   9.387  16.280   8.430  0.1256  0.2350  0.1194
  284loPI   C1B 4541   8.833  16.859   9.167  0.0285  0.0292 -0.1221
  284loPI   C2B 4542   8.593  16.864   8.827  0.1460  0.1505 -0.1812
  284loPI   C3B 4543   8.524  16.625   8.448  0.1769 -0.1178  0.0132
  284loPI   C4B 4544   8.198  16.599   8.066 -0.0876  0.1324  0.0065
  285loPI    C1 4545  15.596  11.482  10.884  0.1409 -0.1168  0.0561
  285loPI    C2 4546  15.798  11.746  11.107  0.1271 -0.0704  0.0141
  285loPI    C3 4547  15.753  11.369  11.234 -0.1109  0.0237  0.2177
  285loPI   PO4 4548  15.735  11.603  10.599  0.2387 -0.4531  0.1446
  285loPI   GL1 4549  15.498  11.780  10.352 -0.1460 -0.1143  0.2308
  285loPI   GL2 4550  15.242  11.653  10.240  0.0581 -0.1541  0.3461
  285loPI   C1A 4551  15.606  11.884   9.997 -0.2373  0.1301 -0.2045
  285loPI   C2A 4552  15.696  11.816   9.581 -0.1816 -0.1823  0.0105
  285loPI   C3A 4553  15.586  11.763   9.231  0.3885  0.3297  0.1714
  285loPI   C4A 4554  15.646  11.632   8.745  0.1711  0.0970 -0.1780
  285loPI   C5A 4555  15.705  11.647   8.284 -0.1799  0.0409  0.3044
  285loPI   C6A 4556  15.383  11.645   7.920 -0.0934 -0.2159  0.0111
  285loPI   C1B 4557  15.150  11.712   9.862 -0.0526 -0.0291 -0.2280
  285loPI   C2B 4558  15.175  11.826   9.501 -0.0838  0.0060  0.1876
  285loPI   C3B 4559  15.110  11.651   9.116  0.2438  0.1197 -0.1734
  285loPI   C4B 4560  15.126  11.553   8.747  0.2294  0.1207 -0.2674
  286loPI    C1 4561   2.592   0.089  10.508 -0.0198  0.1399 -0.2099
  286loPI    C2 4562   2.276  -0.099  10.667  0.3250 -0.2061  0.0881
  286loPI    C3 4563   2.394   0.254  10.813  0.0359 -0.0374 -0.0760
  286loPI   PO4 4564   2.567   0.120  10.188  0.0891  0.3460  0.0610
  286loPI   GL1 4565   2.363   0.208   9.827 -0.1450 -0.2055 -0.2722
  286loPI   GL2 4566   2.350   0.552   9.927 -0.1212  0.0310 -0.0315
  286loPI   C1A 4567   1.998   0.215   9.718  0.1334 -0.0751  0.0351
  286loPI   C2A 4568   1.899   0.222   9.375  0.4562  0.0450 -0.0330
  286loPI   C3A 4569   1.836   0.148   8.869 -0.0690  0.3142  0.1899
  286loPI   C4A 4570   2.018   0.181   8.371  0.2067 -0.1933 -0.1545
  286loPI   C5A 4571   1.651   0.279   8.013 -0.0164 -0.1904 -0.0048
  286loPI   C6A 4572   1.627   0.263   7.612  0.1573  0.4459  0.1570
  286loPI   C1B 4573   2.324   0.640   9.502  0.0695 -0.0529  0.0572
  286loPI   C2B 4574   2.298   0.614   9.003  0.3280  0.0015  0.0094
  286loPI   C3B 4575   2.144   0.650   8.633 -0.2485  0.1187 -0.0842
  286loPI   C4B 4576   1.920   0.644   8.236 -0.0411 -0.0055 -0.1811
  287loPI    C1 4577  14.336  13.150  10.994  0.0034  0.0682 -0.1933
  287loPI    C2 4578  14.563  13.337  11.264 -0.1746  0.1615 -0.1065
  287loPI    C3 4579  14.479  12.949  11.309 -0.0154  0.1212 -0.1508
  287loPI   PO4 4580  14.418  13.349  10.737  0.1592 -0.0367 -0.0826
  287loPI   GL1 4581  14.749  13.156  10.502  0.2661  0.1118  0.2060
  287loPI   GL2 4582  14.784  13.387  10.272  0.0386 -0.1031  0.0844
  287loPI   C1A 4583  14.588  12.896  10.175 -0.0946 -0.2527 -0.0398
  287loPI   C2A 4584  14.612  12.880   9.758  0.0165 -0.0046  0.0290
  287loPI   C3A 4585  14.592  12.812   9.295 -0.0518 -0.0119  0.0326
  287loPI   C4A 4586  14.562  12.853   8.836  0.0583 -0.0295 -0.2317
  287loPI   C5A 4587  14.434  12.820   8.425  0.1830 -0.1340  0.3333
  287loPI   C6A 4588  14.118  13.078   8.172 -0.0874 -0.2165 -0.3262
  287loPI   C1B 4589  14.728  13.375   9.829  0.2515 -0.0347  0.2297
  287loPI   C2B 4590  14.753  13.297   9.441 -0.0570 -0.0111  0.1388
  287loPI   C3B 4591  14.693  13.286   9.000 -0.2827 -0.4838 -0.0385
  287loPI   C4B 4592  14.728  13.261   8.541  0.0889  0.1233  0.1179
  288loPI    C1 4593   0.990  15.783  10.928  0.0861 -0.0301 -0.0074
  288loPI    C2 4594   1.084  16.172  10.922 -0.0351 -0.0022 -0.1993
  288loPI    C3 4595   0.820  16.034  11.189 -0.0673  0.0652 -0.1959
  288loPI   PO4 4596   0.943  15.647  10.655 -0.0448  0.1477 -0.3582
  288loPI   GL1 4597   0.825  15.773  10.305  0.1108  0.3026  0.0375
  288loPI   GL2 4598   0.516  15.729  10.353 -0.2729 -0.2738 -0.1974
  288loPI   C1A 4599   0.463  16.154  10.127  0.2009  0.3537 -0.2675
  288loPI   C2A 4600   0.522  16.166   9.738  0.1152 -0.1352 -0.0391
  288loPI   C3A 4601   0.546  16.022   9.354 -0.2057  0.4559 -0.2496
  288loPI   C4A 4602   0.662  16.058   8.843 -0.1139  0.0988 -0.0871
  288loPI   C5A 4603   0.766  16.157   8.360  0.0311 -0.0266 -0.0317
  288loPI   C6A 4604   0.699  16.108   7.882  0.1216  0.0022 -0.1120
  288loPI   C1B 4605   0.456  15.694   9.924 -0.0085 -0.1504 -0.0164
  288loPI   C2B 4606   0.588  15.594   9.605 -0.3492 -0.0792 -0.0922
  288loPI   C3B 4607   0.615  15.484   9.202 -0.0606 -0.3021  0.0326
  288loPI   C4B 4608   0.556  15.527   8.799  0.3528  0.0398 -0.1687
  289loPI    C1 4609  11.450   3.298  11.095 -0.3289  0.1743  0.0004
  289loPI    C2 4610  11.247   3.358  11.435 -0.1495  0.0408  0.1333
  289loPI    C3 4611  11.221   3.006  11.245 -0.1930  0.0903  0.0466
  289loPI   PO4 4612  11.351   3.477  10.936  0.1523  0.0697  0.2354
  289loPI   GL1 4613  11.283   3.499  10.539 -0.1089 -0.0707  0.3722
  289loPI   GL2 4614  11.432   3.253  10.411 -0.1736 -0.6147  0.0498
  289loPI   C1A 4615  11.598   3.739  10.279 -0.1952  0.2255  0.3691
  289loPI   C2A 4616  11.658   3.884   9.805  0.1010  0.1669 -0.0845
  289loPI   C3A 4617  11.521   3.970   9.459  0.2252 -0.0047  0.0325
  289loPI   C4A 4618  11.506   4.009   9.041  0.0994 -0.0722  0.2058
  289loPI   C5A 4619  11.448   3.982   8.617  0.1521  0.2084 -0.0175
  289loPI   C6A 4620  11.275   4.253   8.393  0.2919  0.0910 -0.0867
  289loPI   C1B 4621  11.360   3.463   9.969  0.2825  0.2030 -0.0435
  289loPI   C2B 4622  11.280   3.498   9.583 -0.0222  0.2320  0.1245
  289loPI   C3B 4623  11.473   3.456   9.129 -0.2434  0.1391  0.1927
  289loPI   C4B 4624  11.525   3.477   8.699  0.2370  0.5735  0.2852
  290loPI    C1 4625   7.507   4.877  10.934  0.1576  0.0382  0.0682
  290loPI    C2 4626   7.719   4.567  10.795  0.0481 -0.0365  0.0669
  290loPI    C3 4627   7.662   4.611  11.188  0.1598  0.0454  0.0745
  290loPI   PO4 4628   7.568   5.079  10.807 -0.0009  0.1508  0.0442
  290loPI   GL1 4629   7.622   5.285  10.463  0.2038 -0.3767  0.4061
  290loPI   GL2 4630   7.370   5.464  10.612  0.1819 -0.3654  0.0095
  290loPI   C1A 4631   7.518   5.271  10.104 -0.2808 -0.0780 -0.2019
  290loPI   C2A 4632   7.592   5.186   9.681  0.0617 -0.0608 -0.2211
  290loPI   C3A 4633   7.642   5.282   9.193  0.1772 -0.2009  0.2858
  290loPI   C4A 4634   7.589   5.249   8.731 -0.4964 -0.1221 -0.0188
  290loPI   C5A 4635   7.490   5.156   8.294  0.1653 -0.0132  0.2031
  290loPI   C6A 4636   7.205   5.106   7.885  0.1926 -0.1846  0.1782
  290loPI   C1B 4637   7.076   5.396  10.249  0.2040 -0.0871 -0.2095
  290loPI   C2B 4638   7.059   5.247   9.852 -0.0329 -0.0157  0.1838
  290loPI   C3B 4639   7.162   5.278   9.408  0.0235 -0.0152  0.0809
  290loPI   C4B 4640   7.238   5.517   9.042 -0.0169 -0.0893 -0.1725
  291loPI    C1 4641  13.316   1.152  10.880 -0.0480 -0.1645  0.0928
  291loPI    C2 4642  12.938   1.264  10.949 -0.0196  0.0042 -0.0199
  291loPI    C3 4643  13.230   1.538  10.942  0.0949 -0.1165 -0.0022
  291loPI   PO4 4644  13.211   0.916  10.645 -0.0974 -0.0429 -0.0188
  291loPI   GL1 4645  12.977   0.849  10.290 -0.1460  0.0717 -0.0537
  291loPI   GL2 4646  13.163   0.551  10.191 -0.0159  0.4510  0.2216
  291loPI   C1A 4647  13.135   0.956   9.968 -0.1893 -0.2472 -0.0577
  291loPI   C2A 4648  13.304   0.947   9.549  0.0459 -0.0616  0.1218
  291loPI   C3A 4649  13.445   1.009   9.095  0.1836 -0.1962  0.0991
  291loPI   C4A 4650  13.509   0.907   8.772 -0.0120 -0.0329  0.0117
  291loPI   C5A 4651  13.365   0.680   8.417 -0.4251  0.0591  0.0716
  291loPI   C6A 4652  13.313   0.782   7.968 -0.0343  0.0374 -0.2997
  291loPI   C1B 4653  13.217   0.436   9.727  0.1214 -0.2881  0.0891
  291loPI   C2B 4654  13.155   0.598   9.268  0.2931 -0.1196 -0.1657
  291loPI   C3B 4655  12.941   0.538   8.785  0.1068 -0.2484  0.0522
  291loPI   C4B 4656  12.601   0.481   8.462  0.2675  0.2119 -0.0280
  292loPI    C1 4657   0.397  12.063  10.901  0.0888  0.3317  0.0362
  292loPI    C2 4658   0.244  12.144  11.262 -0.1093  0.2593 -0.0301
  292loPI    C3 4659   0.551  12.359  11.122  0.0817  0.1765  0.2520
  292loPI   PO4 4660   0.239  12.015  10.722 -0.0894  0.1575 -0.1262
  292loPI   GL1 4661   0.139  12.148  10.409  0.0965 -0.0905  0.1652
  292loPI   GL2 4662   0.262  12.215  10.155  0.0328 -0.0378  0.0301
  292loPI   C1A 4663  -0.195  12.061  10.153  0.1651  0.0827  0.0400
  292loPI   C2A 4664  -0.512  12.031   9.778  0.2293  0.0270 -0.1553
  292loPI   C3A 4665  -0.847  11.996   9.433 -0.1747  0.0940  0.2079
  292loPI   C4A 4666  -0.948  12.089   9.006 -0.0681 -0.1785 -0.1826
  292loPI   C5A 4667  -0.989  12.035   8.535  0.1774  0.0203 -0.0221
  292loPI   C6A 4668  -1.154  11.780   8.227  0.1898  0.0947 -0.2614
  292loPI   C1B 4669   0.267  12.037   9.768  0.1698 -0.0235 -0.0162
  292loPI   C2B 4670   0.248  11.915   9.401  0.2684 -0.0260 -0.1390
  292loPI   C3B 4671   0.389  11.854   9.030  0.0533 -0.0853 -0.0435
  292loPI   C4B 4672   0.344  11.870   8.601 -0.3521  0.1300 -0.0885
  293loPI    C1 4673  12.568   5.587  11.101 -0.1300  0.2407 -0.0205
  293loPI    C2 4674  12.754   5.461  11.432  0.1567 -0.0340 -0.2795
  293loPI    C3 4675  12.446   5.253  11.285 -0.2036  0.2816  0.0057
  293loPI   PO4 4676  12.719   5.683  10.898  0.2063 -0.1820  0.0256
  293loPI   GL1 4677  12.595   5.898  10.523  0.1416  0.2539  0.0168
  293loPI   GL2 4678  12.847   6.060  10.466 -0.0017  0.1748 -0.2204
  293loPI   C1A 4679  12.445   5.951  10.162 -0.0606  0.1870 -0.1673
  293loPI   C2A 4680  12.467   6.077   9.879  0.1076  0.0305 -0.1431
  293loPI   C3A 4681  12.554   6.141   9.511 -0.0783 -0.2115  0.0803
  293loPI   C4A 4682  12.745   6.134   9.028 -0.1883  0.0821 -0.1286
  293loPI   C5A 4683  12.968   5.961   8.568  0.1821  0.1095 -0.1123
  293loPI   C6A 4684  13.282   5.677   8.421  0.0547  0.0049  0.0969
  293loPI   C1B 4685  12.958   6.227  10.109  0.0708  0.1058  0.2569
  293loPI   C2B 4686  13.078   6.255   9.703 -0.0382 -0.0426  0.1172
  293loPI   C3B 4687  13.188   6.216   9.265  0.0767  0.0049  0.2716
  293loPI   C4B 4688  13.237   6.312   8.841 -0.0106 -0.0687 -0.0193
  294loPI    C1 4689   8.804  10.208  11.218  0.0876  0.2196 -0.1484
  294loPI    C2 4690   9.159  10.367  11.312  0.1441 -0.0834  0.1680
  294loPI    C3 4691   8.832  10.597  11.306  0.3222  0.1696  0.0075
  294loPI   PO4 4692   8.817  10.103  11.065 -0.2013  0.4656  0.3412
  294loPI   GL1 4693   8.746  10.207  10.682 -0.1984  0.2209 -0.1955
  294loPI   GL2 4694   8.643  10.007  10.397  0.1464  0.0045 -0.0307
  294loPI   C1A 4695   9.129  10.189  10.426  0.1831  0.0004  0.1129
  294loPI   C2A 4696   9.147  10.082   9.937  0.0169 -0.0990 -0.0001
  294loPI   C3A 4697   9.210  10.077   9.452 -0.1555 -0.2325  0.0677
  294loPI   C4A 4698   9.388  10.154   9.049  0.3502 -0.4006  0.1787
  294loPI   C5A 4699   9.528  10.196   8.653  0.3077  0.1867  0.0767
  294loPI   C6A 4700   9.366  10.167   8.119  0.0512  0.0276  0.0697
  294loPI   C1B 4701   8.687   9.870   9.967  0.0589  0.0262  0.1338
  294loPI   C2B 4702   8.927   9.725   9.617  0.1001  0.1447 -0.0058
  294loPI   C3B 4703   8.889   9.715   9.175  0.2147 -0.0044 -0.1512
  294loPI   C4B 4704   9.108   9.755   8.804  0.1801  0.0125 -0.2765
  295loPI    C1 4705   5.503   0.307  10.767 -0.0302 -0.0483 -0.1326
  295loPI    C2 4706   5.471   0.004  11.026 -0.1090  0.1876  0.1394
  295loPI    C3 4707   5.830   0.106  10.880 -0.1068 -0.1634 -0.1144
  295loPI   PO4 4708   5.244   0.309  10.703 -0.1467  0.0233  0.0333
  295loPI   GL1 4709   5.056   0.425  10.286 -0.0134  0.0036  0.0632
  295loPI   GL2 4710   5.355   0.206  10.229  0.2195 -0.0971  0.0711
  295loPI   C1A 4711   4.973   0.272   9.945 -0.3388  0.2328  0.0819
  295loPI   C2A 4712   5.028   0.247   9.395  0.1315 -0.1042 -0.0167
  295loPI   C3A 4713   5.160   0.417   9.037  0.2142  0.1010  0.1283
  295loPI   C4A 4714   5.286   0.398   8.614  0.0208 -0.1601  0.0187
  295loPI   C5A 4715   5.345   0.264   8.183 -0.2301  0.1665 -0.1941
  295loPI   C6A 4716   5.381   0.060   7.826  0.1528  0.3957  0.1000
  295loPI   C1B 4717   5.565   0.130   9.751 -0.0182 -0.1335 -0.1581
  295loPI   C2B 4718   5.561   0.207   9.345  0.3085 -0.0454 -0.0081
  295loPI   C3B 4719   5.627   0.223   8.890 -0.1451 -0.1023  0.2558
  295loPI   C4B 4720   5.692   0.076   8.462  0.2292  0.0395 -0.2405
  296loPI    C1 4721   3.201   7.371  10.873 -0.2562  0.1569 -0.1242
  296loPI    C2 4722   2.906   7.118  10.966 -0.0569 -0.0293  0.0122
  296loPI    C3 4723   3.057   7.360  11.246  0.1066 -0.1313  0.0131
  296loPI   PO4 4724   3.125   7.452  10.659 -0.2626  0.0465 -0.0193
  296loPI   GL1 4725   3.103   7.245  10.338  0.2036  0.0380 -0.2715
  296loPI   GL2 4726   3.262   7.017  10.349 -0.3504  0.2261  0.0486
  296loPI   C1A 4727   3.128   7.327   9.931  0.1775  0.2781 -0.0655
  296loPI   C2A 4728   3.117   7.343   9.513  0.2334  0.2604  0.1422
  296loPI   C3A 4729   3.079   7.299   9.161 -0.1692 -0.0355  0.0119
  296loPI   C4A 4730   3.104   7.245   8.662 -0.3622 -0.1519  0.0901
  296loPI   C5A 4731   2.844   7.290   8.395 -0.0978  0.0666 -0.1994
  296loPI   C6A 4732   2.464   7.481   8.230  0.2509 -0.1597 -0.2414
  296loPI   C1B 4733   3.276   6.858   9.949 -0.3826  0.1650 -0.1322
  296loPI   C2B 4734   3.283   6.847   9.469 -0.0342  0.4447  0.0863
  296loPI   C3B 4735   3.230   6.847   9.013  0.0652  0.1128  0.1207
  296loPI   C4B 4736   3.270   6.798   8.556  0.5306  0.0420 -0.0698
  297loPI    C1 4737   8.752  13.735  10.660  0.1514  0.2769  0.0051
  297loPI    C2 4738   8.678  13.399  10.865 -0.1269  0.3096 -0.0381
  297loPI    C3 4739   8.893  13.692  11.032  0.1622  0.0907 -0.0195
  297loPI   PO4 4740   8.659  13.635  10.431  0.0886  0.2591  0.1115
  297loPI   GL1 4741   8.760  13.768  10.083 -0.0454  0.0387 -0.1127
  297loPI   GL2 4742   8.509  14.039  10.067 -0.2372 -0.1313  0.0232
  297loPI   C1A 4743   8.781  13.738   9.631  0.1938  0.0336  0.2025
  297loPI   C2A 4744   8.650  13.752   9.227  0.0491 -0.0248  0.2167
  297loPI   C3A 4745   8.658  13.828   8.857  0.1480 -0.0488  0.0920
  297loPI   C4A 4746   8.697  13.606   8.444 -0.0845  0.2177 -0.1780
  297loPI   C5A 4747   8.561  13.431   8.066  0.0898 -0.0517  0.1597
  297loPI   C6A 4748   8.178  13.328   7.791 -0.0520  0.4196  0.2020
  297loPI   C1B 4749   8.363  14.021   9.636  0.4825 -0.0161  0.1844
  297loPI   C2B 4750   8.334  14.156   9.164 -0.0441 -0.1440  0.3138
  297loPI   C3B 4751   8.400  14.265   8.769  0.2073  0.0614  0.1960
  297loPI   C4B 4752   8.304  14.092   8.412  0.1237 -0.3475 -0.0692
  298loPI    C1 4753   5.843   4.863  10.897 -0.1670  0.0452 -0.1336
  298loPI    C2 4754   6.161   4.728  11.099 -0.1166  0.0078 -0.2376
  298loPI    C3 4755   5.995   5.079  11.198 -0.0175  0.0473 -0.2098
  298loPI   PO4 4756   5.877   4.692  10.670  0.2696 -0.1783  0.0105
  298loPI   GL1 4757   5.597   4.726  10.278  0.0721  0.1755  0.2879
  298loPI   GL2 4758   5.424   4.557  10.182  0.0712 -0.0585 -0.1061
  298loPI   C1A 4759   5.696   4.886   9.891  0.0449 -0.0710 -0.2130
  298loPI   C2A 4760   5.665   4.849   9.467  0.0726 -0.3420 -0.5915
  298loPI   C3A 4761   5.778   4.745   8.979  0.0368 -0.0351 -0.3406
  298loPI   C4A 4762   5.669   4.525   8.633  0.2528 -0.1366 -0.2829
  298loPI   C5A 4763   5.452   4.538   8.214 -0.0847  0.3781  0.3177
  298loPI   C6A 4764   5.438   4.502   7.757  0.0687  0.2558 -0.0563
  298loPI   C1B 4765   5.475   4.488   9.796  0.2117  0.0509  0.1618
  298loPI   C2B 4766   5.364   4.504   9.397  0.2728  0.0131 -0.0721
  298loPI   C3B 4767   5.327   4.333   8.999  0.2221  0.0012  0.2118
  298loPI   C4B 4768   5.223   4.129   8.542 -0.0809  0.1609 -0.2482
  299loPI    C1 4769  16.258   6.041  10.996 -0.4752 -0.0079 -0.1081
  299loPI    C2 4770  16.092   6.332  11.214 -0.1044  0.0308  0.1320
  299loPI    C3 4771  15.989   5.951  11.278 -0.2892  0.0740  0.0983
  299loPI   PO4 4772  16.181   6.119  10.682  0.0260 -0.1689  0.3653
  299loPI   GL1 4773  16.104   5.875  10.310 -0.0829  0.1216  0.2669
  299loPI   GL2 4774  15.853   6.069  10.309  0.0970 -0.1750 -0.1434
  299loPI   C1A 4775  16.069   5.685   9.915 -0.0123  0.2886  0.2158
  299loPI   C2A 4776  15.939   5.429   9.542  0.0638 -0.2557 -0.3233
  299loPI   C3A 4777  15.811   5.299   9.141  0.1857 -0.2153  0.1580
  299loPI   C4A 4778  15.692   5.045   8.634 -0.0392  0.0246 -0.0331
  299loPI   C5A 4779  15.692   4.853   8.270  0.1630 -0.0104  0.1282
  299loPI   C6A 4780  15.558   4.633   8.045 -0.0954  0.3683  0.0863
  299loPI   C1B 4781  15.703   6.090   9.921 -0.0090  0.0877 -0.2718
  299loPI   C2B 4782  15.555   6.223   9.488  0.3688 -0.0070 -0.2006
  299loPI   C3B 4783  15.726   6.549   9.211 -0.0601  0.2808 -0.0302
  299loPI   C4B 4784  16.014   6.599   8.873 -0.1973 -0.2981 -0.1326
  300loPI    C1 4785   7.418  13.439  11.031 -0.1103  0.0328 -0.0018
  300loPI    C2 4786   7.254  13.708  10.785  0.0558  0.1252 -0.0131
  300loPI    C3 4787   7.302  13.795  11.172 -0.1339  0.0094  0.0379
  300loPI   PO4 4788   7.630  13.385  10.920  0.2331  0.1102  0.1256
  300loPI   GL1 4789   7.639  13.558  10.482  0.0392 -0.0130  0.0826
  300loPI   GL2 4790   7.754  13.256  10.346  0.0085  0.1902  0.0185
  300loPI   C1A 4791   7.507  13.718  10.073  0.2348 -0.1133 -0.1134
  300loPI   C2A 4792   7.267  13.854   9.705 -0.0851  0.2269  0.1170
  300loPI   C3A 4793   7.312  13.911   9.274 -0.0738  0.0973  0.0003
  300loPI   C4A 4794   7.428  14.006   8.755  0.2307 -0.2025 -0.0025
  300loPI   C5A 4795   7.510  13.758   8.324 -0.1503 -0.2498  0.0129
  300loPI   C6A 4796   7.664  13.710   7.857  0.2350 -0.0280 -0.0047
  300loPI   C1B 4797   7.794  13.329   9.837  0.0698 -0.0915 -0.0726
  300loPI   C2B 4798   7.579  13.578   9.450  0.0840 -0.0228  0.0622
  300loPI   C3B 4799   7.696  13.592   8.976  0.0430  0.3025 -0.1040
  300loPI   C4B 4800   7.519  13.390   8.658  0.3234  0.1233 -0.0850
  301loPI    C1 4801  11.950   5.265  11.158 -0.0839  0.0072  0.2901
  301loPI    C2 4802  11.651   5.029  11.281 -0.0636 -0.0156  0.2957
  301loPI    C3 4803  11.586   5.419  11.221 -0.1513 -0.0619  0.0799
  301loPI   PO4 4804  12.058   5.163  10.934 -0.0309  0.3316 -0.1583
  301loPI   GL1 4805  12.358   5.280  10.659 -0.2247 -0.1893 -0.0236
  301loPI   GL2 4806  12.722   5.212  10.774 -0.0578  0.3062 -0.0435
  301loPI   C1A 4807  12.503   5.401  10.231 -0.0840 -0.0384 -0.2080
  301loPI   C2A 4808  12.453   5.492   9.886  0.0366 -0.1757 -0.0351
  301loPI   C3A 4809  12.392   5.653   9.572  0.2052 -0.5525  0.0798
  301loPI   C4A 4810  12.542   5.616   9.120  0.2485 -0.0577 -0.1848
  301loPI   C5A 4811  12.521   5.724   8.714  0.0166 -0.1534  0.2118
  301loPI   C6A 4812  12.539   5.472   8.288  0.1159  0.1108  0.0506
  301loPI   C1B 4813  12.889   5.119  10.381  0.1666 -0.1385 -0.0691
  301loPI   C2B 4814  12.855   5.193   9.919 -0.2532  0.2417  0.1922
  301loPI   C3B 4815  12.761   5.320   9.516  0.0300 -0.2337 -0.1414
  301loPI   C4B 4816  12.749   5.110   9.114 -0.0729 -0.2355  0.2562
  302loPI    C1 4817   5.694   2.823  10.496 -0.1179  0.1365 -0.1632
  302loPI    C2 4818   5.694   2.991  10.859 -0.0506 -0.1201 -0.0421
  302loPI    C3 4819   5.507   2.642  10.800  0.2152 -0.2427 -0.1755
  302loPI   PO4 4820   5.672   3.001  10.375  0.2530 -0.0395 -0.0048
  302loPI   GL1 4821   5.711   3.349  10.184 -0.2495  0.0511 -0.0428
  302loPI   GL2 4822   5.912   3.488  10.087  0.0197  0.2780 -0.2095
  302loPI   C1A 4823   5.554   3.202   9.811 -0.1106 -0.2334  0.1017
  302loPI   C2A 4824   5.516   3.002   9.365 -0.1011  0.1120 -0.1440
  302loPI   C3A 4825   5.517   2.869   8.901 -0.0644 -0.0717  0.0709
  302loPI   C4A 4826   5.421   2.584   8.629  0.0044 -0.1712  0.0731
  302loPI   C5A 4827   5.442   2.351   8.238  0.1084 -0.0965 -0.2675
  302loPI   C6A 4828   5.571   2.307   7.774 -0.0462 -0.2942  0.3137
  302loPI   C1B 4829   5.843   3.584   9.665  0.3453  0.0207 -0.1895
  302loPI   C2B 4830   5.786   3.414   9.270  0.2237  0.1860 -0.2391
  302loPI   C3B 4831   5.732   3.323   8.939 -0.0116 -0.0144 -0.0648
  302loPI   C4B 4832   5.664   3.171   8.536  0.2019  0.2149 -0.3382
  303loPI    C1 4833   7.585   9.344  11.098  0.0748 -0.1993  0.0992
  303loPI    C2 4834   7.438   9.715  11.071 -0.1488 -0.2973 -0.0651
  303loPI    C3 4835   7.280   9.456  11.331 -0.0898 -0.3231 -0.0548
  303loPI   PO4 4836   7.766   9.328  10.838  0.1583  0.0964  0.1305
  303loPI   GL1 4837   7.730   9.508  10.423  0.3434  0.0105  0.0927
  303loPI   GL2 4838   7.954   9.330  10.347 -0.3137 -0.1689  0.0331
  303loPI   C1A 4839   7.340   9.561  10.112 -0.1683 -0.0552 -0.1818
  303loPI   C2A 4840   7.280   9.526   9.779 -0.1146  0.0005  0.0176
  303loPI   C3A 4841   7.497   9.632   9.410 -0.0749  0.1871 -0.2666
  303loPI   C4A 4842   7.570   9.717   8.979 -0.1615  0.0144  0.0454
  303loPI   C5A 4843   7.661   9.774   8.563  0.0149 -0.1143  0.3765
  303loPI   C6A 4844   7.986   9.940   8.299 -0.2133  0.3287  0.0252
  303loPI   C1B 4845   7.803   9.199   9.951  0.0317 -0.0681  0.0831
  303loPI   C2B 4846   7.659   9.186   9.515 -0.0161  0.3397  0.0593
  303loPI   C3B 4847   7.844   9.256   9.106  0.0262 -0.1505 -0.1196
  303loPI   C4B 4848   7.908   9.237   8.555 -0.2543 -0.1003 -0.0746
  304loPI    C1 4849   3.235   9.074  11.087  0.1006  0.2341  0.0468
  304loPI    C2 4850   3.364   8.973  11.452 -0.2192  0.1242  0.1323
  304loPI    C3 4851   2.976   9.048  11.390 -0.1142  0.4921 -0.1108
  304loPI   PO4 4852   3.419   8.998  10.935  0.2775 -0.3567 -0.1277
  304loPI   GL1 4853   3.507   9.117  10.607 -0.0492 -0.1481  0.0459
  304loPI   GL2 4854   3.447   9.481  10.383  0.0816  0.1110  0.0652
  304loPI   C1A 4855   3.625   9.061  10.158 -0.0726  0.1019 -0.0368
  304loPI   C2A 4856   3.639   9.071   9.758  0.1023  0.0902  0.2667
  304loPI   C3A 4857   3.755   9.118   9.300 -0.0409  0.0092  0.1304
  304loPI   C4A 4858   3.502   9.116   8.980  0.1035  0.1245 -0.1664
  304loPI   C5A 4859   3.282   9.091   8.588  0.0869  0.1785  0.2814
  304loPI   C6A 4860   3.051   9.285   8.209 -0.0850  0.2247  0.0224
  304loPI   C1B 4861   3.455   9.589   9.895 -0.2635  0.2000  0.0222
  304loPI   C2B 4862   3.401   9.570   9.466 -0.1473 -0.0816 -0.1632
  304loPI   C3B 4863   3.300   9.658   9.040 -0.1666  0.0867  0.0894
  304loPI   C4B 4864   3.193   9.585   8.687 -0.0560  0.0775  0.2117
  305loPI    C1 4865  12.183  12.434  11.105  0.0690 -0.0290 -0.1908
  305loPI    C2 4866  12.260  12.801  11.244  0.1002 -0.1334  0.0731
  305loPI    C3 4867  12.481  12.491  11.365 -0.0807 -0.2773  0.0401
  305loPI   PO4 4868  12.156  12.464  10.861  0.0291 -0.1614  0.1250
  305loPI   GL1 4869  12.006  12.474  10.450  0.0554  0.0459 -0.1639
  305loPI   GL2 4870  11.911  12.774  10.421 -0.0046  0.3348 -0.1167
  305loPI   C1A 4871  12.112  12.452  10.026  0.0991 -0.0214  0.1400
  305loPI   C2A 4872  12.028  12.437   9.520 -0.0267  0.2751  0.1214
  305loPI   C3A 4873  12.117  12.392   9.113  0.0887 -0.0669  0.2851
  305loPI   C4A 4874  12.059  12.458   8.699  0.1352  0.1177  0.3125
  305loPI   C5A 4875  12.185  12.308   8.341  0.2348  0.2413 -0.1063
  305loPI   C6A 4876  12.277  12.025   8.033 -0.2029 -0.1444  0.2582
  305loPI   C1B 4877  11.764  12.822   9.967 -0.1207 -0.0843 -0.3623
  305loPI   C2B 4878  11.661  12.818   9.502  0.0529 -0.1795  0.2582
  305loPI   C3B 4879  11.788  12.757   9.041  0.1729 -0.2487  0.1468
  305loPI   C4B 4880  11.752  12.898   8.698 -0.0228 -0.0733  0.2537
  306loPI    C1 4881   8.290   6.828  10.800  0.0417  0.0581  0.0971
  306loPI    C2 4882   8.558   6.721  11.078 -0.1387 -0.1131  0.2085
  306loPI    C3 4883   8.179   6.797  11.184 -0.1218  0.1925  0.0621
  306loPI   PO4 4884   8.414   6.711  10.572  0.0571 -0.1873 -0.1824
  306loPI   GL1 4885   8.533   6.588  10.246 -0.3237  0.0169  0.0644
  306loPI   GL2 4886   8.275   6.469  10.085 -0.0425 -0.0131 -0.0017
  306loPI   C1A 4887   8.634   6.790   9.905 -0.1400 -0.1524  0.1390
  306loPI   C2A 4888   8.630   7.197   9.841 -0.1359  0.2096 -0.0163
  306loPI   C3A 4889   8.641   7.339   9.397 -0.0210 -0.2230 -0.6464
  306loPI   C4A 4890   8.515   7.447   9.081  0.0152  0.1324 -0.0266
  306loPI   C5A 4891   8.598   7.458   8.555 -0.0514  0.1188 -0.0388
  306loPI   C6A 4892   8.623   7.685   8.234  0.3846 -0.2294 -0.0295
  306loPI   C1B 4893   8.262   6.455   9.676  0.2057 -0.0392 -0.0536
  306loPI   C2B 4894   8.291   6.634   9.276  0.0528  0.1258 -0.0854
  306loPI   C3B 4895   8.251   6.590   8.776 -0.3183 -0.0818 -0.2120
  306loPI   C4B 4896   8.255   6.538   8.437 -0.0329  0.1083 -0.3350
  307loPI    C1 4897   1.634   0.852  10.408  0.0419 -0.1415  0.1189
  307loPI    C2 4898   1.411   1.065  10.664 -0.1299  0.0224 -0.1616
  307loPI    C3 4899   1.239   0.789  10.431  0.0020 -0.0278 -0.2005
  307loPI   PO4 4900   1.797   1.124  10.318 -0.1394 -0.2711  0.0998
  307loPI   GL1 4901   1.804   1.238   9.921 -0.2176  0.6082  0.3005
  307loPI   GL2 4902   2.089   1.058   9.760 -0.0900 -0.1327  0.2088
  307loPI   C1A 4903   1.502   1.150   9.649  0.2811 -0.0490  0.0056
  307loPI   C2A 4904   1.535   0.995   9.202 -0.0712  0.0206  0.1097
  307loPI   C3A 4905   1.479   1.161   8.841  0.2274  0.3163 -0.2370
  307loPI   C4A 4906   1.410   1.397   8.505  0.0245 -0.0138  0.1205
  307loPI   C5A 4907   1.272   1.683   8.276 -0.0027 -0.0130 -0.0779
  307loPI   C6A 4908   1.386   2.054   8.416  0.2651  0.1520  0.0200
  307loPI   C1B 4909   2.087   1.042   9.333  0.4110 -0.2984  0.0769
  307loPI   C2B 4910   2.065   1.119   8.871  0.0722 -0.3885  0.0037
  307loPI   C3B 4911   1.825   1.077   8.509 -0.1562 -0.3417  0.0429
  307loPI   C4B 4912   1.687   1.177   8.151 -0.1678 -0.2974  0.3056
  308loPI    C1 4913  15.706   6.603  11.008 -0.0607 -0.2111 -0.3153
  308loPI    C2 4914  15.737   6.223  10.888  0.0272 -0.3298  0.0668
  308loPI    C3 4915  15.623   6.306  11.262  0.1867  0.0167  0.0430
  308loPI   PO4 4916  15.498   6.675  10.843  0.0225 -0.0759 -0.0840
  308loPI   GL1 4917  15.399   6.720  10.398  0.0658  0.1184  0.0384
  308loPI   GL2 4918  15.476   6.411  10.455  0.0177  0.1685  0.4766
  308loPI   C1A 4919  15.238   6.939  10.030  0.3003  0.1336 -0.1329
  308loPI   C2A 4920  14.945   7.007   9.669  0.1186 -0.1309  0.0850
  308loPI   C3A 4921  14.883   6.970   9.222  0.1921 -0.2628  0.0894
  308loPI   C4A 4922  14.864   6.826   8.785 -0.0418  0.2958 -0.0554
  308loPI   C5A 4923  14.771   7.061   8.401  0.0662  0.3864  0.3306
  308loPI   C6A 4924  14.519   7.434   8.233  0.1943 -0.0706 -0.3047
  308loPI   C1B 4925  15.274   6.448  10.016 -0.0720 -0.1573  0.2409
  308loPI   C2B 4926  15.195   6.558   9.520  0.1063 -0.0126 -0.0645
  308loPI   C3B 4927  15.249   6.652   9.089  0.0921  0.0200 -0.0134
  308loPI   C4B 4928  15.504   6.572   8.734  0.0533 -0.1323  0.0978
  309loPI    C1 4929  13.904  14.052  10.908  0.0043  0.0099  0.0073
  309loPI    C2 4930  13.613  14.327  10.917  0.1514  0.1648  0.0709
  309loPI    C3 4931  13.849  14.274  11.237  0.0123 -0.1582  0.1236
  309loPI   PO4 4932  14.070  14.104  10.639 -0.0786  0.0732 -0.0122
  309loPI   GL1 4933  13.984  14.080  10.239 -0.1470 -0.0419 -0.0847
  309loPI   GL2 4934  14.014  14.293  10.008 -0.0614  0.2185 -0.1689
  309loPI   C1A 4935  13.980  13.712   9.897  0.0488  0.1368  0.2061
  309loPI   C2A 4936  13.836  13.650   9.487 -0.2000  0.0871  0.2252
  309loPI   C3A 4937  13.931  13.613   9.078  0.0637  0.1341 -0.2148
  309loPI   C4A 4938  13.898  13.610   8.680  0.0609  0.1740 -0.0197
  309loPI   C5A 4939  13.931  13.502   8.328 -0.1231  0.4934  0.1813
  309loPI   C6A 4940  13.958  13.699   7.904  0.1868  0.1115 -0.0493
  309loPI   C1B 4941  14.180  14.147   9.674  0.0514 -0.1075 -0.2161
  309loPI   C2B 4942  14.112  14.068   9.311 -0.0492  0.0848  0.3449
  309loPI   C3B 4943  14.206  14.113   8.833  0.1057 -0.1905 -0.1508
  309loPI   C4B 4944  14.056  14.018   8.339  0.0297  0.0021  0.0856
  310loPI    C1 4945   4.992  12.177  11.270  0.0892  0.2240 -0.0951
  310loPI    C2 4946   4.738  12.369  11.512  0.0479 -0.0083  0.0487
  310loPI    C3 4947   5.133  12.401  11.569  0.0424  0.0697  0.0441
  310loPI   PO4 4948   4.843  12.272  11.014  0.3187 -0.0614  0.1951
  310loPI   GL1 4949   4.758  12.132  10.524  0.0404  0.0729 -0.2398
  310loPI   GL2 4950   4.653  12.311  10.283 -0.0800 -0.0397  0.2786
  310loPI   C1A 4951   4.479  11.819  10.210  0.2140  0.0818 -0.3121
  310loPI   C2A 4952   4.205  11.646   9.876 -0.0530 -0.1953 -0.1144
  310loPI   C3A 4953   4.226  11.617   9.494  0.0271  0.1418  0.0952
  310loPI   C4A 4954   4.085  11.447   9.046 -0.0221 -0.0329 -0.2853
  310loPI   C5A 4955   4.048  11.473   8.641  0.0641 -0.0469 -0.1372
  310loPI   C6A 4956   3.982  11.455   8.214 -0.0560 -0.2395  0.0802
  310loPI   C1B 4957   4.744  12.388   9.951  0.1147  0.2223  0.1125
  310loPI   C2B 4958   4.711  12.422   9.466 -0.0463 -0.3497 -0.2954
  310loPI   C3B 4959   4.531  12.288   9.066 -0.2554  0.3046  0.3744
  310loPI   C4B 4960   4.607  12.033   8.702 -0.2157 -0.0872 -0.2948
  311loPI    C1 4961   8.702  10.894  10.806 -0.1586 -0.0232  0.1913
  311loPI    C2 4962   8.463  10.976  11.116 -0.0993  0.1249  0.1984
  311loPI    C3 4963   8.847  11.088  11.124 -0.0458 -0.0524  0.1579
  311loPI   PO4 4964   8.531  10.960  10.621 -0.1582 -0.2228 -0.0029
  311loPI   GL1 4965   8.762  10.965  10.233  0.3347  0.0746  0.1934
  311loPI   GL2 4966   8.881  10.662  10.368  0.1459 -0.0097  0.1311
  311loPI   C1A 4967   8.830  10.817   9.801 -0.0355 -0.0769  0.0695
  311loPI   C2A 4968   8.818  10.783   9.389 -0.0975  0.0472  0.0210
  311loPI   C3A 4969   8.730  10.784   9.008  0.0135 -0.0675  0.1271
  311loPI   C4A 4970   8.611  10.857   8.596 -0.3234  0.1475 -0.3811
  311loPI   C5A 4971   8.612  10.910   8.141  0.1026 -0.1250 -0.0798
  311loPI   C6A 4972   8.426  11.030   7.777 -0.2564  0.1733  0.1009
  311loPI   C1B 4973   9.148  10.570  10.057  0.0801 -0.2116 -0.2263
  311loPI   C2B 4974   9.252  10.648   9.608  0.1368 -0.0170 -0.1386
  311loPI   C3B 4975   9.261  10.643   9.149 -0.1069 -0.1326  0.0603
  311loPI   C4B 4976   9.616  10.600   8.868  0.0605 -0.1108 -0.4338
  312loPI    C1 4977   9.101   5.490  11.349  0.2395 -0.0028  0.0179
  312loPI    C2 4978   9.404   5.240  11.429  0.0553 -0.1670  0.2160
  312loPI    C3 4979   9.124   5.311  11.706 -0.0098  0.0979  0.0866
  312loPI   PO4 4980   9.237   5.510  11.010  0.2513 -0.1193 -0.1794
  312loPI   GL1 4981   9.069   5.645  10.616 -0.1078 -0.0995 -0.1856
  312loPI   GL2 4982   9.195   5.921  10.434  0.2924 -0.1788  0.0613
  312loPI   C1A 4983   8.872   5.623  10.229 -0.0410 -0.1779 -0.1760
  312loPI   C2A 4984   8.740   5.666   9.864  0.0166  0.0358 -0.0470
  312loPI   C3A 4985   8.824   5.742   9.416  0.1784  0.0700 -0.0318
  312loPI   C4A 4986   8.840   5.929   8.915  0.1949 -0.2859 -0.0135
  312loPI   C5A 4987   8.939   5.774   8.513  0.1658  0.1697  0.0365
  312loPI   C6A 4988   9.120   5.946   8.241 -0.0148  0.2155 -0.0633
  312loPI   C1B 4989   9.284   5.767  10.017 -0.0140 -0.0783  0.1392
  312loPI   C2B 4990   9.252   5.832   9.607  0.0372  0.2686  0.0841
  312loPI   C3B 4991   9.264   5.931   9.145 -0.0647  0.0690 -0.2774
  312loPI   C4B 4992   9.254   6.180   8.753  0.0584 -0.0094  0.2318
  313loPI    C1 4993   2.446  11.288  10.790  0.2081 -0.1112  0.0990
  313loPI    C2 4994   2.804  11.191  10.942  0.2286  0.2165  0.2686
  313loPI    C3 4995   2.632  11.539  11.040 -0.1216  0.0793  0.1586
  313loPI   PO4 4996   2.390  11.274  10.540  0.2397  0.1374  0.0220
  313loPI   GL1 4997   2.182  11.061  10.244 -0.2550 -0.2723  0.1413
  313loPI   GL2 4998   2.053  10.817  10.224  0.0289 -0.1471 -0.0226
  313loPI   C1A 4999   2.439  11.158   9.820  0.0155  0.0872 -0.0068
  313loPI   C2A 5000   2.776  11.317   9.652  0.1287 -0.2991  0.2760
  313loPI   C3A 5001   2.801  11.654   9.308  0.0062  0.1735  0.0180
  313loPI   C4A 5002   2.732  11.640   8.883 -0.1084  0.3784  0.1189
  313loPI   C5A 5003   2.682  11.281   8.674  0.1333  0.1703 -0.0111
  313loPI   C6A 5004   2.786  10.896   8.483  0.1055  0.1709  0.3597
  313loPI   C1B 5005   2.051  10.830   9.841 -0.2567 -0.0076 -0.2516
  313loPI   C2B 5006   2.006  10.923   9.398  0.2321 -0.0229  0.4264
  313loPI   C3B 5007   1.960  10.865   8.932  0.1717  0.0036 -0.3829
  313loPI   C4B 5008   1.836  10.872   8.523 -0.0508 -0.3860 -0.0595
  314loPI    C1 5009  15.163  14.276  10.674 -0.1059  0.0688  0.1150
  314loPI    C2 5010  14.864  14.160  10.913 -0.1920 -0.3666 -0.1934
  314loPI    C3 5011  15.204  14.298  11.071 -0.4427 -0.1451  0.1656
  314loPI   PO4 5012  15.071  14.283  10.456 -0.2168  0.0300 -0.2137
  314loPI   GL1 5013  15.237  14.381  10.026 -0.0513 -0.0373  0.0065
  314loPI   GL2 5014  15.595  14.468   9.967 -0.1061 -0.0367 -0.0661
  314loPI   C1A 5015  15.271  14.048   9.810 -0.2282 -0.0993 -0.1864
  314loPI   C2A 5016  15.499  13.769   9.532 -0.1577  0.2686  0.2202
  314loPI   C3A 5017  15.575  13.793   9.090 -0.0827 -0.0969 -0.1430
  314loPI   C4A 5018  15.617  13.947   8.603 -0.0730 -0.0361 -0.1013
  314loPI   C5A 5019  15.908  13.851   8.358 -0.0858 -0.3415 -0.0633
  314loPI   C6A 5020  16.185  13.640   7.991 -0.4869 -0.0336 -0.0659
  314loPI   C1B 5021  15.672  14.256   9.501  0.1827 -0.2337  0.0166
  314loPI   C2B 5022  16.008  13.937   9.331 -0.1459  0.0710 -0.1676
  314loPI   C3B 5023  16.041  13.779   8.859 -0.0337  0.0468 -0.0617
  314loPI   C4B 5024  16.330  13.480   8.481 -0.2771  0.1534  0.2577
  315loPI    C1 5025   6.149   2.732  10.707  0.0465  0.0085  0.0876
  315loPI    C2 5026   6.413   2.517  10.917  0.1407  0.0339 -0.0037
  315loPI    C3 5027   6.221   2.823  11.090  0.1412 -0.0097  0.0744
  315loPI   PO4 5028   6.291   2.781  10.461  0.2298 -0.0652 -0.0348
  315loPI   GL1 5029   6.191   3.022  10.163  0.1163  0.0928  0.0643
  315loPI   GL2 5030   5.944   2.962   9.903 -0.1555 -0.1362  0.0616
  315loPI   C1A 5031   6.410   2.985   9.819 -0.1468 -0.2251 -0.3415
  315loPI   C2A 5032   6.492   2.909   9.334 -0.0677 -0.0470  0.1056
  315loPI   C3A 5033   6.565   3.023   8.861  0.1590  0.0861 -0.0247
  315loPI   C4A 5034   6.943   3.116   8.602  0.0322 -0.1185  0.2423
  315loPI   C5A 5035   7.030   3.009   8.196 -0.0589  0.0248 -0.2300
  315loPI   C6A 5036   6.832   2.795   7.869 -0.0009 -0.1216 -0.1700
  315loPI   C1B 5037   6.065   3.089   9.496 -0.0906 -0.1399  0.0024
  315loPI   C2B 5038   6.046   2.978   9.051  0.1816  0.1623  0.1972
  315loPI   C3B 5039   6.095   2.914   8.634  0.1624  0.1063 -0.0965
  315loPI   C4B 5040   6.248   3.230   8.335  0.0011 -0.1815 -0.0744
  316loPI    C1 5041  13.929  10.998  11.135 -0.0873 -0.1882 -0.0443
  316loPI    C2 5042  14.250  10.889  11.346 -0.0473 -0.0049 -0.0084
  316loPI    C3 5043  13.905  10.965  11.533 -0.0931 -0.1328 -0.0398
  316loPI   PO4 5044  13.864  10.778  10.991 -0.0195 -0.1056  0.0340
  316loPI   GL1 5045  13.738  10.689  10.557  0.3449  0.2372  0.0022
  316loPI   GL2 5046  13.436  10.684  10.515  0.1823 -0.0103  0.1716
  316loPI   C1A 5047  13.944  10.962  10.263 -0.1946  0.2171 -0.0890
  316loPI   C2A 5048  13.961  10.844   9.913  0.0702  0.1374 -0.0406
  316loPI   C3A 5049  13.877  10.857   9.478 -0.0282  0.1971 -0.0044
  316loPI   C4A 5050  13.932  10.810   9.022 -0.0195 -0.0491 -0.2415
  316loPI   C5A 5051  13.781  10.739   8.663  0.0866  0.0187 -0.3536
  316loPI   C6A 5052  13.673  10.842   8.269 -0.0838  0.0548  0.0241
  316loPI   C1B 5053  13.313  10.846  10.057 -0.3353 -0.1023 -0.1197
  316loPI   C2B 5054  13.364  10.774   9.639  0.3955 -0.0826 -0.0783
  316loPI   C3B 5055  13.371  10.835   9.182 -0.0532  0.1287 -0.0810
  316loPI   C4B 5056  13.282  10.893   8.710  0.1632  0.1186 -0.0087
  317loPI    C1 5057   9.462   1.119  10.297 -0.0949 -0.1391  0.0653
  317loPI    C2 5058   9.575   0.738  10.349 -0.0540 -0.1259  0.0737
  317loPI    C3 5059   9.616   1.002  10.647  0.0663 -0.0784  0.0158
  317loPI   PO4 5060   9.444   1.127  10.027 -0.0378  0.2424 -0.1674
  317loPI   GL1 5061   9.337   1.040   9.661  0.2387 -0.1541  0.1527
  317loPI   GL2 5062   9.390   0.712   9.544  0.2920 -0.0309 -0.0423
  317loPI   C1A 5063   9.144   1.150   9.282 -0.0536 -0.0137 -0.0883
  317loPI   C2A 5064   9.178   1.345   8.859  0.0973 -0.0325  0.0270
  317loPI   C3A 5065   9.111   1.334   8.532 -0.1210  0.3364 -0.0906
  317loPI   C4A 5066   9.332   1.334   8.084  0.0657  0.3344 -0.1124
  317loPI   C5A 5067   9.685   1.306   7.835  0.1001  0.3116  0.4692
  317loPI   C6A 5068   9.808   1.465   7.404 -0.0822 -0.0284 -0.2538
  317loPI   C1B 5069   9.283   0.691   9.231  0.1696  0.1173  0.0997
  317loPI   C2B 5070   9.291   0.820   8.847 -0.0451  0.2122 -0.0200
  317loPI   C3B 5071   9.492   0.785   8.434 -0.0925 -0.2818  0.0759
  317loPI   C4B 5072   9.627   0.829   7.995  0.0672  0.3718  0.0328
  318loPI    C1 5073   8.181   8.486  10.829 -0.0786 -0.1199 -0.0069
  318loPI    C2 5074   8.446   8.204  10.728  0.0103  0.0532 -0.2660
  318loPI    C3 5075   8.461   8.373  11.091  0.0269 -0.1926 -0.1501
  318loPI   PO4 5076   8.168   8.553  10.547  0.2733 -0.0219  0.0410
  318loPI   GL1 5077   8.325   8.517  10.221 -0.2446 -0.0632 -0.2673
  318loPI   GL2 5078   8.369   8.905  10.261 -0.3213  0.0878 -0.2026
  318loPI   C1A 5079   8.294   8.474   9.760  0.2974  0.2219  0.0411
  318loPI   C2A 5080   8.137   8.454   9.343  0.1612 -0.0408  0.1982
  318loPI   C3A 5081   8.075   8.299   8.935  0.2606  0.1296 -0.2808
  318loPI   C4A 5082   8.086   8.225   8.468 -0.2199  0.2233  0.2641
  318loPI   C5A 5083   8.117   8.475   8.115 -0.1457 -0.0188 -0.1628
  318loPI   C6A 5084   8.042   8.373   7.707 -0.0691 -0.0269  0.0356
  318loPI   C1B 5085   8.298   9.157   9.970 -0.0231 -0.0162 -0.1767
  318loPI   C2B 5086   8.169   9.130   9.600  0.4530 -0.2106 -0.1764
  318loPI   C3B 5087   8.249   8.989   9.291  0.3084 -0.1103 -0.1292
  318loPI   C4B 5088   8.435   8.680   8.933 -0.0296  0.3035  0.0820
  319loPI    C1 5089   6.418  10.329  10.534 -0.0263  0.0856 -0.0739
  319loPI    C2 5090   6.338  10.316  10.925 -0.1244  0.2241 -0.0887
  319loPI    C3 5091   6.656  10.519  10.793 -0.0055  0.0535 -0.0692
  319loPI   PO4 5092   6.160  10.398  10.433  0.0630  0.0753  0.2274
  319loPI   GL1 5093   6.197  10.629  10.135 -0.0345 -0.0961  0.0905
  319loPI   GL2 5094   6.428  10.859  10.282  0.1215  0.0893  0.0942
  319loPI   C1A 5095   6.326  10.652   9.720 -0.1723  0.0068  0.1122
  319loPI   C2A 5096   6.335  10.732   9.292 -0.0681  0.0175 -0.2145
  319loPI   C3A 5097   6.310  10.628   8.891 -0.1881  0.0390 -0.1705
  319loPI   C4A 5098   6.247  10.486   8.562  0.1285  0.0961 -0.0074
  319loPI   C5A 5099   6.307  10.237   8.226  0.2995  0.2578  0.0770
  319loPI   C6A 5100   6.261   9.833   8.080  0.0708 -0.0153  0.1764
  319loPI   C1B 5101   6.729  10.995   9.926  0.3289  0.1839  0.1482
  319loPI   C2B 5102   6.798  10.946   9.480  0.1511 -0.0988  0.0138
  319loPI   C3B 5103   6.782  10.975   9.040  0.0111  0.1859 -0.1154
  319loPI   C4B 5104   6.893  11.145   8.636 -0.1110  0.4303 -0.2195
  320loPI    C1 5105  12.185   7.508  11.160 -0.1093 -0.0988 -0.0158
  320loPI    C2 5106  12.086   7.798  10.903 -0.2889 -0.0076  0.1534
  320loPI    C3 5107  12.169   7.888  11.284  0.0509 -0.1328  0.1123
  320loPI   PO4 5108  12.377   7.407  11.034  0.0175 -0.0507  0.1763
  320loPI   GL1 5109  12.589   7.507  10.596 -0.1616 -0.0949  0.0957
  320loPI   GL2 5110  12.441   7.895  10.499 -0.1781  0.1080 -0.0749
  320loPI   C1A 5111  12.600   7.643  10.093  0.1188 -0.1094 -0.2348
  320loPI   C2A 5112  12.610   7.519   9.514  0.0577 -0.2074 -0.2831
  320loPI   C3A 5113  12.596   7.552   9.054 -0.1334 -0.0825  0.1104
  320loPI   C4A 5114  12.568   7.702   8.598  0.0524  0.1222  0.2263
  320loPI   C5A 5115  12.464   7.868   8.268  0.5028  0.1886 -0.1039
  320loPI   C6A 5116  12.528   8.122   7.923  0.0799 -0.1186 -0.0633
  320loPI   C1B 5117  12.316   8.046  10.123  0.2938 -0.1997  0.1891
  320loPI   C2B 5118  12.247   8.030   9.693  0.2298 -0.1274  0.1068
  320loPI   C3B 5119  12.185   8.000   9.279 -0.3831  0.3485  0.1854
  320loPI   C4B 5120  12.105   7.814   8.949  0.2331  0.0923  0.1371
  321loPI    C1 5121   9.063  12.973  10.797  0.0283  0.2545 -0.0939
  321loPI    C2 5122   9.392  12.896  10.584  0.0503  0.3178 -0.0831
  321loPI    C3 5123   9.414  12.927  10.982 -0.0039  0.1257 -0.0641
  321loPI   PO4 5124   8.896  12.836  10.672 -0.0379  0.2618 -0.1655
  321loPI   GL1 5125   8.957  12.858  10.237  0.1981  0.0957  0.1181
  321loPI   GL2 5126   8.775  12.758  10.063 -0.3447 -0.0939 -0.0493
  321loPI   C1A 5127   9.228  12.839  10.004  0.2924  0.0019  0.3196
  321loPI   C2A 5128   9.203  12.831   9.699  0.0281  0.2703 -0.0030
  321loPI   C3A 5129   9.131  12.970   9.293 -0.2617  0.3866 -0.0156
  321loPI   C4A 5130   9.276  12.955   8.895 -0.2794  0.0704 -0.1853
  321loPI   C5A 5131   9.404  12.916   8.487 -0.3087 -0.0682 -0.2909
  321loPI   C6A 5132   9.229  12.874   8.041  0.5470 -0.2623  0.1297
  321loPI   C1B 5133   8.787  12.675   9.611 -0.2648 -0.2123  0.2576
  321loPI   C2B 5134   8.744  12.656   9.206 -0.1543 -0.3260 -0.0096
  321loPI   C3B 5135   8.785  12.856   8.862 -0.2495  0.1372  0.1372
  321loPI   C4B 5136   8.984  12.628   8.474 -0.0622  0.1645 -0.0429
  322loPI    C1 5137  10.173  16.663  10.441  0.0166 -0.1323  0.1438
  322loPI    C2 5138  10.494  16.816  10.624  0.0443 -0.0053 -0.0092
  322loPI    C3 5139  10.148  16.784  10.822  0.1192 -0.0302  0.1188
  322loPI   PO4 5140  10.192  16.716  10.229 -0.2688 -0.0275 -0.0968
  322loPI   GL1 5141  10.098  16.737   9.870 -0.3526 -0.1174 -0.1281
  322loPI   GL2 5142  10.203  17.098   9.894  0.1312 -0.2683  0.3155
  322loPI   C1A 5143   9.848  16.757   9.522  0.1299  0.0288  0.0201
  322loPI   C2A 5144   9.748  16.884   9.130 -0.1698  0.0489 -0.1748
  322loPI   C3A 5145   9.854  17.073   8.706  0.0081 -0.1354  0.1924
  322loPI   C4A 5146  10.035  17.042   8.282 -0.0507 -0.1673 -0.0247
  322loPI   C5A 5147  10.093  16.909   7.934  0.1089  0.1837 -0.2438
  322loPI   C6A 5148  10.136  16.552   7.764  0.0261  0.4478 -0.1454
  322loPI   C1B 5149  10.288  16.958   9.500 -0.1167 -0.3137  0.2715
  322loPI   C2B 5150  10.200  16.678   9.132  0.0091 -0.1164 -0.3078
  322loPI   C3B 5151  10.220  16.637   8.708 -0.0658  0.0277  0.1268
  322loPI   C4B 5152  10.245  16.522   8.241  0.3175 -0.1944 -0.0319
  323loPI    C1 5153   1.044  18.009  10.524 -0.1269 -0.2375  0.1451
  323loPI    C2 5154   1.006  18.364  10.705  0.1202 -0.0571 -0.1472
  323loPI    C3 5155   0.974  18.027  10.918 -0.0185  0.1401  0.1514
  323loPI   PO4 5156   1.170  17.962  10.407 -0.0499  0.0181  0.2407
  323loPI   GL1 5157   1.163  17.953   9.955 -0.3280 -0.2001 -0.0933
  323loPI   GL2 5158   0.937  18.028   9.871 -0.2592 -0.1875 -0.0278
  323loPI   C1A 5159   1.528  17.867   9.605  0.1575 -0.1925 -0.2281
  323loPI   C2A 5160   1.571  17.869   9.230 -0.0089 -0.0154  0.0251
  323loPI   C3A 5161   1.481  17.818   8.811 -0.1270  0.2307  0.1720
  323loPI   C4A 5162   1.586  17.917   8.374  0.0320  0.1988  0.0692
  323loPI   C5A 5163   1.688  17.878   7.927  0.1339  0.2483 -0.2735
  323loPI   C6A 5164   2.034  17.925   7.727 -0.0595  0.0016  0.1838
  323loPI   C1B 5165   1.082  18.052   9.394 -0.0839 -0.2642  0.0392
  323loPI   C2B 5166   0.972  17.979   9.021 -0.1150  0.0586  0.3824
  323loPI   C3B 5167   1.068  17.750   8.555  0.1630  0.3086  0.1342
  323loPI   C4B 5168   1.349  17.455   8.418  0.0560 -0.0550  0.0519
  324loPI    C1 5169  17.937  15.673  10.716  0.0524  0.1302 -0.0061
  324loPI    C2 5170  18.051  16.018  10.883  0.0871 -0.0134  0.2710
  324loPI    C3 5171  17.935  15.712  11.114  0.1353 -0.2157  0.0312
  324loPI   PO4 5172  18.158  15.574  10.553  0.0494  0.1787 -0.2296
  324loPI   GL1 5173  18.186  15.394  10.170 -0.0247  0.1116  0.1012
  324loPI   GL2 5174  18.509  15.283  10.085 -0.2339  0.0175 -0.1128
  324loPI   C1A 5175  18.166  15.348   9.688  0.1906  0.1958  0.0929
  324loPI   C2A 5176  18.180  15.302   9.228  0.1332 -0.2264 -0.2011
  324loPI   C3A 5177  18.110  15.253   8.862  0.0292 -0.0064  0.1786
  324loPI   C4A 5178  18.308  15.387   8.419  0.0157  0.1159 -0.0654
  324loPI   C5A 5179  18.490  15.298   8.099 -0.0777  0.1735 -0.0871
  324loPI   C6A 5180  18.279  15.020   7.824  0.3103 -0.0897  0.0654
  324loPI   C1B 5181  18.562  15.070   9.747  0.1071 -0.0770 -0.3041
  324loPI   C2B 5182  18.669  14.939   9.324 -0.0206  0.1542 -0.1538
  324loPI   C3B 5183  18.584  14.872   8.940  0.1441  0.0598 -0.1939
  324loPI   C4B 5184  18.577  14.946   8.486 -0.1697  0.1859  0.0648
  325loPI    C1 5185   8.571   4.682  10.871 -0.0908  0.1280 -0.0658
  325loPI    C2 5186   8.192   4.604  10.971 -0.0231  0.0070  0.1003
  325loPI    C3 5187   8.429   4.801  11.225  0.0801 -0.0867  0.0779
  325loPI   PO4 5188   8.555   4.770  10.644 -0.1494 -0.0371 -0.2098
  325loPI   GL1 5189   8.432   4.843  10.211 -0.0164 -0.0119  0.1255
  325loPI   GL2 5190   8.765   4.882  10.159 -0.0878 -0.1943 -0.0138
  325loPI   C1A 5191   8.201   4.614   9.808 -0.0083  0.3533  0.3655
  325loPI   C2A 5192   8.175   4.585   9.320 -0.2415 -0.3959 -0.1526
  325loPI   C3A 5193   8.305   4.696   8.896  0.1776 -0.1641  0.2149
  325loPI   C4A 5194   8.306   4.781   8.497  0.2586  0.1282  0.3674
  325loPI   C5A 5195   8.321   4.867   8.138 -0.0214 -0.0213 -0.3940
  325loPI   C6A 5196   8.391   4.670   7.719  0.0969  0.0142  0.0179
  325loPI   C1B 5197   8.630   4.889   9.732  0.0444  0.3406  0.1711
  325loPI   C2B 5198   8.622   4.928   9.335  0.1306  0.1797  0.1690
  325loPI   C3B 5199   8.670   5.015   8.947 -0.0603 -0.1192 -0.2261
  325loPI   C4B 5200   8.730   5.118   8.492 -0.0994 -0.3859  0.1385
  326loPI    C1 5201  12.100   6.102  11.307  0.0971  0.1173  0.0207
  326loPI    C2 5202  11.835   5.866  11.493  0.1328  0.1457  0.1086
  326loPI    C3 5203  12.157   5.706  11.316  0.0246  0.1051 -0.0537
  326loPI   PO4 5204  11.910   6.250  11.084  0.0307 -0.2524 -0.2762
  326loPI   GL1 5205  11.723   6.334  10.780 -0.0575 -0.1872 -0.1280
  326loPI   GL2 5206  11.769   6.655  10.583  0.5602  0.1708 -0.1624
  326loPI   C1A 5207  11.658   6.309  10.310 -0.2418 -0.1145 -0.2100
  326loPI   C2A 5208  11.670   6.431   9.842  0.0428  0.1572  0.2845
  326loPI   C3A 5209  11.713   6.451   9.526 -0.1169  0.0808 -0.1317
  326loPI   C4A 5210  11.776   6.453   9.109  0.2322 -0.1694  0.0633
  326loPI   C5A 5211  11.798   6.464   8.744  0.0888 -0.0461  0.2259
  326loPI   C6A 5212  12.145   6.510   8.446  0.1672  0.2966 -0.1218
  326loPI   C1B 5213  12.112   6.902  10.361  0.1233  0.0300 -0.0884
  326loPI   C2B 5214  12.324   7.032  10.076 -0.0542  0.1710 -0.0433
  326loPI   C3B 5215  12.401   6.995   9.639 -0.2255  0.0448 -0.0811
  326loPI   C4B 5216  12.484   7.029   9.151  0.1624  0.1944 -0.0338
  327loPI    C1 5217  16.492   9.808  11.169 -0.2423  0.1786 -0.1311
  327loPI    C2 5218  16.864   9.943  11.109 -0.2000  0.0317 -0.2025
  327loPI    C3 5219  16.706   9.950  11.476 -0.0589 -0.0735 -0.1387
  327loPI   PO4 5220  16.449   9.787  10.855 -0.1544  0.1140 -0.1350
  327loPI   GL1 5221  16.505   9.891  10.437 -0.0595  0.1441 -0.0025
  327loPI   GL2 5222  16.155  10.095  10.338 -0.1739 -0.0277  0.0591
  327loPI   C1A 5223  16.336   9.669  10.077 -0.1048 -0.3641 -0.2846
  327loPI   C2A 5224  16.199   9.815   9.699 -0.0808 -0.1151 -0.1343
  327loPI   C3A 5225  15.778   9.809   9.476  0.2151 -0.1009  0.0189
  327loPI   C4A 5226  15.525   9.849   9.151  0.3670  0.2061 -0.2252
  327loPI   C5A 5227  15.483  10.004   8.723  0.4615  0.1878 -0.3016
  327loPI   C6A 5228  15.194  10.187   8.361 -0.0332  0.1218 -0.1253
  327loPI   C1B 5229  16.193  10.274   9.974  0.2830 -0.0582  0.1818
  327loPI   C2B 5230  16.157  10.533   9.656  0.0647 -0.0033  0.1211
  327loPI   C3B 5231  16.140  10.516   9.191 -0.0277 -0.1015  0.2095
  327loPI   C4B 5232  16.283  10.459   8.821 -0.1941  0.0209 -0.1414
  328loPI    C1 5233  13.456   1.956  10.634 -0.0819 -0.1285 -0.0778
  328loPI    C2 5234  13.266   2.294  10.535  0.0121  0.0033  0.1840
  328loPI    C3 5235  13.660   2.298  10.605  0.0144 -0.1614  0.1858
  328loPI   PO4 5236  13.343   1.808  10.466  0.3128  0.2365  0.1070
  328loPI   GL1 5237  13.526   1.719  10.089  0.0628 -0.1639 -0.1113
  328loPI   GL2 5238  13.750   1.967  10.245  0.2232  0.2171 -0.3682
  328loPI   C1A 5239  13.497   1.812   9.651 -0.1463 -0.3622  0.3431
  328loPI   C2A 5240  13.426   1.810   9.225  0.1543 -0.2613  0.2373
  328loPI   C3A 5241  13.463   1.933   8.712  0.0883  0.1419 -0.0347
  328loPI   C4A 5242  13.481   2.089   8.306  0.3130 -0.1727 -0.0647
  328loPI   C5A 5243  13.340   2.021   7.900  0.2829 -0.1215 -0.0666
  328loPI   C6A 5244  12.903   1.740   7.750  0.2721  0.1849  0.2765
  328loPI   C1B 5245  13.522   2.315  10.072  0.0034  0.4051 -0.1983
  328loPI   C2B 5246  13.561   2.427   9.639  0.1950 -0.1006  0.1251
  328loPI   C3B 5247  13.657   2.298   9.210 -0.3158 -0.0511 -0.1251
  328loPI   C4B 5248  13.657   2.373   8.794 -0.4168 -0.2644 -0.0999
  329loPI    C1 5249   3.691   5.217  10.903 -0.1431  0.0562 -0.1067
  329loPI    C2 5250   4.023   5.036  10.772  0.1596  0.2866  0.3147
  329loPI    C3 5251   3.825   4.888  11.086 -0.1902  0.1052  0.0171
  329loPI   PO4 5252   3.527   5.241  10.742  0.0260 -0.0524  0.5301
  329loPI   GL1 5253   3.346   5.417  10.362 -0.0841 -0.1435  0.0136
  329loPI   GL2 5254   2.927   5.390  10.329 -0.1110 -0.1264  0.1050
  329loPI   C1A 5255   3.316   5.410   9.897 -0.1739  0.0265  0.1042
  329loPI   C2A 5256   3.290   5.489   9.497 -0.3724  0.1994  0.0617
  329loPI   C3A 5257   3.366   5.511   9.114 -0.0299 -0.1121 -0.1914
  329loPI   C4A 5258   3.462   5.470   8.712 -0.1341 -0.0044  0.0950
  329loPI   C5A 5259   3.551   5.423   8.275  0.2893 -0.0312  0.1438
  329loPI   C6A 5260   3.655   5.120   8.005  0.2930  0.0375 -0.2454
  329loPI   C1B 5261   2.822   5.572   9.946 -0.1024  0.0813 -0.1839
  329loPI   C2B 5262   2.849   5.561   9.625  0.1269 -0.0906 -0.1649
  329loPI   C3B 5263   2.855   5.522   9.183 -0.0449  0.2132 -0.0235
  329loPI   C4B 5264   2.925   5.528   8.751 -0.1071 -0.1577  0.3442
  330loPI    C1 5265  15.998   4.295  10.879  0.1068 -0.1554 -0.1067
  330loPI    C2 5266  16.098   3.983  11.108  0.0909 -0.2224 -0.1910
  330loPI    C3 5267  16.267   4.339  11.172  0.0072 -0.2148 -0.0051
  330loPI   PO4 5268  16.009   4.225  10.641 -0.1645  0.2418 -0.0511
  330loPI   GL1 5269  16.012   3.940  10.310  0.0412 -0.2488 -0.1252
  330loPI   GL2 5270  16.002   4.209  10.095  0.0048 -0.1130 -0.0434
  330loPI   C1A 5271  16.010   3.741   9.920  0.0917  0.0922  0.1563
  330loPI   C2A 5272  15.895   3.669   9.495  0.2038 -0.0922  0.0622
  330loPI   C3A 5273  15.894   3.794   8.959  0.0163  0.2310  0.0042
  330loPI   C4A 5274  15.753   3.952   8.598  0.1316  0.2407  0.2769
  330loPI   C5A 5275  15.359   3.785   8.313 -0.2462 -0.3459 -0.2355
  330loPI   C6A 5276  15.147   3.794   7.890  0.2793  0.0695 -0.1321
  330loPI   C1B 5277  16.088   4.159   9.638  0.1711 -0.1349  0.0526
  330loPI   C2B 5278  16.036   4.209   9.173 -0.3063  0.0303 -0.1383
  330loPI   C3B 5279  16.061   4.310   8.742 -0.3313 -0.1171  0.0314
  330loPI   C4B 5280  16.079   4.651   8.435  0.1978  0.0500  0.1431
  331loPI    C1 5281   1.392   6.331  10.770 -0.0085  0.0234  0.1705
  331loPI    C2 5282   1.252   6.706  10.778  0.2209  0.1157 -0.0233
  331loPI    C3 5283   1.604   6.619  10.948  0.2090  0.0057 -0.0543
  331loPI   PO4 5284   1.342   6.324  10.498 -0.1515  0.2774 -0.2453
  331loPI   GL1 5285   1.191   6.277  10.108  0.2261  0.2031 -0.1655
  331loPI   GL2 5286   1.194   6.084   9.950 -0.0965 -0.0129 -0.1008
  331loPI   C1A 5287   0.819   6.475   9.845 -0.3910  0.1420  0.2104
  331loPI   C2A 5288   0.462   6.795   9.714  0.0331 -0.1234  0.3067
  331loPI   C3A 5289   0.401   6.911   9.282  0.0759  0.0193 -0.2520
  331loPI   C4A 5290   0.367   7.118   8.959  0.1272  0.2423 -0.1069
  331loPI   C5A 5291   0.509   7.117   8.651 -0.0512  0.1967 -0.2188
  331loPI   C6A 5292   0.676   7.106   8.247 -0.0918 -0.0659  0.1153
  331loPI   C1B 5293   1.228   6.251   9.566  0.0132  0.1985 -0.1624
  331loPI   C2B 5294   1.180   6.221   9.103 -0.0185 -0.1217 -0.0842
  331loPI   C3B 5295   1.120   6.453   8.748 -0.0850 -0.2327 -0.2171
  331loPI   C4B 5296   1.074   6.835   8.552 -0.1435  0.0046  0.1038
  332loPI    C1 5297  12.611  12.700  10.914  0.0283  0.0813 -0.2005
  332loPI    C2 5298  12.627  12.301  10.928  0.0454  0.0798 -0.2604
  332loPI    C3 5299  12.919  12.518  11.093 -0.2550  0.0761  0.3005
  332loPI   PO4 5300  12.557  12.738  10.658 -0.0723 -0.0652  0.3781
  332loPI   GL1 5301  12.534  12.538  10.258 -0.1777 -0.1028 -0.3116
  332loPI   GL2 5302  12.434  12.236  10.413  0.2394  0.4130  0.0772
  332loPI   C1A 5303  12.637  12.504   9.814  0.1608 -0.0407  0.1560
  332loPI   C2A 5304  12.595  12.459   9.401 -0.0186 -0.2161  0.2059
  332loPI   C3A 5305  12.614  12.585   8.958  0.0221  0.0138 -0.1813
  332loPI   C4A 5306  12.585  12.560   8.575 -0.0123 -0.2072  0.0441
  332loPI   C5A 5307  12.232  12.789   8.288 -0.0896 -0.0538 -0.1389
  332loPI   C6A 5308  12.082  12.616   7.865 -0.2189  0.0182 -0.0136
  332loPI   C1B 5309  12.404  11.989  10.006 -0.2481 -0.2708 -0.1376
  332loPI   C2B 5310  12.355  12.093   9.630  0.0771 -0.0205 -0.1952
  332loPI   C3B 5311  12.393  11.990   9.277  0.1811 -0.2164 -0.0366
  332loPI   C4B 5312  12.364  12.035   8.797 -0.4089  0.2497 -0.0758
  333loPI    C1 5313   6.901   2.631  10.797  0.1509  0.2874  0.0468
  333loPI    C2 5314   7.286   2.688  10.708  0.2033 -0.0736  0.0259
  333loPI    C3 5315   7.166   2.338  10.860 -0.2125 -0.1935 -0.5438
  333loPI   PO4 5316   6.774   2.646  10.602  0.0679 -0.0109  0.3204
  333loPI   GL1 5317   6.627   2.638  10.092  0.2549  0.5161  0.2180
  333loPI   GL2 5318   6.256   2.541  10.018  0.0547 -0.0505  0.3295
  333loPI   C1A 5319   6.756   2.479   9.747  0.0287  0.0656  0.0414
  333loPI   C2A 5320   6.900   2.578   9.286  0.1283 -0.1279  0.0108
  333loPI   C3A 5321   6.932   2.593   8.879  0.3265 -0.1433  0.1310
  333loPI   C4A 5322   7.168   2.641   8.539 -0.0869  0.3038 -0.0797
  333loPI   C5A 5323   7.358   2.578   8.180  0.1157  0.0604  0.1815
  333loPI   C6A 5324   7.689   2.316   7.915 -0.0961  0.3615 -0.0453
  333loPI   C1B 5325   6.280   2.554   9.560  0.0782 -0.0240  0.1696
  333loPI   C2B 5326   6.360   2.432   9.205  0.0510  0.1315  0.2597
  333loPI   C3B 5327   6.420   2.459   8.735  0.1789 -0.1282 -0.1037
  333loPI   C4B 5328   6.575   2.733   8.360  0.0325 -0.0180 -0.0339
  334loPI    C1 5329   6.257   7.525  10.347 -0.0183 -0.0072 -0.0308
  334loPI    C2 5330   6.324   7.786  10.643  0.0038 -0.1184  0.0630
  334loPI    C3 5331   6.631   7.601  10.467 -0.0126 -0.0908  0.0048
  334loPI   PO4 5332   6.032   7.681  10.238 -0.0175  0.1226 -0.0056
  334loPI   GL1 5333   5.868   7.697   9.817  0.2431 -0.0517 -0.2267
  334loPI   GL2 5334   5.637   7.924   9.975 -0.2245 -0.2266  0.0030
  334loPI   C1A 5335   5.783   7.533   9.433  0.0226  0.2549 -0.0304
  334loPI   C2A 5336   5.930   7.431   9.093 -0.0290  0.1055 -0.0731
  334loPI   C3A 5337   6.011   7.543   8.643  0.1448  0.3804  0.1830
  334loPI   C4A 5338   6.013   7.244   8.295 -0.0024 -0.2033  0.3788
  334loPI   C5A 5339   6.098   6.813   8.229 -0.3003 -0.3944 -0.0182
  334loPI   C6A 5340   6.459   6.702   8.401 -0.0362  0.2161  0.0486
  334loPI   C1B 5341   5.641   7.990   9.509 -0.2705 -0.1393  0.1754
  334loPI   C2B 5342   5.651   7.994   9.080  0.0180 -0.0616  0.1551
  334loPI   C3B 5343   5.737   8.041   8.732 -0.0335  0.1856 -0.2936
  334loPI   C4B 5344   5.786   7.904   8.435 -0.0168 -0.3645  0.0809
  335loPI    C1 5345   2.810   3.749  10.836  0.1236  0.0863  0.0397
  335loPI    C2 5346   3.048   4.047  10.955 -0.0035  0.0414  0.4179
  335loPI    C3 5347   3.045   3.701  11.156  0.2070 -0.2523 -0.0677
  335loPI   PO4 5348   2.604   3.878  10.704  0.0156 -0.0002 -0.0916
  335loPI   GL1 5349   2.254   3.799  10.470  0.0154  0.0024  0.1706
  335loPI   GL2 5350   2.078   3.589  10.188 -0.0562  0.3071 -0.1157
  335loPI   C1A 5351   2.348   4.056  10.045  0.0681 -0.0828 -0.1346
  335loPI   C2A 5352   2.501   4.099   9.633  0.1364 -0.2832  0.0938
  335loPI   C3A 5353   2.508   4.231   9.130  0.0292  0.0007 -0.0318
  335loPI   C4A 5354   2.598   4.199   8.686  0.1604  0.2595  0.1554
  335loPI   C5A 5355   2.705   3.955   8.408 -0.0566 -0.0777 -0.1299
  335loPI   C6A 5356   2.845   3.721   8.018 -0.1647 -0.0493  0.0298
  335loPI   C1B 5357   2.235   3.712   9.766 -0.0964  0.0385  0.2981
  335loPI   C2B 5358   2.226   3.716   9.189  0.1779 -0.1080 -0.5857
  335loPI   C3B 5359   2.049   3.846   8.717 -0.2183 -0.0243 -0.0584
  335loPI   C4B 5360   2.168   4.022   8.320  0.0180  0.3384 -0.1436
  336loPI    C1 5361   0.156   2.291  10.659  0.1655  0.1113  0.1202
  336loPI    C2 5362  -0.176   2.154  10.837  0.0119 -0.0750 -0.2970
  336loPI    C3 5363   0.184   2.028  10.960 -0.0864 -0.1360 -0.0671
  336loPI   PO4 5364   0.144   2.258  10.413  0.0129 -0.0466 -0.0882
  336loPI   GL1 5365  -0.046   2.359  10.048  0.2852 -0.0682 -0.1764
  336loPI   GL2 5366   0.261   2.427   9.949  0.0148 -0.2302 -0.1240
  336loPI   C1A 5367  -0.279   2.193   9.720  0.0415  0.0710 -0.1516
  336loPI   C2A 5368  -0.278   2.302   9.304  0.1670  0.3605 -0.0668
  336loPI   C3A 5369  -0.190   2.387   8.916  0.0116 -0.1021  0.3687
  336loPI   C4A 5370   0.018   2.291   8.561 -0.3417 -0.0531 -0.0785
  336loPI   C5A 5371   0.104   2.530   8.190 -0.0312  0.1743 -0.0961
  336loPI   C6A 5372   0.314   2.453   7.818  0.0399 -0.0908  0.0797
  336loPI   C1B 5373   0.176   2.480   9.545 -0.0363 -0.0723  0.0641
  336loPI   C2B 5374   0.299   2.507   9.046 -0.2897  0.2672 -0.1764
  336loPI   C3B 5375   0.530   2.248   8.742 -0.1107  0.0332 -0.4935
  336loPI   C4B 5376   0.500   2.279   8.289  0.1985  0.1678  0.2374
  337loPI    C1 5377   2.565  10.745  11.156 -0.1707  0.0571 -0.0890
  337loPI    C2 5378   2.367  11.073  11.271 -0.2736 -0.0807  0.1335
  337loPI    C3 5379   2.688  10.951  11.477 -0.1637 -0.0536 -0.0201
  337loPI   PO4 5380   2.568  10.743  10.893  0.0821  0.0829 -0.1292
  337loPI   GL1 5381   2.764  10.464  10.563 -0.1527 -0.2458 -0.1779
  337loPI   GL2 5382   2.477  10.438  10.343  0.1910  0.2219  0.4713
  337loPI   C1A 5383   3.005  10.444  10.152  0.0908 -0.2152  0.2488
  337loPI   C2A 5384   2.993  10.439   9.652 -0.0494  0.1453 -0.1145
  337loPI   C3A 5385   2.726  10.341   9.264 -0.0087  0.1310 -0.1076
  337loPI   C4A 5386   2.616  10.327   8.872  0.2554 -0.2634  0.0593
  337loPI   C5A 5387   2.734  10.442   8.446  0.0459 -0.0615  0.0199
  337loPI   C6A 5388   2.928  10.417   8.095  0.3697  0.0684  0.2713
  337loPI   C1B 5389   2.365  10.429   9.839  0.0959 -0.2302  0.1793
  337loPI   C2B 5390   2.182  10.376   9.397  0.0626  0.3685  0.1945
  337loPI   C3B 5391   2.194  10.494   9.052 -0.0046  0.0092  0.1405
  337loPI   C4B 5392   2.267  10.599   8.620  0.1712 -0.1927  0.2268
  338loPI    C1 5393   8.620   6.231  10.969 -0.0152 -0.0683  0.0711
  338loPI    C2 5394   8.843   6.238  11.301  0.1086 -0.0299 -0.0122
  338loPI    C3 5395   8.703   5.890  11.161  0.2238 -0.0693 -0.0307
  338loPI   PO4 5396   8.797   6.388  10.687 -0.0242  0.1019 -0.1626
  338loPI   GL1 5397   8.877   6.832  10.582  0.3078  0.0519 -0.0551
  338loPI   GL2 5398   8.982   7.086  10.504 -0.1182  0.2192 -0.3937
  338loPI   C1A 5399   9.077   6.654  10.208 -0.4226 -0.2667 -0.1710
  338loPI   C2A 5400   9.140   6.705   9.814 -0.1418 -0.2533  0.0876
  338loPI   C3A 5401   9.006   6.915   9.358 -0.0274  0.2220  0.2520
  338loPI   C4A 5402   8.626   6.906   9.090 -0.2467 -0.1984  0.3166
  338loPI   C5A 5403   8.378   7.087   8.765 -0.2844  0.0279 -0.0013
  338loPI   C6A 5404   8.175   7.249   8.344  0.0831 -0.0682  0.2038
  338loPI   C1B 5405   9.029   7.205  10.110  0.1703 -0.1141  0.0955
  338loPI   C2B 5406   9.101   7.396   9.722 -0.0398 -0.1104  0.0438
  338loPI   C3B 5407   9.169   7.458   9.230  0.0952 -0.2404 -0.0367
  338loPI   C4B 5408   9.031   7.158   8.957 -0.1228  0.3675  0.0347
  339loPI    C1 5409   2.995   3.278  10.884  0.3214 -0.1968 -0.0339
  339loPI    C2 5410   3.110   2.921  11.021  0.1312 -0.2413  0.0120
  339loPI    C3 5411   2.919   3.176  11.262  0.3557 -0.0668  0.0088
  339loPI   PO4 5412   2.977   3.280  10.661  0.2205 -0.0498 -0.1987
  339loPI   GL1 5413   3.150   3.462  10.300 -0.1374 -0.1728  0.3506
  339loPI   GL2 5414   2.775   3.575  10.327  0.0125  0.2268 -0.2666
  339loPI   C1A 5415   3.196   3.568   9.854  0.0674  0.3463  0.2273
  339loPI   C2A 5416   3.248   3.700   9.443  0.1469 -0.2725 -0.0667
  339loPI   C3A 5417   3.256   3.715   9.009 -0.0569 -0.3268  0.3503
  339loPI   C4A 5418   3.187   3.679   8.632  0.1767 -0.1999 -0.0852
  339loPI   C5A 5419   3.167   4.029   8.323 -0.3589  0.3315 -0.0984
  339loPI   C6A 5420   3.495   4.254   8.192 -0.1439  0.2182 -0.2247
  339loPI   C1B 5421   2.738   3.724   9.946 -0.1058  0.1399  0.0381
  339loPI   C2B 5422   2.725   3.658   9.503  0.1054  0.4902 -0.2931
  339loPI   C3B 5423   2.756   3.714   9.041  0.0808  0.0612 -0.1249
  339loPI   C4B 5424   2.496   3.574   8.674 -0.0134  0.1032 -0.0136
  340loPI    C1 5425   3.297  15.488  11.025  0.0306  0.3242 -0.0205
  340loPI    C2 5426   3.557  15.790  11.062  0.3898  0.0607 -0.3175
  340loPI    C3 5427   3.671  15.416  11.147 -0.0392 -0.0043  0.0097
  340loPI   PO4 5428   3.196  15.583  10.795  0.2248 -0.1638  0.2368
  340loPI   GL1 5429   3.171  15.668  10.351 -0.2890 -0.1139  0.1395
  340loPI   GL2 5430   3.254  15.342  10.226  0.1158 -0.0531  0.1837
  340loPI   C1A 5431   3.053  15.609   9.885 -0.0809  0.0653 -0.0707
  340loPI   C2A 5432   3.112  15.407   9.449  0.3541 -0.3710 -0.1521
  340loPI   C3A 5433   3.150  15.181   9.062 -0.0965 -0.0563 -0.2212
  340loPI   C4A 5434   3.011  15.169   8.649  0.4281 -0.0901  0.1955
  340loPI   C5A 5435   2.972  14.992   8.220 -0.2347 -0.1591 -0.1108
  340loPI   C6A 5436   2.695  14.683   8.186  0.3309  0.1025 -0.0345
  340loPI   C1B 5437   3.419  15.201   9.917  0.0834  0.0843  0.1574
  340loPI   C2B 5438   3.501  15.084   9.528  0.1775 -0.1073  0.1519
  340loPI   C3B 5439   3.627  15.042   9.129 -0.1723 -0.1108  0.2253
  340loPI   C4B 5440   3.884  15.186   8.797 -0.1518 -0.0389  0.1746
  341loPI    C1 5441  12.596  17.937  10.574 -0.0930  0.0812 -0.2379
  341loPI    C2 5442  12.578  17.636  10.836  0.0198  0.1850 -0.1095
  341loPI    C3 5443  12.304  17.927  10.847 -0.0362  0.1351 -0.1749
  341loPI   PO4 5444  12.582  17.883  10.328 -0.1352 -0.1206 -0.2124
  341loPI   GL1 5445  12.952  17.841  10.076 -0.1640  0.2082  0.0107
  341loPI   GL2 5446  12.964  18.155   9.977 -0.4347  0.2446 -0.0119
  341loPI   C1A 5447  12.985  17.560   9.757  0.2505  0.0049  0.2534
  341loPI   C2A 5448  13.123  17.594   9.274 -0.1501  0.1231 -0.0295
  341loPI   C3A 5449  13.219  17.447   8.796 -0.0337 -0.0446  0.0597
  341loPI   C4A 5450  13.272  17.369   8.291 -0.1153 -0.0886 -0.0291
  341loPI   C5A 5451  13.200  17.299   7.924 -0.0555  0.0419 -0.1012
  341loPI   C6A 5452  13.212  16.812   7.734  0.1874 -0.0509  0.0554
  341loPI   C1B 5453  13.107  18.030   9.549  0.0134  0.0552 -0.1581
  341loPI   C2B 5454  13.183  18.147   9.097 -0.3086  0.1795  0.1039
  341loPI   C3B 5455  13.113  18.015   8.808 -0.1375  0.1368 -0.0861
  341loPI   C4B 5456  13.046  17.802   8.442 -0.1755 -0.0193 -0.3562
  342loPI    C1 5457  14.508  17.864  10.958  0.0599  0.0624 -0.0729
  342loPI    C2 5458  14.895  17.951  11.010  0.0332  0.0251  0.1998
  342loPI    C3 5459  14.774  17.570  11.013  0.0462  0.0113 -0.2686
  342loPI   PO4 5460  14.467  18.104  10.713  0.4135 -0.1935 -0.1929
  342loPI   GL1 5461  14.390  18.013  10.319 -0.2350  0.2221 -0.1136
  342loPI   GL2 5462  14.705  18.200  10.253  0.0383  0.1498 -0.1222
  342loPI   C1A 5463  14.120  17.963   9.899 -0.1010 -0.0999  0.0560
  342loPI   C2A 5464  14.135  17.955   9.508  0.1048 -0.1819 -0.1221
  342loPI   C3A 5465  14.130  17.772   9.098  0.1792  0.2702  0.1777
  342loPI   C4A 5466  14.267  17.696   8.612  0.0020  0.1911 -0.2057
  342loPI   C5A 5467  14.350  18.018   8.184  0.1545  0.2689  0.3752
  342loPI   C6A 5468  14.135  18.353   7.932  0.2424 -0.0395  0.3148
  342loPI   C1B 5469  14.502  18.237   9.805 -0.4432 -0.0891  0.2193
  342loPI   C2B 5470  14.518  18.246   9.397  0.0045 -0.2324  0.0447
  342loPI   C3B 5471  14.459  18.110   9.065  0.3084 -0.2754 -0.2103
  342loPI   C4B 5472  14.652  18.046   8.670  0.2557  0.1583 -0.0950
  343loPI    C1 5473   9.607  13.330  10.749 -0.0790 -0.0980  0.0184
  343loPI    C2 5474   9.252  13.423  10.908 -0.0613  0.1784 -0.0991
  343loPI    C3 5475   9.589  13.504  11.108 -0.0639 -0.1232  0.0315
  343loPI   PO4 5476   9.628  13.412  10.597 -0.2300 -0.0896 -0.1514
  343loPI   GL1 5477   9.994  13.302  10.202 -0.0101  0.1483  0.0965
  343loPI   GL2 5478   9.962  12.978  10.238 -0.1061  0.0471  0.0510
  343loPI   C1A 5479  10.108  13.460   9.743  0.3314 -0.0467  0.0093
  343loPI   C2A 5480  10.132  13.662   9.340 -0.0336  0.0419 -0.2779
  343loPI   C3A 5481  10.214  13.835   9.018  0.0274  0.0963 -0.1073
  343loPI   C4A 5482  10.246  13.953   8.649  0.2272 -0.1649  0.2186
  343loPI   C5A 5483  10.075  13.664   8.302  0.1848  0.3656  0.0665
  343loPI   C6A 5484   9.944  13.267   8.223 -0.0249  0.1237  0.1925
  343loPI   C1B 5485   9.984  12.913   9.796  0.2270 -0.0493 -0.0539
  343loPI   C2B 5486  10.015  12.735   9.435  0.0323  0.1388  0.1464
  343loPI   C3B 5487  10.110  12.589   9.074  0.0452  0.1480  0.0601
  343loPI   C4B 5488  10.233  12.571   8.745  0.1640 -0.0428 -0.0217
  344loPI    C1 5489   1.471  10.051  11.325  0.1276 -0.0937  0.0552
  344loPI    C2 5490   1.377   9.770  11.594 -0.1851  0.0679  0.1198
  344loPI    C3 5491   1.611  10.077  11.699 -0.0357 -0.0425  0.1136
  344loPI   PO4 5492   1.426   9.888  11.087  0.3140  0.0508  0.0634
  344loPI   GL1 5493   1.610   9.796  10.719 -0.1872 -0.2162  0.1274
  344loPI   GL2 5494   1.572   9.533  10.574 -0.0702  0.1853 -0.1292
  344loPI   C1A 5495   1.787   9.950  10.425  0.0614 -0.1164 -0.0280
  344loPI   C2A 5496   1.791  10.312  10.170  0.2275 -0.0663 -0.0504
  344loPI   C3A 5497   1.671  10.403   9.647 -0.0217  0.3957  0.0218
  344loPI   C4A 5498   1.736  10.502   9.209 -0.2345 -0.3306 -0.0568
  344loPI   C5A 5499   1.723  10.412   8.771 -0.0050  0.0893  0.0960
  344loPI   C6A 5500   1.480  10.246   8.435  0.4298  0.0372  0.2695
  344loPI   C1B 5501   1.450   9.717  10.138  0.2047 -0.1528  0.0901
  344loPI   C2B 5502   1.415   9.907   9.712 -0.1406  0.0327  0.0805
  344loPI   C3B 5503   1.315  10.127   9.322 -0.1679  0.0658  0.0616
  344loPI   C4B 5504   1.245  10.170   8.852  0.0047 -0.2183  0.1068
  345loPI    C1 5505   1.956  12.216  10.756 -0.1233  0.1959 -0.3047
  345loPI    C2 5506   1.911  12.355  11.129 -0.0201 -0.0192 -0.2099
  345loPI    C3 5507   1.894  11.962  11.059  0.3545 -0.0111 -0.3708
  345loPI   PO4 5508   1.995  12.470  10.597  0.0746  0.1505 -0.0288
  345loPI   GL1 5509   2.068  12.444  10.186 -0.2083 -0.1311 -0.0053
  345loPI   GL2 5510   2.231  12.775  10.102 -0.0701 -0.1065  0.1659
  345loPI   C1A 5511   2.114  12.359   9.733  0.0619  0.1575 -0.3365
  345loPI   C2A 5512   2.094  12.284   9.348 -0.0424  0.1904 -0.1859
  345loPI   C3A 5513   2.335  12.241   8.941 -0.4597  0.0580  0.2960
  345loPI   C4A 5514   2.401  12.014   8.605  0.0087 -0.1308 -0.1356
  345loPI   C5A 5515   2.449  11.622   8.374 -0.0017 -0.2116 -0.0593
  345loPI   C6A 5516   2.666  11.364   8.064  0.0451  0.1367  0.2716
  345loPI   C1B 5517   2.490  12.723   9.651  0.0681  0.0222 -0.0403
  345loPI   C2B 5518   2.598  12.592   9.311  0.1890 -0.2773  0.1968
  345loPI   C3B 5519   2.722  12.673   8.918 -0.1699 -0.1074  0.2100
  345loPI   C4B 5520   2.867  12.981   8.487 -0.2540 -0.2623  0.1987
  346loPI    C1 5521   1.022   2.098  10.723 -0.1428 -0.0064 -0.0197
  346loPI    C2 5522   0.631   2.181  10.721 -0.1521 -0.0495  0.0211
  346loPI    C3 5523   0.755   1.801  10.729 -0.1094 -0.0426 -0.2243
  346loPI   PO4 5524   1.100   2.231  10.489  0.1072 -0.0469  0.1547
  346loPI   GL1 5525   1.189   2.199  10.025 -0.1679 -0.0127  0.2185
  346loPI   GL2 5526   0.945   2.419  10.034  0.2694  0.2315 -0.0095
  346loPI   C1A 5527   0.852   1.969   9.731 -0.1937 -0.0555 -0.0831
  346loPI   C2A 5528   0.801   1.565   9.505 -0.2096  0.2322  0.1620
  346loPI   C3A 5529   0.544   1.365   9.230 -0.1299 -0.2381 -0.1870
  346loPI   C4A 5530   0.396   1.269   8.875 -0.0639  0.0821 -0.1079
  346loPI   C5A 5531   0.383   1.384   8.407 -0.0522 -0.0645 -0.0505
  346loPI   C6A 5532  -0.018   1.438   8.160  0.1495 -0.0983  0.1967
  346loPI   C1B 5533   0.660   2.505   9.705 -0.0632  0.0023 -0.1362
  346loPI   C2B 5534   0.628   2.255   9.422 -0.2902  0.3544  0.0043
  346loPI   C3B 5535   0.746   2.020   9.172 -0.0616 -0.0877  0.0409
  346loPI   C4B 5536   0.548   1.740   8.826  0.2195 -0.2955 -0.0080
  347loPI    C1 5537   7.477  17.727  10.115 -0.0810 -0.0654 -0.1546
  347loPI    C2 5538   7.537  17.820  10.499  0.0550 -0.2369 -0.1327
  347loPI    C3 5539   7.469  18.109  10.231  0.1199 -0.1042 -0.0074
  347loPI   PO4 5540   7.755  17.547  10.014 -0.1241  0.1605  0.2107
  347loPI   GL1 5541   8.253  17.618   9.959 -0.3458  0.0449  0.0053
  347loPI   GL2 5542   8.277  17.933   9.873  0.1989  0.3170  0.3389
  347loPI   C1A 5543   8.154  17.663   9.495 -0.1706  0.0875 -0.2147
  347loPI   C2A 5544   8.090  17.579   9.153 -0.2292  0.0351  0.0334
  347loPI   C3A 5545   7.982  17.602   8.709 -0.1010  0.1916 -0.2619
  347loPI   C4A 5546   7.982  17.372   8.390 -0.1142  0.0184 -0.1174
  347loPI   C5A 5547   7.837  17.329   7.936 -0.3858 -0.1312  0.2397
  347loPI   C6A 5548   7.714  17.132   7.570  0.1298  0.1619 -0.3596
  347loPI   C1B 5549   8.557  18.007   9.617 -0.1024 -0.1339  0.1253
  347loPI   C2B 5550   8.489  17.910   9.199  0.3872 -0.3269 -0.0169
  347loPI   C3B 5551   8.517  17.895   8.850 -0.0944  0.1879  0.1552
  347loPI   C4B 5552   8.364  17.841   8.492  0.3944 -0.1709 -0.0263
  348loPI    C1 5553   6.185  11.619  10.749  0.3147  0.1152 -0.0057
  348loPI    C2 5554   6.190  11.225  10.678 -0.2769  0.0601  0.2036
  348loPI    C3 5555   6.308  11.366  11.033  0.0104  0.0829  0.1014
  348loPI   PO4 5556   6.209  11.724  10.535  0.0420  0.2513 -0.0666
  348loPI   GL1 5557   6.019  11.639  10.141  0.2878  0.2872  0.1812
  348loPI   GL2 5558   6.158  11.272  10.164 -0.0416 -0.1488  0.0385
  348loPI   C1A 5559   5.976  11.655   9.672 -0.0328  0.1250 -0.0603
  348loPI   C2A 5560   5.935  11.697   9.259  0.2786  0.0813 -0.0307
  348loPI   C3A 5561   6.022  11.703   8.744 -0.3664 -0.0830 -0.0116
  348loPI   C4A 5562   5.745  11.717   8.424 -0.1427 -0.2940  0.2567
  348loPI   C5A 5563   5.319  11.755   8.297 -0.3462 -0.2493  0.0995
  348loPI   C6A 5564   5.032  12.099   8.386 -0.3270 -0.0154  0.1436
  348loPI   C1B 5565   6.178  11.205   9.729  0.0705  0.0492 -0.1018
  348loPI   C2B 5566   6.137  11.258   9.332  0.1686  0.3921  0.0807
  348loPI   C3B 5567   6.268  11.119   8.952 -0.2408 -0.2621  0.0306
  348loPI   C4B 5568   6.423  10.972   8.464  0.0230 -0.0702 -0.0236
  349loPI    C1 5569  16.324   7.146  11.124 -0.2278  0.0445  0.0933
  349loPI    C2 5570  16.198   7.115  11.503 -0.2186  0.1721  0.1072
  349loPI    C3 5571  16.129   6.818  11.244 -0.1315  0.0385  0.2356
  349loPI   PO4 5572  16.235   7.354  10.992 -0.1074 -0.0534 -0.2509
  349loPI   GL1 5573  16.200   7.505  10.650 -0.2363 -0.0809 -0.1715
  349loPI   GL2 5574  16.486   7.433  10.532  0.0367 -0.1958 -0.0104
  349loPI   C1A 5575  15.935   7.788  10.383 -0.1032  0.3756  0.0363
  349loPI   C2A 5576  15.897   7.794   9.912 -0.1055  0.0488 -0.0198
  349loPI   C3A 5577  15.887   8.051   9.614 -0.1046 -0.1618  0.0614
  349loPI   C4A 5578  15.711   8.087   9.298  0.0246 -0.2077  0.3142
  349loPI   C5A 5579  15.758   8.084   8.931  0.0564 -0.2397  0.0471
  349loPI   C6A 5580  16.079   8.123   8.666  0.2525 -0.1914 -0.1101
  349loPI   C1B 5581  16.347   7.650  10.064  0.0350  0.1320 -0.0749
  349loPI   C2B 5582  16.250   7.663   9.587  0.1205  0.2146  0.0911
  349loPI   C3B 5583  16.050   7.731   9.242 -0.3532  0.0455  0.1152
  349loPI   C4B 5584  16.017   7.611   8.824  0.2458 -0.1145  0.2377
  350loPI    C1 5585  14.540   4.378  11.140  0.1102 -0.1171  0.0638
  350loPI    C2 5586  14.862   4.564  11.286 -0.0037  0.2069 -0.0875
  350loPI    C3 5587  14.562   4.464  11.530  0.1675 -0.0111  0.0377
  350loPI   PO4 5588  14.647   4.143  11.011 -0.0161  0.1804  0.0394
  350loPI   GL1 5589  14.640   3.941  10.633 -0.1244 -0.3156  0.2633
  350loPI   GL2 5590  14.520   4.142  10.454  0.1480  0.2110  0.0263
  350loPI   C1A 5591  15.021   3.941  10.323  0.1426 -0.4828  0.1237
  350loPI   C2A 5592  15.071   4.099   9.934 -0.0831 -0.1978 -0.4426
  350loPI   C3A 5593  15.058   4.102   9.488  0.1799  0.2542 -0.0690
  350loPI   C4A 5594  14.851   4.110   9.136 -0.2710  0.0492  0.1388
  350loPI   C5A 5595  14.826   4.333   8.812 -0.1234 -0.0715 -0.0066
  350loPI   C6A 5596  14.713   4.340   8.368  0.1064 -0.0795  0.1678
  350loPI   C1B 5597  14.371   4.267  10.129  0.2681  0.0476  0.1996
  350loPI   C2B 5598  14.113   4.603   9.974  0.1150  0.2153 -0.1536
  350loPI   C3B 5599  14.240   4.844   9.749  0.3173  0.1836 -0.0183
  350loPI   C4B 5600  14.239   4.904   9.269  0.3977  0.0332  0.0196
  351loPI    C1 5601   4.464   4.481  10.763 -0.1220 -0.2972  0.0598
  351loPI    C2 5602   4.822   4.541  10.930 -0.0757 -0.2352 -0.0615
  351loPI    C3 5603   4.583   4.252  11.069 -0.0053 -0.2349  0.0612
  351loPI   PO4 5604   4.416   4.717  10.708  0.0066 -0.1653 -0.1111
  351loPI   GL1 5605   4.512   4.845  10.270 -0.1443 -0.1926 -0.1747
  351loPI   GL2 5606   4.419   5.201  10.469 -0.1428  0.3643  0.1423
  351loPI   C1A 5607   4.660   4.959   9.969 -0.4786  0.0586 -0.0578
  351loPI   C2A 5608   4.720   5.093   9.575  0.0113  0.1443 -0.0718
  351loPI   C3A 5609   4.657   5.022   9.205  0.0868 -0.2272 -0.1322
  351loPI   C4A 5610   4.756   4.977   8.715  0.3195 -0.1616 -0.0989
  351loPI   C5A 5611   4.588   5.106   8.314  0.1908  0.1098  0.1443
  351loPI   C6A 5612   4.656   5.035   7.960 -0.1695 -0.0308  0.1721
  351loPI   C1B 5613   4.424   5.402  10.099 -0.2481  0.0167 -0.0181
  351loPI   C2B 5614   4.475   5.508   9.624 -0.1350  0.0018 -0.2052
  351loPI   C3B 5615   4.417   5.443   9.164 -0.0106  0.0957 -0.1165
  351loPI   C4B 5616   4.428   5.389   8.723  0.1771 -0.3765 -0.1359
  352loPI    C1 5617   2.197   8.800  10.911  0.1044 -0.0534 -0.0629
  352loPI    C2 5618   2.183   8.767  11.310 -0.2092  0.1279 -0.0551
  352loPI    C3 5619   2.184   8.438  11.082  0.0910  0.0205  0.0949
  352loPI   PO4 5620   2.306   9.037  10.811  0.0173 -0.1117 -0.0054
  352loPI   GL1 5621   2.683   9.047  10.594 -0.0605  0.0239 -0.2361
  352loPI   GL2 5622   2.991   8.902  10.650 -0.1031 -0.1354 -0.0131
  352loPI   C1A 5623   2.696   9.180  10.100  0.0094  0.2606 -0.3479
  352loPI   C2A 5624   2.700   9.024   9.697 -0.0625 -0.2352  0.1387
  352loPI   C3A 5625   2.587   9.247   9.378  0.0091  0.0117  0.2091
  352loPI   C4A 5626   2.470   9.097   8.968  0.0696 -0.0257 -0.2998
  352loPI   C5A 5627   2.679   8.736   8.737 -0.2359 -0.0768  0.3902
  352loPI   C6A 5628   2.995   8.628   8.414 -0.0362  0.2715  0.0556
  352loPI   C1B 5629   2.858   8.684  10.242  0.0297 -0.0950  0.1861
  352loPI   C2B 5630   2.812   8.472   9.921  0.1135  0.2031 -0.2601
  352loPI   C3B 5631   2.767   8.549   9.508 -0.1933 -0.2625 -0.2367
  352loPI   C4B 5632   2.797   8.722   9.223  0.0694 -0.0241  0.0255
  353loPI    C1 5633   1.235   5.384  10.613  0.3473  0.2007  0.0265
  353loPI    C2 5634   1.101   5.062  10.810 -0.2118  0.2705 -0.2193
  353loPI    C3 5635   1.184   5.399  11.010 -0.3864  0.2172 -0.0531
  353loPI   PO4 5636   0.994   5.376  10.409 -0.2374 -0.0262 -0.0861
  353loPI   GL1 5637   0.757   5.216  10.086 -0.2585  0.1665 -0.0031
  353loPI   GL2 5638   0.505   4.955   9.918 -0.2646 -0.1098 -0.0403
  353loPI   C1A 5639   0.690   5.416   9.729  0.2772  0.1020  0.0179
  353loPI   C2A 5640   0.674   5.470   9.306 -0.2318  0.1661 -0.1285
  353loPI   C3A 5641   0.797   5.441   8.891  0.0440 -0.3029 -0.0623
  353loPI   C4A 5642   0.577   5.504   8.443 -0.0477  0.0640  0.1125
  353loPI   C5A 5643   0.626   5.182   8.125 -0.0341  0.1439 -0.1046
  353loPI   C6A 5644   0.636   4.706   7.917 -0.2150 -0.0145  0.0793
  353loPI   C1B 5645   0.496   4.992   9.471 -0.0632  0.0752  0.0697
  353loPI   C2B 5646   0.569   4.987   8.987  0.1288 -0.2392  0.2624
  353loPI   C3B 5647   0.378   5.028   8.587  0.1547 -0.1066  0.4871
  353loPI   C4B 5648   0.280   4.816   8.256  0.1299  0.0871 -0.1860
  354loPI    C1 5649  16.080   0.657  10.742 -0.1430 -0.1021 -0.1264
  354loPI    C2 5650  15.785   0.410  10.852  0.0199 -0.2504 -0.0167
  354loPI    C3 5651  16.040   0.551  11.126 -0.0125 -0.0364 -0.0941
  354loPI   PO4 5652  16.011   0.736  10.436 -0.1707 -0.0210  0.2391
  354loPI   GL1 5653  16.189   0.729  10.027 -0.0215  0.1145  0.0025
  354loPI   GL2 5654  16.238   0.461   9.948  0.0705  0.2047 -0.0469
  354loPI   C1A 5655  16.107   0.848   9.642  0.1347 -0.0877 -0.1360
  354loPI   C2A 5656  15.902   0.857   9.197 -0.0873 -0.0186  0.0161
  354loPI   C3A 5657  15.843   0.971   8.790  0.0594 -0.0621 -0.0209
  354loPI   C4A 5658  15.756   1.121   8.449  0.1450  0.3237 -0.1637
  354loPI   C5A 5659  15.962   0.949   8.126 -0.2556 -0.1013 -0.0225
  354loPI   C6A 5660  16.217   0.937   7.772  0.1486  0.0099  0.1086
  354loPI   C1B 5661  16.294   0.325   9.558 -0.1291 -0.2685 -0.1872
  354loPI   C2B 5662  16.364   0.398   9.116  0.0393  0.0081  0.1050
  354loPI   C3B 5663  16.237   0.256   8.671  0.0337  0.0483  0.0405
  354loPI   C4B 5664  16.019   0.028   8.254  0.0498  0.0211  0.0334
  355loPI    C1 5665  17.025   2.072  10.583  0.0102 -0.0884  0.0317
  355loPI    C2 5666  17.371   1.996  10.767 -0.1239 -0.0069  0.3235
  355loPI    C3 5667  17.297   2.362  10.623 -0.1025 -0.0152  0.2914
  355loPI   PO4 5668  16.963   1.899  10.382  0.0189  0.0254  0.0397
  355loPI   GL1 5669  16.673   1.899  10.048 -0.0213 -0.4154 -0.2470
  355loPI   GL2 5670  16.485   2.269   9.879  0.3351  0.1484 -0.0259
  355loPI   C1A 5671  16.699   1.786   9.650 -0.0066 -0.1700  0.0452
  355loPI   C2A 5672  16.678   1.779   9.227  0.0290  0.0261 -0.2312
  355loPI   C3A 5673  16.982   1.919   8.847 -0.2118  0.0963  0.3163
  355loPI   C4A 5674  16.870   1.962   8.451 -0.0209 -0.0491 -0.0225
  355loPI   C5A 5675  17.095   2.050   8.121 -0.0718  0.2118  0.1277
  355loPI   C6A 5676  17.170   1.925   7.732  0.1239  0.2441 -0.1103
  355loPI   C1B 5677  16.480   2.206   9.423 -0.2286  0.0096  0.1973
  355loPI   C2B 5678  16.494   2.201   8.953 -0.2986 -0.1612 -0.0406
  355loPI   C3B 5679  16.333   2.043   8.597  0.1429  0.0464  0.0803
  355loPI   C4B 5680  16.097   2.002   8.237  0.1626 -0.0064 -0.0701
  356loPI    C1 5681   4.902   2.393  10.843 -0.1335  0.2043 -0.0024
  356loPI    C2 5682   5.095   2.589  11.133  0.0179 -0.0908  0.1005
  356loPI    C3 5683   4.897   2.252  11.218 -0.1629 -0.0349 -0.0911
  356loPI   PO4 5684   4.762   2.503  10.743  0.3369 -0.0489 -0.2246
  356loPI   GL1 5685   4.554   2.435  10.391 -0.2467 -0.0060  0.0511
  356loPI   GL2 5686   4.720   2.726  10.253 -0.0797  0.1894 -0.0818
  356loPI   C1A 5687   4.758   2.248  10.041  0.0443  0.0913 -0.0589
  356loPI   C2A 5688   4.773   2.339   9.581 -0.2572  0.0596 -0.1143
  356loPI   C3A 5689   4.673   2.432   9.118  0.3265 -0.0131  0.0943
  356loPI   C4A 5690   4.648   2.498   8.727  0.1378  0.0661 -0.2051
  356loPI   C5A 5691   4.539   2.296   8.347 -0.0217  0.0008  0.0604
  356loPI   C6A 5692   4.138   2.389   8.029  0.1891  0.3702  0.2197
  356loPI   C1B 5693   4.785   2.725   9.853 -0.0101  0.0508 -0.0592
  356loPI   C2B 5694   4.900   3.018   9.642 -0.1348 -0.0794  0.1161
  356loPI   C3B 5695   4.949   2.896   9.326 -0.1337 -0.0231 -0.2097
  356loPI   C4B 5696   5.035   2.797   8.860 -0.1358  0.0537 -0.1535
  357loPI    C1 5697   7.698   8.276  10.848  0.2093  0.1921 -0.0797
  357loPI    C2 5698   7.947   8.040  10.643 -0.1437 -0.1655 -0.1102
  357loPI    C3 5699   7.949   8.034  11.043 -0.0080 -0.0607 -0.1084
  357loPI   PO4 5700   7.617   8.445  10.641 -0.2929 -0.1775  0.1218
  357loPI   GL1 5701   7.820   8.386  10.299  0.0427 -0.1302 -0.0944
  357loPI   GL2 5702   7.787   8.227  10.096 -0.2108 -0.1569 -0.0233
  357loPI   C1A 5703   7.892   8.725   9.990 -0.1323  0.0954 -0.1171
  357loPI   C2A 5704   7.816   8.743   9.634 -0.1018  0.2583 -0.2076
  357loPI   C3A 5705   7.796   8.799   9.215 -0.4435  0.0884  0.0002
  357loPI   C4A 5706   7.882   8.833   8.806  0.0863  0.2475  0.1103
  357loPI   C5A 5707   8.237   8.769   8.518 -0.0561 -0.0251  0.3729
  357loPI   C6A 5708   8.598   8.396   8.360 -0.2705  0.1476  0.0566
  357loPI   C1B 5709   7.417   8.135   9.961  0.1097 -0.1681  0.1605
  357loPI   C2B 5710   7.281   8.046   9.631  0.0565 -0.1075 -0.0903
  357loPI   C3B 5711   7.264   7.879   9.354 -0.2818 -0.0288  0.2991
  357loPI   C4B 5712   7.313   7.855   8.891 -0.0865  0.0088  0.1065
  358loPI    C1 5713   1.498   7.453  11.184 -0.0951 -0.0402  0.0258
  358loPI    C2 5714   1.230   7.159  11.225  0.1050 -0.2419 -0.0859
  358loPI    C3 5715   1.599   7.115  11.373  0.0771  0.0367  0.0730
  358loPI   PO4 5716   1.306   7.571  10.913 -0.2403 -0.0488  0.1104
  358loPI   GL1 5717   1.481   7.470  10.558 -0.3410  0.0397  0.0671
  358loPI   GL2 5718   1.471   7.261  10.315 -0.0934  0.1690 -0.0770
  358loPI   C1A 5719   1.399   7.751  10.174 -0.0927  0.2012 -0.0020
  358loPI   C2A 5720   1.367   7.872   9.841  0.1209  0.1343 -0.0204
  358loPI   C3A 5721   1.329   7.988   9.387  0.1630 -0.0425 -0.1997
  358loPI   C4A 5722   1.343   8.150   8.977  0.1450  0.0093 -0.0894
  358loPI   C5A 5723   1.479   8.132   8.610  0.1052 -0.1586  0.1063
  358loPI   C6A 5724   1.586   7.984   8.099  0.0987 -0.2399 -0.3439
  358loPI   C1B 5725   1.336   7.106   9.993 -0.0202 -0.1938  0.0450
  358loPI   C2B 5726   1.596   7.121   9.599 -0.0309 -0.1328 -0.0022
  358loPI   C3B 5727   1.744   7.223   9.129 -0.1370 -0.1565 -0.0939
  358loPI   C4B 5728   1.693   7.085   8.766 -0.1987 -0.2832  0.0946
  359loPI    C1 5729  16.170  12.762  10.910  0.0276 -0.1459 -0.0447
  359loPI    C2 5730  15.937  12.931  11.188 -0.1082  0.1387 -0.3252
  359loPI    C3 5731  16.188  12.636  11.289 -0.1655  0.2275  0.0932
  359loPI   PO4 5732  16.184  13.044  10.760  0.0012 -0.0600 -0.1967
  359loPI   GL1 5733  15.966  13.189  10.337  0.1158 -0.2073  0.1088
  359loPI   GL2 5734  15.739  13.447  10.234 -0.1793  0.0815 -0.0461
  359loPI   C1A 5735  15.924  12.988  10.014 -0.0386 -0.0829 -0.4366
  359loPI   C2A 5736  15.929  12.937   9.580 -0.0917 -0.1771 -0.0982
  359loPI   C3A 5737  15.903  12.782   9.139 -0.1689  0.0062  0.0279
  359loPI   C4A 5738  16.004  12.628   8.739  0.0149 -0.0331 -0.2214
  359loPI   C5A 5739  16.118  12.578   8.386 -0.0717  0.0058  0.3137
  359loPI   C6A 5740  15.947  12.661   7.922  0.1008 -0.0386  0.0752
  359loPI   C1B 5741  15.522  13.314   9.799 -0.0504 -0.1113 -0.0364
  359loPI   C2B 5742  15.491  13.262   9.369 -0.4475 -0.0167  0.1420
  359loPI   C3B 5743  15.491  13.115   8.989 -0.2882 -0.0401  0.2292
  359loPI   C4B 5744  15.604  12.941   8.647  0.1777 -0.0439  0.1449
  360loPI    C1 5745   8.602   3.717  10.660 -0.3261  0.1672 -0.1353
  360loPI    C2 5746   8.640   3.703  11.058  0.1737 -0.2502 -0.1872
  360loPI    C3 5747   8.308   3.564  10.883 -0.1290  0.1073  0.0873
  360loPI   PO4 5748   8.892   3.767  10.596 -0.3518 -0.0672  0.0696
  360loPI   GL1 5749   9.146   3.794  10.232 -0.1788  0.0434  0.0227
  360loPI   GL2 5750   8.889   3.538  10.162  0.2368  0.1242 -0.2288
  360loPI   C1A 5751   9.510   3.809  10.058  0.2022  0.0318  0.1684
  360loPI   C2A 5752   9.645   3.868   9.598  0.0994  0.1434  0.0964
  360loPI   C3A 5753   9.612   4.001   9.171 -0.0603  0.2147 -0.0265
  360loPI   C4A 5754   9.744   4.252   8.758  0.2124  0.0790  0.0408
  360loPI   C5A 5755   9.698   4.236   8.341 -0.1208  0.0279 -0.0627
  360loPI   C6A 5756   9.560   4.384   7.961  0.0365  0.0589  0.0289
  360loPI   C1B 5757   8.929   3.796   9.747 -0.0739  0.0064 -0.0039
  360loPI   C2B 5758   8.828   3.972   9.340 -0.2411  0.1760 -0.1524
  360loPI   C3B 5759   8.739   3.998   8.925 -0.1079 -0.1712  0.1674
  360loPI   C4B 5760   8.490   4.092   8.579  0.0349 -0.1385 -0.0214
  361loPI    C1 5761  15.413   1.809  10.869 -0.0411 -0.2312  0.0037
  361loPI    C2 5762  15.619   1.911  11.197  0.3047 -0.0072 -0.2766
  361loPI    C3 5763  15.475   1.540  11.160  0.1709 -0.0057  0.1716
  361loPI   PO4 5764  15.478   1.869  10.721 -0.1755 -0.1469  0.2493
  361loPI   GL1 5765  15.242   1.973  10.409  0.2047  0.1289  0.1132
  361loPI   GL2 5766  15.449   2.250  10.356  0.1193  0.1470  0.0788
  361loPI   C1A 5767  15.186   1.920  10.031 -0.1925  0.1306  0.4548
  361loPI   C2A 5768  15.155   1.745   9.588 -0.0033  0.2414  0.0512
  361loPI   C3A 5769  15.141   1.561   9.098  0.1681 -0.0223  0.0113
  361loPI   C4A 5770  15.157   1.535   8.709 -0.1988 -0.1147  0.1651
  361loPI   C5A 5771  15.470   1.538   8.331 -0.2392 -0.1475 -0.0563
  361loPI   C6A 5772  15.335   1.617   7.936 -0.2194  0.3272  0.0594
  361loPI   C1B 5773  15.555   2.222   9.953  0.0555  0.0559 -0.0440
  361loPI   C2B 5774  15.482   2.358   9.487 -0.3577  0.0411 -0.1199
  361loPI   C3B 5775  15.627   2.468   9.035  0.0370  0.2042  0.0672
  361loPI   C4B 5776  15.467   2.554   8.492 -0.1480  0.2336 -0.0138
  362loPI    C1 5777   7.041  12.214  10.974  0.2802 -0.0356 -0.1284
  362loPI    C2 5778   7.157  11.832  11.001  0.1018 -0.0854 -0.0535
  362loPI    C3 5779   6.967  12.005  11.308  0.3506  0.1216 -0.0133
  362loPI   PO4 5780   6.879  12.217  10.802  0.0196  0.1500  0.0909
  362loPI   GL1 5781   6.844  12.317  10.459  0.2593  0.0424  0.0884
  362loPI   GL2 5782   7.068  12.466  10.216  0.1705  0.1195 -0.0604
  362loPI   C1A 5783   6.612  12.220  10.134  0.0116  0.4403  0.0459
  362loPI   C2A 5784   6.352  12.137   9.740 -0.2689  0.1877 -0.2377
  362loPI   C3A 5785   6.266  12.126   9.405 -0.1579  0.1869 -0.1204
  362loPI   C4A 5786   6.080  12.135   8.901 -0.2856 -0.3985 -0.1109
  362loPI   C5A 5787   6.289  12.091   8.447  0.1722  0.0470  0.1835
  362loPI   C6A 5788   6.247  11.733   8.166  0.3021  0.4289 -0.2637
  362loPI   C1B 5789   6.967  12.300   9.762  0.1760 -0.0329  0.0582
  362loPI   C2B 5790   6.813  12.048   9.472 -0.0573  0.0326  0.0025
  362loPI   C3B 5791   6.671  11.982   9.115 -0.2045  0.2552  0.0373
  362loPI   C4B 5792   6.686  11.980   8.703 -0.0223  0.1758 -0.0980
  363loPI    C1 5793   8.589   7.253  10.855 -0.1485 -0.2203 -0.1593
  363loPI    C2 5794   8.197   7.262  10.935 -0.0887  0.0920  0.1220
  363loPI    C3 5795   8.462   7.257  11.234  0.1254 -0.0859 -0.0662
  363loPI   PO4 5796   8.641   7.425  10.653 -0.0446  0.1308  0.1237
  363loPI   GL1 5797   8.625   7.639  10.270 -0.1922  0.2220  0.2567
  363loPI   GL2 5798   8.923   7.702  10.250 -0.0252  0.1126  0.0326
  363loPI   C1A 5799   8.571   7.717   9.859  0.1712  0.2776 -0.4686
  363loPI   C2A 5800   8.779   7.796   9.491  0.4058  0.0521  0.2194
  363loPI   C3A 5801   8.832   7.774   9.045  0.3717 -0.3355 -0.1616
  363loPI   C4A 5802   9.035   7.619   8.657 -0.1317  0.4568 -0.0707
  363loPI   C5A 5803   9.066   7.248   8.356  0.0628 -0.0964 -0.1253
  363loPI   C6A 5804   9.492   7.057   8.193  0.2261 -0.0176  0.0326
  363loPI   C1B 5805   9.070   7.901   9.962  0.0771 -0.1946  0.0467
  363loPI   C2B 5806   9.257   7.955   9.519 -0.2845 -0.0879  0.2871
  363loPI   C3B 5807   9.329   7.984   9.097 -0.4580  0.0717  0.1151
  363loPI   C4B 5808   9.395   7.987   8.695  0.0042  0.1069  0.4248
  364loPI    C1 5809   6.886   5.638  11.173 -0.0241  0.2175  0.1583
  364loPI    C2 5810   7.056   5.973  11.310 -0.0377  0.1779  0.2725
  364loPI    C3 5811   7.148   5.620  11.474  0.1138  0.1041  0.0330
  364loPI   PO4 5812   6.902   5.689  10.849  0.0450 -0.1006 -0.2888
  364loPI   GL1 5813   6.782   5.827  10.388  0.0049 -0.3351  0.0732
  364loPI   GL2 5814   6.696   6.091  10.336 -0.0348 -0.0874 -0.2317
  364loPI   C1A 5815   6.637   5.586  10.028  0.0982 -0.1499  0.1911
  364loPI   C2A 5816   6.723   5.559   9.646 -0.0552  0.0058 -0.0390
  364loPI   C3A 5817   6.780   5.587   9.314 -0.0670 -0.1251  0.1991
  364loPI   C4A 5818   6.731   5.405   8.896  0.0548 -0.0928 -0.0737
  364loPI   C5A 5819   6.651   5.390   8.463  0.0428  0.1487 -0.1378
  364loPI   C6A 5820   6.220   5.427   8.379  0.1203  0.3072 -0.0168
  364loPI   C1B 5821   6.558   6.081   9.914  0.1716 -0.2302  0.1291
  364loPI   C2B 5822   6.481   6.035   9.434  0.0884 -0.2121  0.0597
  364loPI   C3B 5823   6.587   5.971   9.014  0.0801 -0.2241  0.1211
  364loPI   C4B 5824   6.670   6.250   8.640 -0.1773 -0.2086  0.0997
  365loPI    C1 5825   0.942   6.992  10.508 -0.0961  0.0203 -0.0065
  365loPI    C2 5826   0.861   7.037  10.119  0.1288  0.1537 -0.0396
  365loPI    C3 5827   1.017   6.694  10.252 -0.1514  0.0276 -0.0310
  365loPI   PO4 5828   1.058   7.162  10.589  0.0007 -0.2212  0.3726
  365loPI   GL1 5829   1.000   7.528  10.384 -0.1652 -0.0878 -0.0386
  365loPI   GL2 5830   0.796   7.616  10.483  0.1210  0.2098  0.2320
  365loPI   C1A 5831   0.997   7.503   9.985 -0.0613  0.0829  0.0796
  365loPI   C2A 5832   1.208   7.466   9.580 -0.3644  0.1908 -0.0722
  365loPI   C3A 5833   1.273   7.518   9.222  0.0977 -0.0509  0.1739
  365loPI   C4A 5834   1.424   7.487   8.839  0.1048 -0.3124  0.1720
  365loPI   C5A 5835   1.316   7.657   8.513  0.0611 -0.3758  0.2561
  365loPI   C6A 5836   1.075   8.033   8.296 -0.0107 -0.0227  0.0261
  365loPI   C1B 5837   0.996   7.984  10.326  0.1251  0.2687  0.1116
  365loPI   C2B 5838   1.356   8.271  10.179 -0.0910  0.0557 -0.0571
  365loPI   C3B 5839   1.359   8.457   9.759 -0.0316  0.0705 -0.3272
  365loPI   C4B 5840   1.334   8.499   9.373  0.0870  0.0229 -0.0001
  366loPI    C1 5841  15.424   7.340  11.423 -0.3818  0.0263  0.0190
  366loPI    C2 5842  15.647   7.039  11.283 -0.3148  0.1495 -0.1426
  366loPI    C3 5843  15.374   6.970  11.568 -0.0837 -0.0059  0.0453
  366loPI   PO4 5844  15.376   7.423  11.147  0.0101  0.1584 -0.1211
  366loPI   GL1 5845  15.319   7.270  10.726  0.0191 -0.0373 -0.1596
  366loPI   GL2 5846  15.105   7.435  10.678 -0.1821 -0.0176 -0.1629
  366loPI   C1A 5847  15.585   7.180  10.362 -0.4079 -0.1979  0.1706
  366loPI   C2A 5848  15.675   7.334  10.031  0.0876 -0.2320  0.0424
  366loPI   C3A 5849  15.671   7.555   9.607  0.2726  0.0489 -0.2033
  366loPI   C4A 5850  15.543   7.564   9.180  0.0067 -0.0035  0.0184
  366loPI   C5A 5851  15.408   7.732   8.766  0.1954  0.0718  0.0919
  366loPI   C6A 5852  15.689   7.865   8.425 -0.2934 -0.5003 -0.1329
  366loPI   C1B 5853  15.089   7.386  10.240 -0.0419  0.0516  0.3622
  366loPI   C2B 5854  15.198   7.443   9.799 -0.0390  0.2166 -0.0431
  366loPI   C3B 5855  15.082   7.478   9.409  0.0413  0.1743 -0.0658
  366loPI   C4B 5856  14.953   7.497   8.996 -0.0513 -0.3249 -0.2563
  367loPI    C1 5857  14.889   5.080  11.218  0.0959 -0.2522 -0.0580
  367loPI    C2 5858  14.718   4.940  10.885 -0.1866  0.1377 -0.0837
  367loPI    C3 5859  14.522   4.922  11.233  0.0521 -0.1425  0.0409
  367loPI   PO4 5860  15.037   5.305  11.091 -0.1856  0.0239  0.2602
  367loPI   GL1 5861  15.035   5.374  10.654 -0.3678  0.1303 -0.0331
  367loPI   GL2 5862  14.738   5.395  10.664  0.4073 -0.2463 -0.1474
  367loPI   C1A 5863  15.228   5.437  10.296  0.2287 -0.0685  0.2417
  367loPI   C2A 5864  15.168   5.260   9.894  0.3739 -0.2097 -0.0670
  367loPI   C3A 5865  15.165   5.240   9.463 -0.1551  0.6641  0.0895
  367loPI   C4A 5866  15.158   5.389   9.094 -0.0232  0.0209 -0.0340
  367loPI   C5A 5867  15.435   5.474   8.812  0.2452  0.2216 -0.1345
  367loPI   C6A 5868  15.818   5.669   8.650 -0.2846 -0.1053 -0.2415
  367loPI   C1B 5869  14.627   5.339  10.274 -0.1196  0.3415 -0.0231
  367loPI   C2B 5870  14.337   5.321  10.010 -0.1016 -0.2251  0.3799
  367loPI   C3B 5871  13.967   5.335   9.665  0.0851 -0.0435 -0.0828
  367loPI   C4B 5872  13.625   5.419   9.449  0.1019  0.0049 -0.0349
  368loPI    C1 5873   4.853   6.967  11.101 -0.1240  0.0230 -0.1302
  368loPI    C2 5874   4.455   7.003  11.126 -0.1237 -0.1226  0.1204
  368loPI    C3 5875   4.649   6.757  11.374  0.1251 -0.0437  0.0072
  368loPI   PO4 5876   4.842   6.966  10.791 -0.2100 -0.0521 -0.1248
  368loPI   GL1 5877   4.949   6.899  10.383  0.2851  0.2749 -0.1481
  368loPI   GL2 5878   5.200   7.115  10.300  0.0992 -0.0910  0.0603
  368loPI   C1A 5879   4.810   6.729   9.916 -0.1243 -0.1354  0.1565
  368loPI   C2A 5880   4.824   6.772   9.509 -0.0753  0.1654  0.1967
  368loPI   C3A 5881   4.842   6.676   9.140  0.0694 -0.1001 -0.4406
  368loPI   C4A 5882   4.791   6.795   8.766 -0.0578  0.1546  0.0810
  368loPI   C5A 5883   4.605   6.777   8.459 -0.0432  0.1187 -0.1499
  368loPI   C6A 5884   4.626   6.420   8.153 -0.1461 -0.0724 -0.1103
  368loPI   C1B 5885   5.154   7.209   9.921 -0.0077  0.1123 -0.1856
  368loPI   C2B 5886   5.091   7.163   9.438 -0.2235 -0.0863 -0.1184
  368loPI   C3B 5887   5.127   7.199   8.956  0.0030 -0.0571 -0.2068
  368loPI   C4B 5888   5.138   7.100   8.579 -0.1114  0.1428 -0.1844
  369loPI    C1 5889   5.113  12.666  10.773  0.1797  0.1871 -0.2858
  369loPI    C2 5890   5.301  12.564  11.111 -0.1678 -0.1297 -0.1810
  369loPI    C3 5891   5.362  12.925  10.949  0.0795 -0.0119  0.1625
  369loPI   PO4 5892   5.158  12.491  10.633 -0.2449  0.0855 -0.0646
  369loPI   GL1 5893   5.115  12.498  10.299  0.0488  0.0463  0.1752
  369loPI   GL2 5894   5.191  12.199  10.239 -0.1581  0.1273 -0.0628
  369loPI   C1A 5895   5.066  12.837   9.951  0.0135  0.0818  0.2962
  369loPI   C2A 5896   5.082  12.809   9.503  0.3493  0.0737 -0.0165
  369loPI   C3A 5897   5.180  12.743   9.118  0.0605 -0.3854 -0.0208
  369loPI   C4A 5898   5.150  13.004   8.739 -0.0554  0.0992 -0.2458
  369loPI   C5A 5899   5.086  13.314   8.487  0.1023 -0.0815 -0.1327
  369loPI   C6A 5900   5.200  13.592   8.086 -0.0763 -0.1858  0.1529
  369loPI   C1B 5901   5.232  12.301   9.804  0.1754 -0.1073  0.0354
  369loPI   C2B 5902   5.228  12.230   9.452 -0.0927  0.1205  0.0264
  369loPI   C3B 5903   5.017  12.151   9.046 -0.1385  0.2336  0.1402
  369loPI   C4B 5904   5.098  11.832   8.791  0.1303 -0.0747  0.0895
  370loPI    C1 5905   0.669   8.763  10.937  0.0828 -0.0900 -0.1192
  370loPI    C2 5906   0.902   8.684  11.252 -0.0372  0.1639  0.0372
  370loPI    C3 5907   0.623   8.969  11.277 -0.0681  0.1663 -0.2911
  370loPI   PO4 5908   0.825   8.817  10.725 -0.0593 -0.0488  0.0398
  370loPI   GL1 5909   1.010   8.725  10.405 -0.0873 -0.1690  0.0679
  370loPI   GL2 5910   0.931   8.465  10.364  0.1698  0.1437 -0.0130
  370loPI   C1A 5911   1.038   8.805   9.974 -0.0812 -0.1490  0.1588
  370loPI   C2A 5912   1.088   8.832   9.614 -0.2517 -0.0845 -0.2637
  370loPI   C3A 5913   1.021   8.756   9.076  0.1556 -0.0418 -0.0730
  370loPI   C4A 5914   0.974   8.838   8.624 -0.4771 -0.2997 -0.0000
  370loPI   C5A 5915   0.727   9.241   8.406  0.0391 -0.0666 -0.0658
  370loPI   C6A 5916   0.643   9.720   8.129  0.3966  0.3194  0.2703
  370loPI   C1B 5917   0.912   8.281   9.919  0.2780 -0.0202 -0.2485
  370loPI   C2B 5918   0.912   8.353   9.525  0.1716 -0.0459  0.2608
  370loPI   C3B 5919   0.826   8.280   9.092 -0.0187 -0.2925  0.2094
  370loPI   C4B 5920   1.025   8.310   8.688  0.2080 -0.5435  0.0506
  371loPI    C1 5921   6.197  14.948  10.699  0.0450  0.0521  0.0783
  371loPI    C2 5922   6.325  15.298  10.846 -0.0410  0.0812  0.0844
  371loPI    C3 5923   6.128  15.041  11.082  0.2034 -0.0626  0.1361
  371loPI   PO4 5924   6.255  14.948  10.509  0.2248  0.1376  0.2763
  371loPI   GL1 5925   6.140  14.932  10.045  0.0340 -0.0797  0.2574
  371loPI   GL2 5926   5.857  14.787  10.111 -0.1803 -0.1706  0.0736
  371loPI   C1A 5927   6.111  14.700   9.594  0.3815  0.0117 -0.2125
  371loPI   C2A 5928   6.196  14.702   9.170  0.0293 -0.1226  0.0771
  371loPI   C3A 5929   6.364  14.749   8.732  0.1433 -0.1246 -0.1448
  371loPI   C4A 5930   6.219  14.814   8.311  0.0240 -0.4097 -0.0893
  371loPI   C5A 5931   6.078  14.974   7.962  0.1990  0.0937 -0.0221
  371loPI   C6A 5932   6.104  15.194   7.591 -0.1232 -0.2046 -0.0233
  371loPI   C1B 5933   5.627  14.492   9.933  0.1432 -0.0398  0.4358
  371loPI   C2B 5934   5.276  14.549   9.659  0.0201  0.0508  0.0271
  371loPI   C3B 5935   5.070  14.735   9.331 -0.2143 -0.0890  0.1232
  371loPI   C4B 5936   5.256  15.108   9.271 -0.3159  0.1378 -0.0271
  372loPI    C1 5937   9.565   3.245  10.853 -0.0825 -0.0584  0.0728
  372loPI    C2 5938   9.260   3.070  11.044 -0.2039  0.0651 -0.0056
  372loPI    C3 5939   9.623   3.079  11.212 -0.1934 -0.2662 -0.0039
  372loPI   PO4 5940   9.560   3.178  10.643 -0.0636  0.0542  0.5708
  372loPI   GL1 5941   9.755   2.876  10.361  0.0093 -0.1488 -0.3678
  372loPI   GL2 5942   9.987   2.711  10.385 -0.2375  0.0928 -0.1784
  372loPI   C1A 5943   9.758   2.919   9.950  0.1243  0.5183 -0.0444
  372loPI   C2A 5944   9.758   2.937   9.562  0.1477  0.0090  0.1182
  372loPI   C3A 5945   9.664   2.946   9.107  0.3272 -0.1370 -0.1885
  372loPI   C4A 5946   9.417   2.960   8.718  0.0401 -0.4578  0.3917
  372loPI   C5A 5947   9.217   2.954   8.326 -0.1562  0.0366 -0.1810
  372loPI   C6A 5948   9.103   2.576   8.063 -0.1059  0.0673  0.0618
  372loPI   C1B 5949  10.110   2.498   9.937  0.0732 -0.1804 -0.0343
  372loPI   C2B 5950  10.085   2.462   9.503  0.0301  0.0049 -0.0144
  372loPI   C3B 5951  10.287   2.545   9.108 -0.1044  0.0909  0.0610
  372loPI   C4B 5952  10.230   2.501   8.680  0.0577  0.2766  0.1250
  373loPI    C1 5953   6.658   4.629  11.141 -0.0685 -0.0481 -0.1548
  373loPI    C2 5954   6.487   4.290  11.267 -0.0186 -0.0790 -0.1700
  373loPI    C3 5955   6.748   4.481  11.502 -0.0514 -0.0477 -0.1589
  373loPI   PO4 5956   6.648   4.614  10.872  0.2168  0.0091  0.0021
  373loPI   GL1 5957   6.627   4.370  10.486 -0.0435 -0.1638  0.0754
  373loPI   GL2 5958   6.672   4.620  10.302  0.2451  0.0632 -0.1883
  373loPI   C1A 5959   6.590   4.050  10.045 -0.1335 -0.1336 -0.2362
  373loPI   C2A 5960   6.635   3.928   9.670  0.3070 -0.4053  0.1347
  373loPI   C3A 5961   6.497   3.876   9.200 -0.3522  0.4008 -0.2514
  373loPI   C4A 5962   6.481   3.847   8.726  0.2012  0.0585  0.1232
  373loPI   C5A 5963   6.472   4.197   8.476 -0.0757 -0.1338  0.0010
  373loPI   C6A 5964   6.718   4.448   8.202  0.2355  0.1648  0.1678
  373loPI   C1B 5965   6.796   4.796   9.988  0.0759  0.1050 -0.1232
  373loPI   C2B 5966   6.669   4.867   9.644  0.0499 -0.1824 -0.0122
  373loPI   C3B 5967   6.668   5.044   9.260 -0.0615 -0.1769  0.0567
  373loPI   C4B 5968   6.406   5.068   8.876 -0.0069 -0.1531 -0.1990
  374loPI    C1 5969   3.389   1.198  10.719 -0.3232 -0.3176 -0.0176
  374loPI    C2 5970   3.136   1.205  11.029 -0.1286 -0.2185  0.1410
  374loPI    C3 5971   3.526   1.139  11.090 -0.1080 -0.3272 -0.0974
  374loPI   PO4 5972   3.428   1.060  10.584  0.0196  0.0318 -0.0492
  374loPI   GL1 5973   3.223   1.066  10.228  0.2517  0.0476 -0.0440
  374loPI   GL2 5974   3.350   1.304   9.899 -0.1785 -0.1632 -0.2821
  374loPI   C1A 5975   3.372   0.828   9.911 -0.1626 -0.0424 -0.0309
  374loPI   C2A 5976   3.463   0.751   9.446 -0.0658  0.0589  0.0605
  374loPI   C3A 5977   3.647   0.868   9.082  0.2033 -0.3011 -0.5142
  374loPI   C4A 5978   3.857   1.200   8.762  0.1168  0.1825 -0.1040
  374loPI   C5A 5979   3.536   1.367   8.384  0.0291 -0.0761  0.0755
  374loPI   C6A 5980   3.191   1.125   8.150 -0.0233  0.2184 -0.0278
  374loPI   C1B 5981   3.086   1.091   9.558  0.0008 -0.0961  0.2973
  374loPI   C2B 5982   3.098   0.947   9.160  0.0470  0.1551  0.1963
  374loPI   C3B 5983   3.191   0.967   8.670 -0.1996  0.0451  0.4427
  374loPI   C4B 5984   3.493   0.878   8.425  0.0008 -0.1183  0.1843
  375loPI    C1 5985  10.959   7.331  11.218  0.0078  0.1116 -0.0799
  375loPI    C2 5986  10.682   7.619  11.212 -0.2052 -0.0852  0.1040
  375loPI    C3 5987  10.860   7.520  11.556  0.0429 -0.0104 -0.0006
  375loPI   PO4 5988  11.140   7.307  10.966  0.0955 -0.2041 -0.1927
  375loPI   GL1 5989  11.026   7.208  10.491 -0.2120 -0.3092  0.0317
  375loPI   GL2 5990  10.775   7.176  10.358 -0.2294  0.4146 -0.1289
  375loPI   C1A 5991  11.180   7.011  10.092 -0.0751 -0.0628  0.0959
  375loPI   C2A 5992  11.353   6.967   9.719  0.1706  0.0286  0.0517
  375loPI   C3A 5993  11.385   6.945   9.280  0.1052 -0.3153  0.1047
  375loPI   C4A 5994  11.738   6.982   8.962  0.3232 -0.1648  0.3748
  375loPI   C5A 5995  12.062   7.004   8.591  0.0103 -0.0460 -0.4201
  375loPI   C6A 5996  12.452   7.064   8.617 -0.0577 -0.2078  0.3526
  375loPI   C1B 5997  10.877   7.368   9.937 -0.3696  0.1145 -0.0876
  375loPI   C2B 5998  11.079   7.320   9.512 -0.1640 -0.3777  0.1757
  375loPI   C3B 5999  11.046   7.299   9.086  0.1522 -0.0504  0.1518
  375loPI   C4B 6000  11.119   7.284   8.621  0.3731 -0.2903 -0.1486
  376loPI    C1 6001  17.102   6.687  10.613 -0.1253 -0.0536 -0.1548
  376loPI    C2 6002  17.027   6.491  10.953  0.1237  0.1120 -0.0008
  376loPI    C3 6003  17.168   6.865  10.965  0.2463  0.0776 -0.2854
  376loPI   PO4 6004  16.884   6.654  10.461 -0.1587  0.2424 -0.0613
  376loPI   GL1 6005  16.715   6.385  10.191 -0.0388  0.5251  0.1924
  376loPI   GL2 6006  16.372   6.386  10.239  0.1773  0.0757  0.0084
  376loPI   C1A 6007  16.667   6.542   9.794 -0.2197 -0.1178 -0.0168
  376loPI   C2A 6008  16.644   6.537   9.370  0.1242  0.0341  0.2347
  376loPI   C3A 6009  16.717   6.428   8.955 -0.0751  0.2428  0.1007
  376loPI   C4A 6010  16.515   6.361   8.548 -0.1771 -0.2669  0.2079
  376loPI   C5A 6011  16.361   6.236   8.156  0.2747  0.3484  0.1891
  376loPI   C6A 6012  16.344   6.360   7.724 -0.2244  0.3954  0.1251
  376loPI   C1B 6013  16.205   6.250   9.757  0.0255  0.0462  0.1313
  376loPI   C2B 6014  16.013   5.914   9.494 -0.1566  0.1563  0.0454
  376loPI   C3B 6015  16.167   5.699   9.197  0.0513 -0.1660  0.1256
  376loPI   C4B 6016  16.256   5.516   8.813  0.0099 -0.1837  0.0885
  377loPI    C1 6017   5.406   4.580  10.775 -0.1957  0.2109  0.2491
  377loPI    C2 6018   5.347   4.670  11.160 -0.0445 -0.0686  0.3405
  377loPI    C3 6019   5.523   4.325  11.060 -0.3069 -0.1121  0.0121
  377loPI   PO4 6020   5.212   4.597  10.643  0.0925 -0.1566 -0.1244
  377loPI   GL1 6021   4.869   4.464  10.455 -0.0949 -0.1057  0.0904
  377loPI   GL2 6022   4.942   4.561  10.164  0.3007 -0.0478 -0.1129
  377loPI   C1A 6023   4.701   4.093  10.087 -0.0289  0.1782 -0.0635
  377loPI   C2A 6024   4.624   4.075   9.664 -0.0673  0.2007 -0.1072
  377loPI   C3A 6025   4.625   4.085   9.202  0.1255  0.2567  0.1732
  377loPI   C4A 6026   4.567   4.121   8.686 -0.1033  0.0810 -0.0893
  377loPI   C5A 6027   4.360   4.103   8.280  0.0674  0.0580  0.2132
  377loPI   C6A 6028   4.202   3.882   7.950  0.0396 -0.0738  0.1198
  377loPI   C1B 6029   4.953   4.511   9.801  0.1122  0.0999  0.1156
  377loPI   C2B 6030   4.893   4.631   9.392  0.0708 -0.1681 -0.1640
  377loPI   C3B 6031   4.845   4.554   8.931 -0.1700  0.0656 -0.1500
  377loPI   C4B 6032   4.871   4.483   8.441 -0.0569 -0.0764 -0.0764
  378loPI    C1 6033   0.894  17.216  10.370 -0.0423 -0.0660  0.0916
  378loPI    C2 6034   0.998  17.521  10.606  0.0079  0.0896 -0.1286
  378loPI    C3 6035   1.129  17.152  10.687  0.0594  0.1482  0.0607
  378loPI   PO4 6036   0.966  17.280  10.066 -0.0047 -0.1767 -0.1843
  378loPI   GL1 6037   0.632  17.429   9.767  0.1477 -0.1652 -0.1700
  378loPI   GL2 6038   0.685  17.147   9.650  0.1713  0.3122 -0.0874
  378loPI   C1A 6039   0.254  17.430   9.508 -0.0155 -0.2844 -0.0239
  378loPI   C2A 6040   0.080  17.251   9.180 -0.0713  0.2745 -0.3353
  378loPI   C3A 6041   0.119  17.249   8.724 -0.2234  0.1659 -0.1339
  378loPI   C4A 6042   0.013  17.261   8.244  0.1161 -0.0945 -0.1295
  378loPI   C5A 6043  -0.512  17.354   8.054  0.5629  0.0112  0.1133
  378loPI   C6A 6044  -0.703  17.214   7.704  0.2524  0.0710 -0.1251
  378loPI   C1B 6045   0.607  17.123   9.294 -0.1934  0.0584  0.1319
  378loPI   C2B 6046   0.549  17.010   8.868  0.0112  0.0203 -0.2008
  378loPI   C3B 6047   0.483  17.027   8.345  0.2073  0.3116  0.3930
  378loPI   C4B 6048   0.209  16.747   8.069  0.0039  0.1352 -0.0031
  379loPI    C1 6049  12.107  10.812  11.425 -0.0618 -0.3116 -0.2905
  379loPI    C2 6050  11.910  10.589  11.693 -0.0337 -0.2442 -0.2134
  379loPI    C3 6051  11.824  10.978  11.654  0.1896 -0.1783 -0.0708
  379loPI   PO4 6052  12.279  10.655  11.210  0.0896 -0.1610 -0.1274
  379loPI   GL1 6053  12.496  10.404  10.835 -0.2955  0.1015  0.1094
  379loPI   GL2 6054  12.168  10.537  10.714  0.0009  0.2695 -0.2644
  379loPI   C1A 6055  12.570  10.348  10.468 -0.0120  0.1168 -0.0157
  379loPI   C2A 6056  12.631  10.256  10.005 -0.0819 -0.1434 -0.2120
  379loPI   C3A 6057  12.714  10.279   9.541 -0.3006 -0.0982 -0.3420
  379loPI   C4A 6058  12.703  10.280   9.061 -0.0679  0.0574 -0.0683
  379loPI   C5A 6059  12.938  10.162   8.709  0.0806  0.1183  0.2560
  379loPI   C6A 6060  13.059   9.992   8.228 -0.1401  0.1765 -0.0068
  379loPI   C1B 6061  11.861  10.535  10.339  0.0261 -0.0545 -0.0637
  379loPI   C2B 6062  11.817  10.605   9.866 -0.0576  0.0778  0.2486
  379loPI   C3B 6063  11.818  10.615   9.356  0.0801  0.0318 -0.2369
  379loPI   C4B 6064  11.832  10.528   8.939 -0.0585 -0.0685  0.1004
  380loPI    C1 6065   0.659   8.138  10.640  0.0368 -0.0683 -0.0673
  380loPI    C2 6066   0.921   8.314  10.886  0.0931  0.0333 -0.1986
  380loPI    C3 6067   0.880   7.916  10.889 -0.1828  0.0577  0.2472
  380loPI   PO4 6068   0.495   8.248  10.656  0.1927  0.0597  0.0698
  380loPI   GL1 6069   0.224   8.255  10.315 -0.0447 -0.0200 -0.0368
  380loPI   GL2 6070   0.454   8.448  10.180 -0.3315  0.0577 -0.2008
  380loPI   C1A 6071  -0.001   8.195   9.987  0.0684 -0.2178  0.1149
  380loPI   C2A 6072  -0.058   8.030   9.680  0.2009  0.0518  0.0833
  380loPI   C3A 6073  -0.129   8.106   9.289 -0.0483  0.2658  0.0534
  380loPI   C4A 6074  -0.280   8.142   8.920 -0.0042  0.2269 -0.1115
  380loPI   C5A 6075  -0.304   7.870   8.488 -0.2876 -0.2031 -0.0708
  380loPI   C6A 6076   0.079   7.832   8.192  0.0754 -0.2002  0.1164
  380loPI   C1B 6077   0.391   8.254   9.718 -0.1489  0.1044  0.0472
  380loPI   C2B 6078   0.386   8.142   9.325 -0.0617 -0.1161  0.2267
  380loPI   C3B 6079   0.249   8.030   8.892 -0.1833  0.2216 -0.1774
  380loPI   C4B 6080   0.087   8.148   8.592  0.2605  0.0673  0.0678
  381loPI    C1 6081   1.555  16.486  10.555 -0.0238 -0.0606 -0.0021
  381loPI    C2 6082   1.782  16.197  10.713 -0.0734 -0.1299 -0.0571
  381loPI    C3 6083   1.506  16.379  10.938  0.0729 -0.0074  0.0254
  381loPI   PO4 6084   1.435  16.396  10.400  0.1364 -0.1649 -0.3504
  381loPI   GL1 6085   1.510  16.528   9.978 -0.0240  0.1315  0.2922
  381loPI   GL2 6086   1.776  16.735   9.883 -0.0926 -0.0584 -0.1711
  381loPI   C1A 6087   1.397  16.526   9.465 -0.1289 -0.1145  0.0964
  381loPI   C2A 6088   1.589  16.599   9.097  0.0110 -0.0066  0.2863
  381loPI   C3A 6089   1.680  16.450   8.653  0.1553 -0.0967  0.1603
  381loPI   C4A 6090   1.890  16.217   8.390  0.0173  0.0270  0.0215
  381loPI   C5A 6091   2.280  16.104   8.159  0.0455  0.0982  0.0733
  381loPI   C6A 6092   2.504  15.805   7.875 -0.2715 -0.1577 -0.2419
  381loPI   C1B 6093   1.897  16.750   9.443  0.2503 -0.1287  0.3776
  381loPI   C2B 6094   2.020  16.911   9.005  0.1437  0.0174  0.0023
  381loPI   C3B 6095   2.059  16.813   8.515  0.0268 -0.0852 -0.0701
  381loPI   C4B 6096   2.105  16.825   8.108 -0.1839 -0.2793  0.0583
  382loPI    C1 6097   6.405  12.064  11.003 -0.1435 -0.1570 -0.1154
  382loPI    C2 6098   6.372  12.195  10.627 -0.1035  0.0286 -0.0551
  382loPI    C3 6099   6.043  12.111  10.839 -0.1417  0.3204  0.0050
  382loPI   PO4 6100   6.605  11.786  10.926 -0.1776  0.1389  0.0472
  382loPI   GL1 6101   6.652  11.805  10.404 -0.1749 -0.1407 -0.1255
  382loPI   GL2 6102   6.591  11.439  10.361  0.1943  0.2126  0.0435
  382loPI   C1A 6103   6.949  11.875  10.049  0.2469 -0.0453  0.1657
  382loPI   C2A 6104   7.218  11.824   9.758  0.1230 -0.0118 -0.2570
  382loPI   C3A 6105   7.341  11.848   9.348  0.0859 -0.0199 -0.0217
  382loPI   C4A 6106   7.245  11.945   8.908 -0.0954  0.2662 -0.1172
  382loPI   C5A 6107   7.160  12.113   8.559 -0.0562  0.1687  0.2806
  382loPI   C6A 6108   6.882  12.016   8.231  0.0312 -0.2537  0.0857
  382loPI   C1B 6109   6.503  11.575   9.888  0.0308 -0.0470 -0.1337
  382loPI   C2B 6110   6.423  11.627   9.464 -0.1161 -0.1434  0.0965
  382loPI   C3B 6111   6.592  11.477   9.026 -0.2660 -0.3395  0.1034
  382loPI   C4B 6112   6.436  11.483   8.534  0.2393  0.1821 -0.0358
  383loPI    C1 6113  15.315   3.694  11.151 -0.2319  0.1080 -0.1425
  383loPI    C2 6114  15.575   3.990  11.081  0.0837 -0.1485 -0.0813
  383loPI    C3 6115  15.487   3.886  11.457 -0.0610 -0.1055 -0.1024
  383loPI   PO4 6116  15.454   3.440  10.958 -0.0496 -0.0396  0.2900
  383loPI   GL1 6117  15.372   3.508  10.652  0.0206  0.1018 -0.1303
  383loPI   GL2 6118  15.044   3.547  10.647  0.0257 -0.0298  0.0368
  383loPI   C1A 6119  15.479   3.646  10.240 -0.1813  0.0079 -0.0016
  383loPI   C2A 6120  15.399   3.729   9.747 -0.0606 -0.5572 -0.1663
  383loPI   C3A 6121  15.412   3.831   9.298  0.2346 -0.0911  0.2812
  383loPI   C4A 6122  15.256   4.004   8.826  0.1842 -0.4513  0.1582
  383loPI   C5A 6123  14.871   3.851   8.526  0.0590 -0.0736 -0.0645
  383loPI   C6A 6124  14.644   3.822   8.135 -0.2366  0.0857 -0.1880
  383loPI   C1B 6125  14.806   3.520  10.257 -0.0312  0.1359  0.0419
  383loPI   C2B 6126  14.664   3.800   9.899  0.0275 -0.1382  0.1272
  383loPI   C3B 6127  14.606   3.902   9.481 -0.1934  0.2095  0.1890
  383loPI   C4B 6128  14.300   3.742   9.047 -0.1320  0.1407 -0.2042
  384loPI    C1 6129   7.732   1.203  10.690 -0.1426 -0.0311  0.1666
  384loPI    C2 6130   7.395   1.162  10.478  0.0677 -0.0796 -0.1666
  384loPI    C3 6131   7.487   0.895  10.762 -0.1626 -0.0769 -0.0875
  384loPI   PO4 6132   7.910   1.212  10.500 -0.0945  0.1658  0.1819
  384loPI   GL1 6133   7.598   1.376  10.088  0.1205  0.2904 -0.0368
  384loPI   GL2 6134   7.829   1.663   9.928  0.1002  0.2001 -0.0441
  384loPI   C1A 6135   7.666   1.222   9.662  0.0921 -0.0961 -0.0880
  384loPI   C2A 6136   7.710   1.141   9.311 -0.0724  0.0832 -0.1154
  384loPI   C3A 6137   7.818   1.042   8.993 -0.0524 -0.2479 -0.0215
  384loPI   C4A 6138   7.970   1.000   8.500 -0.1024 -0.1569 -0.2914
  384loPI   C5A 6139   8.270   1.048   8.080 -0.2408 -0.1000  0.0013
  384loPI   C6A 6140   8.607   1.143   7.832  0.1365  0.2127  0.0101
  384loPI   C1B 6141   7.908   1.631   9.498 -0.1123  0.1215 -0.2289
  384loPI   C2B 6142   7.940   1.514   9.048 -0.1103 -0.2467  0.2567
  384loPI   C3B 6143   8.140   1.405   8.689  0.0502  0.0357  0.2243
  384loPI   C4B 6144   8.285   1.537   8.225 -0.0220  0.0150  0.0971
  385loPI    C1 6145   5.766  15.116  10.511  0.0069 -0.1270  0.0662
  385loPI    C2 6146   5.455  15.337  10.631 -0.0298 -0.1203 -0.0402
  385loPI    C3 6147   5.798  15.346  10.837 -0.0052  0.0965 -0.0885
  385loPI   PO4 6148   5.826  15.250  10.274 -0.1541  0.1774  0.0831
  385loPI   GL1 6149   5.765  15.319   9.917  0.0866 -0.2355  0.0703
  385loPI   GL2 6150   5.538  15.408   9.702 -0.0334  0.1111  0.0900
  385loPI   C1A 6151   6.106  15.295   9.557  0.1660  0.1246 -0.1825
  385loPI   C2A 6152   6.182  15.190   9.148 -0.1584  0.1421 -0.2267
  385loPI   C3A 6153   6.139  15.219   8.649  0.3499  0.1999 -0.0889
  385loPI   C4A 6154   6.336  15.361   8.232  0.1092  0.1064  0.0059
  385loPI   C5A 6155   6.215  15.679   7.966  0.0578 -0.1555 -0.1809
  385loPI   C6A 6156   6.344  15.840   7.598 -0.2076 -0.3363 -0.2991
  385loPI   C1B 6157   5.646  15.412   9.307  0.0426  0.0799  0.2214
  385loPI   C2B 6158   5.654  15.345   8.913  0.1918  0.1888  0.0760
  385loPI   C3B 6159   5.545  15.091   8.427  0.1314 -0.1999  0.0173
  385loPI   C4B 6160   5.204  15.076   8.061 -0.0807  0.1232  0.0804
  386loPI    C1 6161   3.933  15.003  10.949  0.1353 -0.1095 -0.2795
  386loPI    C2 6162   4.243  15.254  10.971  0.1114 -0.1082  0.1118
  386loPI    C3 6163   4.073  15.117  11.306 -0.1639 -0.2924 -0.0993
  386loPI   PO4 6164   4.069  14.904  10.644 -0.0255  0.1798  0.1213
  386loPI   GL1 6165   4.223  14.912  10.161  0.0362 -0.0496 -0.0957
  386loPI   GL2 6166   4.451  15.004  10.021 -0.1884  0.0659 -0.0371
  386loPI   C1A 6167   4.197  14.878   9.604  0.0215  0.0531 -0.2052
  386loPI   C2A 6168   4.139  14.642   9.283 -0.0869 -0.1570  0.3140
  386loPI   C3A 6169   3.998  14.605   8.830 -0.5961  0.2348 -0.1155
  386loPI   C4A 6170   4.085  14.899   8.463 -0.0150  0.2332  0.1242
  386loPI   C5A 6171   4.387  15.135   8.288 -0.2488 -0.0798  0.1164
  386loPI   C6A 6172   4.515  15.501   8.000  0.0467  0.1391 -0.2028
  386loPI   C1B 6173   4.565  15.270   9.567 -0.1834  0.0182  0.0429
  386loPI   C2B 6174   4.710  15.065   9.236  0.1233  0.0615 -0.0212
  386loPI   C3B 6175   5.001  15.113   8.840  0.0040 -0.0654  0.0053
  386loPI   C4B 6176   4.920  15.230   8.399 -0.0795  0.5885  0.1771
  387loPI    C1 6177   9.313   2.373  10.627  0.1416 -0.1432 -0.2280
  387loPI    C2 6178   9.280   2.771  10.634  0.0101 -0.1555 -0.1102
  387loPI    C3 6179   9.210   2.559  10.966 -0.0018 -0.2828 -0.1936
  387loPI   PO4 6180   9.611   2.371  10.470 -0.1149 -0.1055  0.1025
  387loPI   GL1 6181   9.544   2.442  10.093 -0.0424 -0.0650  0.1662
  387loPI   GL2 6182   9.218   2.587  10.147  0.0647  0.0173  0.0272
  387loPI   C1A 6183   9.458   2.462   9.693  0.0393  0.1355 -0.2128
  387loPI   C2A 6184   9.617   2.494   9.247 -0.0411 -0.0417 -0.0743
  387loPI   C3A 6185   9.704   2.563   8.719 -0.0419  0.1143  0.2403
  387loPI   C4A 6186   9.769   2.745   8.387 -0.1212  0.4652 -0.2065
  387loPI   C5A 6187   9.841   3.004   8.084  0.0900  0.1873 -0.2227
  387loPI   C6A 6188  10.093   3.368   7.959  0.0755  0.0263  0.3439
  387loPI   C1B 6189   8.964   2.472   9.757  0.1018 -0.1636 -0.1481
  387loPI   C2B 6190   8.832   2.773   9.479  0.2355  0.0076 -0.0132
  387loPI   C3B 6191   8.810   2.953   9.122 -0.1646  0.1047 -0.2789
  387loPI   C4B 6192   8.805   2.868   8.683  0.1592  0.2775  0.0400
  388loPI    C1 6193  12.365   1.369  10.709  0.0455 -0.1422 -0.1633
  388loPI    C2 6194  12.486   1.335  11.089 -0.2683 -0.4065 -0.0825
  388loPI    C3 6195  12.230   1.625  10.985  0.1506 -0.0625 -0.1850
  388loPI   PO4 6196  12.542   1.227  10.598  0.0509 -0.1398 -0.0284
  388loPI   GL1 6197  12.714   1.307  10.095 -0.3315  0.0556  0.1893
  388loPI   GL2 6198  12.557   1.579  10.201 -0.1785  0.1312 -0.1165
  388loPI   C1A 6199  12.903   1.243   9.700 -0.0366 -0.2124  0.2179
  388loPI   C2A 6200  13.145   1.342   9.316 -0.1320 -0.0145  0.0281
  388loPI   C3A 6201  13.217   1.418   8.920  0.0969  0.1393 -0.0711
  388loPI   C4A 6202  13.201   1.574   8.522  0.1949  0.2168  0.0112
  388loPI   C5A 6203  13.033   1.859   8.246 -0.0300  0.1578 -0.0206
  388loPI   C6A 6204  12.703   2.120   8.064 -0.2635  0.2696 -0.2287
  388loPI   C1B 6205  12.625   1.739   9.757 -0.2142 -0.0357 -0.2235
  388loPI   C2B 6206  12.893   1.725   9.457  0.2104  0.2404 -0.1748
  388loPI   C3B 6207  12.991   1.871   8.982 -0.1004 -0.2172 -0.0476
  388loPI   C4B 6208  12.754   2.005   8.644 -0.0045  0.0440  0.0396
  389loPI    C1 6209   0.055   7.335  11.101  0.0971 -0.0972 -0.0855
  389loPI    C2 6210   0.087   7.614  11.386  0.0693 -0.2636  0.0827
  389loPI    C3 6211   0.015   7.234  11.486 -0.1556 -0.2877 -0.1593
  389loPI   PO4 6212  -0.107   7.519  10.910  0.2454  0.2479 -0.1682
  389loPI   GL1 6213   0.076   7.598  10.520  0.0758 -0.0747  0.2247
  389loPI   GL2 6214   0.281   7.694  10.428 -0.1784 -0.3492 -0.4036
  389loPI   C1A 6215   0.014   7.676  10.061  0.1856 -0.2429 -0.1669
  389loPI   C2A 6216   0.275   7.643   9.738 -0.1990  0.1034 -0.0681
  389loPI   C3A 6217   0.339   7.594   9.281  0.0154 -0.1221  0.0539
  389loPI   C4A 6218   0.483   7.636   8.833  0.0687  0.0882 -0.3077
  389loPI   C5A 6219   0.328   7.545   8.505  0.1525  0.3478  0.1357
  389loPI   C6A 6220  -0.074   7.369   8.393 -0.1664 -0.1701  0.1299
  389loPI   C1B 6221   0.516   7.928  10.070  0.1848 -0.1692 -0.1159
  389loPI   C2B 6222   0.777   7.828   9.645 -0.1284 -0.0851  0.0271
  389loPI   C3B 6223   0.760   7.834   9.214  0.0806  0.1397  0.0736
  389loPI   C4B 6224   0.968   7.840   8.867  0.1773 -0.0310 -0.1402
  390loPI    C1 6225   9.225   8.313  10.955  0.2555  0.0581  0.1601
  390loPI    C2 6226   9.249   7.917  11.006  0.0164  0.0193 -0.0080
  390loPI    C3 6227   9.405   8.164  11.279  0.1066 -0.1893  0.1318
  390loPI   PO4 6228   9.018   8.307  10.780 -0.2338  0.1335  0.2184
  390loPI   GL1 6229   8.969   8.406  10.291  0.2684  0.0120  0.2292
  390loPI   GL2 6230   8.725   8.215  10.337 -0.0203  0.0320  0.0553
  390loPI   C1A 6231   8.745   8.654  10.010 -0.0336 -0.2600 -0.2071
  390loPI   C2A 6232   8.581   8.841   9.627 -0.1384  0.1648  0.0272
  390loPI   C3A 6233   8.832   8.818   9.333  0.1093  0.0051  0.1266
  390loPI   C4A 6234   9.116   8.820   8.992 -0.1066  0.1884 -0.2524
  390loPI   C5A 6235   9.133   8.905   8.609 -0.1194  0.2377  0.1996
  390loPI   C6A 6236   9.371   9.066   8.264 -0.0013 -0.3256  0.1741
  390loPI   C1B 6237   8.630   8.194   9.954  0.1551 -0.0218 -0.1503
  390loPI   C2B 6238   8.763   8.278   9.585 -0.2488 -0.2424 -0.1974
  390loPI   C3B 6239   8.966   8.337   9.159 -0.0219 -0.2367  0.1462
  390loPI   C4B 6240   8.907   8.459   8.763 -0.0949  0.0472  0.1014
  391loPI    C1 6241   1.198  15.090  10.727  0.1276 -0.0591  0.0564
  391loPI    C2 6242   1.417  15.421  10.678 -0.0929  0.0893  0.0601
  391loPI    C3 6243   1.315  15.303  11.046  0.0195 -0.0063  0.0612
  391loPI   PO4 6244   1.358  14.970  10.455  0.0842 -0.0301 -0.0657
  391loPI   GL1 6245   1.387  15.269  10.222  0.3799  0.0840 -0.1542
  391loPI   GL2 6246   1.245  15.596  10.213  0.1474 -0.0130 -0.0081
  391loPI   C1A 6247   1.412  15.429   9.799 -0.1379  0.1801 -0.0878
  391loPI   C2A 6248   1.448  15.585   9.457 -0.1069  0.0008 -0.0218
  391loPI   C3A 6249   1.598  15.572   9.078 -0.2192 -0.0497 -0.0079
  391loPI   C4A 6250   1.467  15.342   8.740  0.1811 -0.1720 -0.2972
  391loPI   C5A 6251   1.479  15.024   8.369 -0.0222  0.1226  0.1485
  391loPI   C6A 6252   1.647  14.709   8.006  0.0122 -0.2619 -0.3598
  391loPI   C1B 6253   1.038  15.773   9.827  0.0234  0.0496  0.1279
  391loPI   C2B 6254   0.994  15.786   9.390  0.1213 -0.0136 -0.0509
  391loPI   C3B 6255   1.159  15.829   8.972 -0.2511  0.1018 -0.1949
  391loPI   C4B 6256   0.971  15.732   8.541  0.4223  0.1807 -0.1259
  392loPI    C1 6257   5.885  16.550  10.309 -0.0439 -0.0756  0.2458
  392loPI    C2 6258   5.745  16.866  10.106  0.0414 -0.1911  0.0033
  392loPI    C3 6259   5.836  16.901  10.494  0.2505  0.1406 -0.0719
  392loPI   PO4 6260   5.873  16.355  10.104 -0.1315 -0.2236 -0.0250
  392loPI   GL1 6261   5.989  16.412   9.698  0.1548  0.0663 -0.0207
  392loPI   GL2 6262   5.886  16.737   9.615  0.2215  0.3617 -0.0355
  392loPI   C1A 6263   5.825  16.277   9.342  0.1596 -0.2744  0.0910
  392loPI   C2A 6264   5.714  16.322   8.916  0.0409  0.1287  0.1425
  392loPI   C3A 6265   5.564  16.426   8.525 -0.0315  0.1028 -0.0897
  392loPI   C4A 6266   5.579  16.399   8.086 -0.2108  0.0197 -0.0264
  392loPI   C5A 6267   5.611  16.639   7.766 -0.1754 -0.2022 -0.1708
  392loPI   C6A 6268   5.572  16.882   7.389  0.2541  0.0162 -0.0354
  392loPI   C1B 6269   5.611  16.760   9.223  0.2132  0.2488 -0.0879
  392loPI   C2B 6270   5.680  16.863   8.807 -0.2044  0.1318 -0.1495
  392loPI   C3B 6271   5.665  17.104   8.464  0.1053 -0.1690  0.1300
  392loPI   C4B 6272   5.463  17.206   8.122  0.0758  0.0316  0.0894
  393loPI    C1 6273   9.395  11.665  10.763 -0.0233 -0.0863 -0.0312
  393loPI    C2 6274   9.240  11.410  11.030  0.4026 -0.1509  0.1629
  393loPI    C3 6275   9.359  11.774  11.146  0.3130 -0.0685 -0.0010
  393loPI   PO4 6276   9.231  11.715  10.544  0.3997 -0.3615  0.0105
  393loPI   GL1 6277   9.258  11.668  10.105  0.0082 -0.0411 -0.3538
  393loPI   GL2 6278   9.248  11.389  10.216  0.0356 -0.0640 -0.4259
  393loPI   C1A 6279   9.206  11.602   9.634 -0.2784  0.1642 -0.0317
  393loPI   C2A 6280   9.257  11.558   9.138  0.1647  0.0946  0.3123
  393loPI   C3A 6281   9.408  11.481   8.783 -0.0705  0.0180  0.0087
  393loPI   C4A 6282   9.448  11.411   8.286 -0.2640 -0.2549 -0.2987
  393loPI   C5A 6283   9.803  11.321   7.992 -0.0574 -0.0058  0.0789
  393loPI   C6A 6284   9.953  11.012   7.848  0.1436  0.1400  0.1123
  393loPI   C1B 6285   9.182  11.198   9.873  0.1109  0.1337  0.1341
  393loPI   C2B 6286   9.288  11.137   9.432 -0.1115  0.1069 -0.2718
  393loPI   C3B 6287   9.159  11.081   9.034 -0.1683  0.2025 -0.1641
  393loPI   C4B 6288   9.111  10.948   8.637  0.0502  0.0192 -0.2476
  394loPI    C1 6289  14.211  17.638  10.619  0.1074 -0.0057  0.0601
  394loPI    C2 6290  14.118  17.478  10.974  0.1169 -0.0538  0.0410
  394loPI    C3 6291  13.831  17.637  10.746  0.1256  0.0720  0.1163
  394loPI   PO4 6292  14.391  17.484  10.538 -0.0733  0.2879  0.1332
  394loPI   GL1 6293  14.565  17.292  10.057  0.2313 -0.1185 -0.1311
  394loPI   GL2 6294  14.487  17.609  10.020 -0.0090 -0.0688  0.1801
  394loPI   C1A 6295  14.704  17.194   9.672 -0.1204  0.0733  0.0524
  394loPI   C2A 6296  14.887  17.248   9.244  0.3864 -0.1345 -0.1725
  394loPI   C3A 6297  15.017  17.207   8.913 -0.2449 -0.3868 -0.2209
  394loPI   C4A 6298  14.948  16.898   8.702 -0.2170  0.2072 -0.4290
  394loPI   C5A 6299  14.656  16.766   8.427 -0.0181 -0.0841 -0.1101
  394loPI   C6A 6300  14.137  16.940   8.252  0.1464  0.0737 -0.0429
  394loPI   C1B 6301  14.613  17.744   9.732 -0.0063 -0.1017  0.3803
  394loPI   C2B 6302  14.676  17.754   9.378 -0.0226 -0.0341  0.3046
  394loPI   C3B 6303  14.694  17.578   8.892 -0.2116 -0.1567 -0.0004
  394loPI   C4B 6304  14.862  17.499   8.510  0.3649 -0.0993  0.0996
  395loPI    C1 6305   6.085  14.173  10.810 -0.1281  0.1573 -0.0441
  395loPI    C2 6306   5.878  14.257  11.142 -0.0256 -0.0338  0.0695
  395loPI    C3 6307   6.149  13.963  11.144 -0.1158 -0.1218 -0.2192
  395loPI   PO4 6308   5.948  14.048  10.526 -0.0594 -0.3422  0.0974
  395loPI   GL1 6309   5.751  14.085  10.178  0.2483 -0.0870  0.1845
  395loPI   GL2 6310   5.457  14.210  10.322 -0.1793 -0.0836 -0.0214
  395loPI   C1A 6311   5.824  14.098   9.690  0.0562 -0.0147  0.0250
  395loPI   C2A 6312   5.899  14.336   9.335  0.1502  0.0730 -0.0489
  395loPI   C3A 6313   5.908  14.257   8.884  0.0317  0.1697  0.0850
  395loPI   C4A 6314   5.835  14.093   8.476 -0.1909  0.1695 -0.0033
  395loPI   C5A 6315   5.724  13.754   8.194 -0.2218 -0.2768  0.1283
  395loPI   C6A 6316   5.702  13.452   7.796 -0.0223 -0.0645 -0.3671
  395loPI   C1B 6317   5.272  14.149   9.901  0.3711 -0.1851 -0.3173
  395loPI   C2B 6318   5.356  14.104   9.423 -0.0470 -0.1830 -0.3645
  395loPI   C3B 6319   5.449  14.399   9.084  0.0936  0.1801 -0.0921
  395loPI   C4B 6320   5.372  14.768   8.846  0.0348  0.2798  0.1111
  396loPI    C1 6321   3.505   4.623  10.801  0.3130 -0.1426  0.0007
  396loPI    C2 6322   3.317   4.854  11.068 -0.0110 -0.1802 -0.1894
  396loPI    C3 6323   3.297   4.456  11.099  0.0842 -0.1845 -0.1797
  396loPI   PO4 6324   3.562   4.786  10.549  0.0671  0.1669  0.0045
  396loPI   GL1 6325   3.476   4.925  10.180 -0.1859 -0.0184  0.0061
  396loPI   GL2 6326   3.085   4.963  10.072 -0.0190  0.1203 -0.2357
  396loPI   C1A 6327   3.498   4.999   9.816 -0.3451  0.0089 -0.0400
  396loPI   C2A 6328   3.516   5.024   9.395 -0.1353 -0.2579  0.0387
  396loPI   C3A 6329   3.639   4.988   9.007  0.0748  0.0113 -0.2673
  396loPI   C4A 6330   3.767   5.050   8.580  0.1715  0.0220 -0.0429
  396loPI   C5A 6331   4.023   5.246   8.338  0.5088 -0.0313 -0.2342
  396loPI   C6A 6332   3.947   5.654   8.021 -0.0681  0.1076  0.0075
  396loPI   C1B 6333   3.044   5.040   9.629 -0.0249  0.2069  0.3560
  396loPI   C2B 6334   3.048   5.030   9.245  0.1539 -0.0767 -0.0308
  396loPI   C3B 6335   3.212   5.081   8.859  0.0760  0.2142  0.0224
  396loPI   C4B 6336   3.090   5.143   8.468  0.1317  0.0882 -0.0209
  397loPI    C1 6337  16.308  15.754  10.562 -0.1089 -0.0712 -0.1048
  397loPI    C2 6338  16.460  15.668  10.922 -0.2866  0.0367 -0.0023
  397loPI    C3 6339  16.241  15.999  10.871 -0.1043  0.1216 -0.2552
  397loPI   PO4 6340  16.204  15.464  10.426  0.2498 -0.2066 -0.1870
  397loPI   GL1 6341  15.928  15.225  10.086  0.0021  0.1679  0.2259
  397loPI   GL2 6342  16.284  15.190   9.999  0.3999  0.0327  0.1936
  397loPI   C1A 6343  16.021  15.014   9.612  0.0858 -0.2645 -0.3934
  397loPI   C2A 6344  15.890  15.088   9.164 -0.0631  0.1335 -0.0601
  397loPI   C3A 6345  16.046  15.258   8.731  0.3854 -0.1477  0.0347
  397loPI   C4A 6346  16.455  15.535   8.581 -0.2277  0.2845  0.0162
  397loPI   C5A 6347  16.760  15.421   8.902  0.1516  0.1066 -0.2683
  397loPI   C6A 6348  16.814  15.475   9.333  0.1813 -0.0497  0.1847
  397loPI   C1B 6349  16.407  15.241   9.509 -0.2821  0.0271  0.4117
  397loPI   C2B 6350  16.415  15.116   9.049  0.3616  0.2353  0.1679
  397loPI   C3B 6351  16.560  14.986   8.706  0.0496 -0.0868  0.3099
  397loPI   C4B 6352  16.589  14.954   8.216  0.0403  0.0437  0.4734
  398loPI    C1 6353   4.784   5.613  10.699  0.0952 -0.1524  0.1434
  398loPI    C2 6354   4.862   5.785  11.052  0.1206 -0.0356  0.0812
  398loPI    C3 6355   4.721   6.005  10.749  0.0750 -0.1405  0.0259
  398loPI   PO4 6356   5.099   5.493  10.680  0.0031 -0.0185 -0.1345
  398loPI   GL1 6357   5.470   5.593  10.438  0.1959  0.0835  0.0759
  398loPI   GL2 6358   5.695   5.724  10.330  0.1602  0.1568  0.0301
  398loPI   C1A 6359   5.443   5.288  10.121  0.1414 -0.1873  0.0451
  398loPI   C2A 6360   5.398   5.361   9.654 -0.0873 -0.1010  0.0151
  398loPI   C3A 6361   5.500   5.360   9.181 -0.0484  0.0504  0.0271
  398loPI   C4A 6362   5.445   5.412   8.760  0.1993 -0.1166  0.0386
  398loPI   C5A 6363   5.426   5.324   8.288 -0.2610 -0.0099 -0.1900
  398loPI   C6A 6364   5.782   5.514   8.109  0.0255 -0.0827  0.3621
  398loPI   C1B 6365   5.697   5.833   9.890  0.3572  0.0436 -0.1427
  398loPI   C2B 6366   5.771   5.716   9.422  0.3952 -0.0107  0.1207
  398loPI   C3B 6367   5.723   5.709   8.982 -0.0882  0.0802  0.2952
  398loPI   C4B 6368   5.761   5.747   8.510 -0.0848  0.0826 -0.0344
  399loPI    C1 6369   1.904   4.875  10.667 -0.0247  0.1214 -0.1904
  399loPI    C2 6370   1.536   4.750  10.760  0.1069 -0.1350 -0.0025
  399loPI    C3 6371   1.643   5.128  10.833 -0.0928 -0.0812  0.0164
  399loPI   PO4 6372   1.979   4.796  10.442 -0.2405 -0.0637  0.0606
  399loPI   GL1 6373   1.816   4.657  10.096  0.1741 -0.0031  0.0617
  399loPI   GL2 6374   1.974   4.923   9.910 -0.0552  0.0324  0.1296
  399loPI   C1A 6375   1.614   4.553   9.770  0.0510  0.1223 -0.3225
  399loPI   C2A 6376   1.722   4.594   9.373  0.1602 -0.1476 -0.2977
  399loPI   C3A 6377   1.716   4.799   8.997  0.2142 -0.0770 -0.0143
  399loPI   C4A 6378   1.535   5.076   8.741  0.4254  0.1410 -0.1108
  399loPI   C5A 6379   1.769   5.204   8.385  0.0570  0.0811 -0.0535
  399loPI   C6A 6380   2.097   5.475   8.173 -0.0283 -0.2345 -0.0210
  399loPI   C1B 6381   2.010   5.154   9.521  0.1264 -0.2664 -0.0021
  399loPI   C2B 6382   2.075   5.057   9.082  0.1152 -0.3560 -0.0412
  399loPI   C3B 6383   2.212   5.154   8.638  0.1969 -0.1872 -0.0257
  399loPI   C4B 6384   2.288   5.001   8.190  0.1141  0.1268  0.3364
  400loPI    C1 6385   5.567  13.390  10.920  0.1370 -0.0942  0.4149
  400loPI    C2 6386   5.752  13.738  10.990  0.2525 -0.1107  0.2021
  400loPI    C3 6387   5.363  13.696  11.077  0.1128  0.2330 -0.2241
  400loPI   PO4 6388   5.572  13.311  10.670  0.1009  0.2095  0.1208
  400loPI   GL1 6389   5.439  13.391  10.218 -0.1581 -0.0368 -0.0742
  400loPI   GL2 6390   5.478  13.605  10.058 -0.0769 -0.4852 -0.0469
  400loPI   C1A 6391   5.255  13.227   9.696 -0.0467  0.1485  0.1705
  400loPI   C2A 6392   5.326  13.222   9.288 -0.0582  0.0362 -0.1119
  400loPI   C3A 6393   5.226  13.528   8.961 -0.1016 -0.1753  0.2916
  400loPI   C4A 6394   5.467  13.977   8.876  0.0175 -0.2221  0.4708
  400loPI   C5A 6395   5.433  14.386   8.605 -0.0502  0.0783 -0.2342
  400loPI   C6A 6396   5.094  14.611   8.400 -0.3785 -0.1477  0.2772
  400loPI   C1B 6397   5.489  13.636   9.533  0.0676 -0.0400  0.4084
  400loPI   C2B 6398   5.766  13.611   9.131  0.0352  0.0101  0.0875
  400loPI   C3B 6399   5.792  13.565   8.647  0.0410  0.1716 -0.0625
  400loPI   C4B 6400   5.560  13.359   8.331  0.1247 -0.1091 -0.2602
  401loPI    C1 6401  12.854  11.736  11.139 -0.0032  0.2726  0.0660
  401loPI    C2 6402  12.657  12.033  11.320  0.0083  0.1966  0.2048
  401loPI    C3 6403  12.960  11.850  11.507 -0.0812  0.0122  0.1716
  401loPI   PO4 6404  12.831  11.830  10.879  0.2754 -0.1346 -0.1566
  401loPI   GL1 6405  12.672  11.752  10.588  0.1161 -0.1583 -0.0792
  401loPI   GL2 6406  12.294  11.731  10.439  0.1078 -0.1647 -0.0037
  401loPI   C1A 6407  12.712  11.693  10.208 -0.0175  0.0089 -0.1786
  401loPI   C2A 6408  12.701  11.637   9.726  0.2501  0.2761  0.3678
  401loPI   C3A 6409  12.798  11.617   9.334 -0.2388  0.0929  0.2209
  401loPI   C4A 6410  12.680  11.629   8.927  0.1754 -0.1124  0.2045
  401loPI   C5A 6411  12.746  11.594   8.454  0.1014  0.0376  0.1341
  401loPI   C6A 6412  12.849  11.429   8.011 -0.0800 -0.0282  0.0699
  401loPI   C1B 6413  12.282  11.508   9.992 -0.1595 -0.0025 -0.0173
  401loPI   C2B 6414  12.243  11.576   9.576 -0.3936 -0.0319  0.0590
  401loPI   C3B 6415  12.159  11.596   9.123  0.0124  0.0362  0.1937
  401loPI   C4B 6416  12.226  11.567   8.709  0.0120  0.4442  0.1041
  402loPI    C1 6417   8.040  16.643  10.887 -0.0690  0.0869 -0.1118
  402loPI    C2 6418   7.654  16.542  10.910 -0.0489  0.0529  0.0886
  402loPI    C3 6419   7.848  16.669  11.236  0.1982 -0.2569  0.0665
  402loPI   PO4 6420   7.988  16.640  10.558 -0.2338 -0.0152  0.1370
  402loPI   GL1 6421   8.026  16.338  10.219 -0.1392  0.2970 -0.0031
  402loPI   GL2 6422   7.852  16.036  10.161 -0.0620 -0.2667  0.2122
  402loPI   C1A 6423   8.242  16.213   9.875  0.0462 -0.2615  0.0440
  402loPI   C2A 6424   8.338  15.881   9.567 -0.0623 -0.0591 -0.1981
  402loPI   C3A 6425   8.552  15.852   9.149 -0.0938 -0.0665  0.2492
  402loPI   C4A 6426   8.752  15.624   8.872 -0.0105 -0.3824 -0.0928
  402loPI   C5A 6427   9.120  15.631   8.726 -0.0392  0.1858 -0.0224
  402loPI   C6A 6428   9.388  15.429   8.376  0.2913 -0.2458  0.2057
  402loPI   C1B 6429   7.811  16.101   9.688  0.1304  0.0738 -0.0137
  402loPI   C2B 6430   8.095  16.224   9.294  0.0777 -0.2392  0.0448
  402loPI   C3B 6431   8.176  16.492   8.887 -0.2068  0.1260  0.2216
  402loPI   C4B 6432   8.078  16.773   8.566 -0.3826  0.1098  0.3450
  403loPI    C1 6433  12.589   6.065  11.179 -0.0192  0.0363  0.0870
  403loPI    C2 6434  12.554   6.322  11.483  0.1608 -0.1833  0.2982
  403loPI    C3 6435  12.561   5.929  11.554  0.2110 -0.2370  0.0088
  403loPI   PO4 6436  12.504   6.160  11.017 -0.0810  0.0152 -0.0542
  403loPI   GL1 6437  12.255   6.424  10.648 -0.0514 -0.0578 -0.1292
  403loPI   GL2 6438  12.062   6.093  10.519 -0.1658  0.0361 -0.1690
  403loPI   C1A 6439  12.567   6.419  10.400  0.4574 -0.1573  0.0319
  403loPI   C2A 6440  12.661   6.586   9.921 -0.0165  0.0098 -0.0089
  403loPI   C3A 6441  12.778   6.613   9.541 -0.0145  0.0851  0.2521
  403loPI   C4A 6442  12.909   6.644   9.129 -0.0897 -0.1960 -0.0525
  403loPI   C5A 6443  12.756   6.680   8.732 -0.2017 -0.1970 -0.0545
  403loPI   C6A 6444  12.574   6.313   8.601 -0.1127  0.0023 -0.0679
  403loPI   C1B 6445  12.171   6.445  10.126  0.0600  0.1233 -0.2919
  403loPI   C2B 6446  12.236   6.531   9.725 -0.3153 -0.2093  0.0510
  403loPI   C3B 6447  12.312   6.537   9.292  0.0684  0.0770  0.0269
  403loPI   C4B 6448  12.305   6.631   8.882  0.1676 -0.1719  0.1727
  404loPI    C1 6449   4.016   3.209  10.856 -0.3624 -0.1422  0.1929
  404loPI    C2 6450   3.839   3.565  10.818 -0.1901 -0.0529  0.2192
  404loPI    C3 6451   4.057   3.484  11.143 -0.0691 -0.1109  0.1247
  404loPI   PO4 6452   4.129   3.184  10.662 -0.3760  0.0013  0.1162
  404loPI   GL1 6453   3.987   3.055  10.331  0.0467 -0.0234  0.3530
  404loPI   GL2 6454   4.335   3.058  10.249  0.1415 -0.0992  0.0450
  404loPI   C1A 6455   3.945   3.068   9.856  0.2159  0.0743  0.0220
  404loPI   C2A 6456   3.911   3.056   9.495 -0.1636  0.4035 -0.2903
  404loPI   C3A 6457   3.800   2.869   9.074  0.0342  0.0981  0.3007
  404loPI   C4A 6458   3.742   2.861   8.581 -0.0716 -0.3400  0.0000
  404loPI   C5A 6459   3.753   2.808   8.144  0.1059  0.1396  0.1808
  404loPI   C6A 6460   3.850   3.144   7.858  0.3170 -0.1522 -0.1256
  404loPI   C1B 6461   4.461   3.132   9.898 -0.0059 -0.1375 -0.0241
  404loPI   C2B 6462   4.431   3.243   9.448  0.1756  0.0154  0.0640
  404loPI   C3B 6463   4.216   3.305   9.137 -0.1252 -0.0038 -0.0658
  404loPI   C4B 6464   3.944   3.318   8.783  0.0021  0.4724  0.1131
  405loPI    C1 6465  12.316   0.399  10.819  0.0192  0.0547 -0.1477
  405loPI    C2 6466  12.694   0.298  10.901 -0.0222 -0.0408 -0.0721
  405loPI    C3 6467  12.467   0.468  11.183 -0.0188  0.0682 -0.1345
  405loPI   PO4 6468  12.351   0.524  10.560  0.1239 -0.0938 -0.0760
  405loPI   GL1 6469  12.500   0.787  10.252 -0.3248 -0.3278  0.1850
  405loPI   GL2 6470  12.152   0.747  10.021  0.0535 -0.2169  0.0547
  405loPI   C1A 6471  12.628   0.836   9.868  0.0412  0.1492  0.0477
  405loPI   C2A 6472  12.733   0.804   9.418 -0.0414  0.0387  0.2359
  405loPI   C3A 6473  12.911   1.026   8.994 -0.2934  0.0584 -0.3506
  405loPI   C4A 6474  13.047   1.018   8.559 -0.1503  0.0592 -0.3941
  405loPI   C5A 6475  13.434   1.197   8.342  0.0591 -0.2676  0.1476
  405loPI   C6A 6476  13.565   1.598   8.173  0.3300 -0.1404 -0.0561
  405loPI   C1B 6477  12.123   0.732   9.685  0.1486  0.1146  0.2118
  405loPI   C2B 6478  12.200   0.703   9.299  0.0865 -0.0309  0.0332
  405loPI   C3B 6479  12.536   0.742   8.948  0.2419 -0.3028  0.0980
  405loPI   C4B 6480  12.577   0.973   8.617 -0.0013  0.1461  0.1261
  406loPI    C1 6481  10.823  15.156  10.382 -0.2322  0.0550  0.0850
  406loPI    C2 6482  10.944  14.951  10.704  0.2902 -0.0400 -0.1618
  406loPI    C3 6483  10.735  14.767  10.416 -0.0298  0.0039  0.0379
  406loPI   PO4 6484  11.071  15.214  10.208 -0.1376 -0.0077 -0.1922
  406loPI   GL1 6485  11.230  15.085   9.874  0.1457 -0.2014 -0.1051
  406loPI   GL2 6486  11.565  15.023   9.838  0.1908 -0.1647  0.1520
  406loPI   C1A 6487  11.270  14.729   9.576 -0.1472 -0.1765  0.2068
  406loPI   C2A 6488  11.439  14.490   9.177 -0.1081 -0.1177  0.0935
  406loPI   C3A 6489  11.487  14.525   8.866 -0.1104  0.0263 -0.2508
  406loPI   C4A 6490  11.348  14.511   8.436  0.0694 -0.1250 -0.1060
  406loPI   C5A 6491  11.383  14.509   8.004 -0.3159  0.0871  0.1343
  406loPI   C6A 6492  11.267  14.527   7.576 -0.1146  0.1369  0.0200
  406loPI   C1B 6493  11.733  14.783   9.479 -0.1432  0.2182 -0.3386
  406loPI   C2B 6494  11.941  14.787   9.160 -0.0981 -0.4573  0.0195
  406loPI   C3B 6495  11.988  14.615   8.715 -0.1048 -0.3897  0.3977
  406loPI   C4B 6496  11.864  14.571   8.356 -0.2793  0.1372  0.0254
  407loPI    C1 6497  17.342   6.218  10.557  0.0698  0.1165 -0.0960
  407loPI    C2 6498  17.338   6.003  10.894  0.0870  0.0515 -0.1371
  407loPI    C3 6499  17.520   6.359  10.886  0.0241  0.0857 -0.0579
  407loPI   PO4 6500  17.093   6.188  10.501  0.0668 -0.0968 -0.0218
  407loPI   GL1 6501  16.858   5.884  10.321 -0.1227 -0.0012  0.1320
  407loPI   GL2 6502  16.615   5.861  10.415 -0.0245 -0.1384  0.0128
  407loPI   C1A 6503  17.250   5.860   9.989 -0.0149  0.1726  0.0107
  407loPI   C2A 6504  17.368   5.948   9.517 -0.2403  0.0556  0.3304
  407loPI   C3A 6505  17.479   5.918   9.096  0.2983  0.1166 -0.1215
  407loPI   C4A 6506  17.298   5.970   8.701  0.1654  0.1510  0.0417
  407loPI   C5A 6507  17.197   5.803   8.285  0.0956 -0.0796 -0.4673
  407loPI   C6A 6508  17.352   5.845   7.850  0.0955 -0.1740  0.2395
  407loPI   C1B 6509  16.574   5.897   9.926  0.1014  0.1428  0.1722
  407loPI   C2B 6510  16.560   6.063   9.477  0.1269 -0.1234 -0.1437
  407loPI   C3B 6511  16.599   5.967   9.144 -0.0006  0.0759  0.1665
  407loPI   C4B 6512  16.756   5.954   8.740 -0.1438 -0.1798  0.1196
  408loPI    C1 6513   8.465   4.255  10.484  0.0245  0.1406 -0.0049
  408loPI    C2 6514   8.329   4.075  10.814  0.1251 -0.0369 -0.0587
  408loPI    C3 6515   8.704   4.213  10.802  0.0729  0.1076 -0.0455
  408loPI   PO4 6516   8.199   4.447  10.428  0.1963 -0.3257 -0.4852
  408loPI   GL1 6517   7.908   4.551  10.247  0.1452 -0.2046 -0.0116
  408loPI   GL2 6518   7.694   4.831  10.342  0.1064 -0.0366  0.2226
  408loPI   C1A 6519   7.705   4.631   9.802  0.1745  0.0696 -0.1746
  408loPI   C2A 6520   7.716   4.756   9.320 -0.3669 -0.0738  0.0207
  408loPI   C3A 6521   7.797   4.753   8.881  0.0307 -0.0691  0.0456
  408loPI   C4A 6522   7.805   4.832   8.448 -0.0147 -0.1947 -0.0146
  408loPI   C5A 6523   8.076   4.465   8.231  0.2086 -0.3424 -0.0094
  408loPI   C6A 6524   8.159   4.054   8.230  0.2191  0.0513 -0.0355
  408loPI   C1B 6525   7.973   5.045   9.991 -0.2826  0.1344 -0.0639
  408loPI   C2B 6526   8.082   5.036   9.557  0.2182  0.0496 -0.2632
  408loPI   C3B 6527   8.149   5.148   9.142  0.0921  0.1141 -0.0234
  408loPI   C4B 6528   8.137   5.174   8.800  0.0992 -0.1653 -0.2133
  409loPI    C1 6529   4.867   9.320  10.795 -0.0228 -0.0181 -0.1199
  409loPI    C2 6530   4.950   8.928  10.805 -0.0027 -0.0125 -0.0667
  409loPI    C3 6531   4.889   9.129  11.146  0.0307  0.0401 -0.0916
  409loPI   PO4 6532   5.096   9.391  10.632 -0.2350  0.0783 -0.0439
  409loPI   GL1 6533   5.332   9.233  10.288 -0.1521  0.6041 -0.0313
  409loPI   GL2 6534   5.458   8.989  10.442  0.1393  0.0695 -0.1133
  409loPI   C1A 6535   5.277   9.489   9.899  0.1791 -0.0385  0.4837
  409loPI   C2A 6536   5.516   9.472   9.541  0.0221  0.2534  0.0794
  409loPI   C3A 6537   5.628   9.426   9.143 -0.0025 -0.2202  0.1758
  409loPI   C4A 6538   5.317   9.455   8.849 -0.2367 -0.3159 -0.1971
  409loPI   C5A 6539   4.974   9.535   8.620 -0.2655  0.0405  0.1091
  409loPI   C6A 6540   4.551   9.510   8.720  0.1260  0.2950  0.1754
  409loPI   C1B 6541   5.181   8.788  10.032  0.1273 -0.1975  0.1738
  409loPI   C2B 6542   5.047   8.721   9.634 -0.0130  0.0398 -0.0408
  409loPI   C3B 6543   4.914   8.686   9.267 -0.0559 -0.0231 -0.3561
  409loPI   C4B 6544   4.970   8.334   8.992 -0.1288 -0.1884  0.2092
  410loPI    C1 6545   4.551  16.790  10.867 -0.0821  0.1185  0.1184
  410loPI    C2 6546   4.517  17.112  11.102  0.1219 -0.0251  0.3492
  410loPI    C3 6547   4.455  16.747  11.253 -0.1088 -0.0966  0.0888
  410loPI   PO4 6548   4.350  16.818  10.688  0.0755 -0.1798  0.1007
  410loPI   GL1 6549   4.355  16.878  10.354 -0.2602 -0.2695  0.1809
  410loPI   GL2 6550   4.191  16.544  10.284 -0.0307 -0.0415 -0.3445
  410loPI   C1A 6551   4.286  17.098   9.942 -0.0954 -0.1634  0.1221
  410loPI   C2A 6552   4.149  17.138   9.517 -0.0992 -0.1261 -0.0574
  410loPI   C3A 6553   4.104  17.032   9.122 -0.2000  0.1402  0.2600
  410loPI   C4A 6554   4.070  16.941   8.661  0.0508  0.2580 -0.0999
  410loPI   C5A 6555   4.088  16.521   8.425 -0.0133  0.1456 -0.3611
  410loPI   C6A 6556   3.901  16.195   8.259  0.0636  0.2862  0.1421
  410loPI   C1B 6557   4.238  16.314   9.903 -0.1133  0.2903  0.0065
  410loPI   C2B 6558   4.465  16.266   9.507 -0.0207 -0.1139 -0.0686
  410loPI   C3B 6559   4.449  16.080   9.056  0.0694 -0.0378 -0.0933
  410loPI   C4B 6560   4.281  15.972   8.621 -0.2474  0.0620  0.1860
  411loPI    C1 6561   5.784  10.637  10.660 -0.0505 -0.1302  0.1434
  411loPI    C2 6562   5.677  10.783  11.017  0.3064  0.0065  0.1987
  411loPI    C3 6563   5.843  10.420  10.991  0.0975 -0.0871  0.1458
  411loPI   PO4 6564   5.828  10.930  10.478  0.0965  0.2678 -0.0710
  411loPI   GL1 6565   5.734  10.923  10.072 -0.0929 -0.0282  0.3955
  411loPI   GL2 6566   5.447  11.119  10.184  0.1314  0.1419  0.0764
  411loPI   C1A 6567   5.843  10.770   9.567  0.0879  0.3787 -0.1916
  411loPI   C2A 6568   5.882  10.876   9.152 -0.0296  0.1235  0.1243
  411loPI   C3A 6569   5.753  10.760   8.798 -0.0219 -0.2507  0.1979
  411loPI   C4A 6570   5.720  10.795   8.414  0.2971  0.2296 -0.2772
  411loPI   C5A 6571   6.064  10.780   8.228 -0.1966  0.3293  0.1140
  411loPI   C6A 6572   6.452  10.712   7.985  0.1827 -0.1286 -0.1319
  411loPI   C1B 6573   5.627  11.387   9.884 -0.2536  0.0802 -0.2447
  411loPI   C2B 6574   5.640  11.337   9.444  0.1139 -0.0392  0.1806
  411loPI   C3B 6575   5.809  11.293   8.966  0.1855 -0.0505 -0.1178
  411loPI   C4B 6576   5.953  11.206   8.565 -0.0951  0.1356  0.3115
  412loPI    C1 6577   1.749  16.910  10.526 -0.2649 -0.2146 -0.1704
  412loPI    C2 6578   2.049  16.950  10.265  0.0663 -0.1407  0.2106
  412loPI    C3 6579   2.015  16.615  10.481 -0.3566 -0.3090 -0.1009
  412loPI   PO4 6580   1.523  17.018  10.404 -0.1344  0.0375 -0.0785
  412loPI   GL1 6581   1.429  17.075   9.971 -0.0723  0.3547 -0.3988
  412loPI   GL2 6582   1.727  17.229   9.960 -0.1713 -0.2580 -0.0985
  412loPI   C1A 6583   1.424  17.033   9.607 -0.0481 -0.2847  0.1131
  412loPI   C2A 6584   1.496  17.080   9.113 -0.0495  0.1727 -0.0453
  412loPI   C3A 6585   1.614  17.094   8.806 -0.0071  0.2423 -0.1186
  412loPI   C4A 6586   1.448  16.958   8.422  0.1593 -0.1948  0.0916
  412loPI   C5A 6587   1.632  16.654   8.127  0.3893 -0.1532 -0.0402
  412loPI   C6A 6588   1.837  16.640   7.727 -0.4148  0.1679  0.4628
  412loPI   C1B 6589   1.728  17.385   9.553  0.1121 -0.0631 -0.0469
  412loPI   C2B 6590   1.843  17.483   9.085  0.2000 -0.0677  0.1655
  412loPI   C3B 6591   1.881  17.509   8.648 -0.1236 -0.1462  0.2690
  412loPI   C4B 6592   1.798  17.390   8.225  0.0456  0.1814  0.1224
  413loPI    C1 6593   3.278  12.968  10.789  0.1825  0.0193  0.0622
  413loPI    C2 6594   3.351  13.333  10.936  0.0575  0.0186  0.1273
  413loPI    C3 6595   3.053  13.113  11.086  0.0293 -0.0456 -0.0212
  413loPI   PO4 6596   3.316  13.028  10.532  0.2497 -0.2723 -0.0739
  413loPI   GL1 6597   3.247  13.213  10.183 -0.0056 -0.3187  0.1144
  413loPI   GL2 6598   3.025  13.395  10.135  0.0871  0.0775 -0.0532
  413loPI   C1A 6599   3.328  13.341   9.691  0.2929 -0.1238  0.1261
  413loPI   C2A 6600   3.320  13.234   9.195 -0.2957 -0.0310  0.1190
  413loPI   C3A 6601   3.475  13.285   8.777 -0.1826 -0.2667  0.0605
  413loPI   C4A 6602   3.474  13.344   8.375 -0.0957 -0.0330 -0.1498
  413loPI   C5A 6603   3.602  13.670   8.120 -0.2820  0.0621 -0.1631
  413loPI   C6A 6604   3.995  13.853   7.856  0.0197 -0.2075 -0.1357
  413loPI   C1B 6605   2.647  13.200   9.871  0.1842  0.4199  0.2502
  413loPI   C2B 6606   2.216  13.156   9.658  0.0891  0.0986  0.4895
  413loPI   C3B 6607   2.032  13.281   9.336  0.1873  0.3092  0.2192
  413loPI   C4B 6608   1.911  13.436   9.040 -0.0889  0.3844  0.3595
  414loPI    C1 6609   0.883   4.874  10.389  0.1148 -0.0907 -0.0840
  414loPI    C2 6610   0.687   4.745  10.713  0.0317 -0.2218 -0.1855
  414loPI    C3 6611   0.539   4.674  10.348  0.0169  0.1073 -0.2461
  414loPI   PO4 6612   1.184   4.863  10.402  0.1627  0.1746  0.2075
  414loPI   GL1 6613   1.304   4.888   9.986  0.4323  0.1745  0.4967
  414loPI   GL2 6614   1.500   5.110   9.830 -0.0780  0.0941 -0.1979
  414loPI   C1A 6615   0.975   4.987   9.729 -0.0794  0.1135  0.1811
  414loPI   C2A 6616   0.975   5.081   9.329  0.0387 -0.2954  0.0611
  414loPI   C3A 6617   1.111   5.097   8.949  0.1066 -0.0988 -0.3458
  414loPI   C4A 6618   0.953   5.032   8.563  0.1722  0.2317 -0.0351
  414loPI   C5A 6619   0.948   4.761   8.249  0.1133  0.1112  0.2600
  414loPI   C6A 6620   1.325   4.429   8.126 -0.0118  0.0384  0.0081
  414loPI   C1B 6621   1.522   5.040   9.436 -0.1172  0.1584 -0.1458
  414loPI   C2B 6622   1.679   5.349   9.119  0.1627 -0.1532 -0.0323
  414loPI   C3B 6623   1.862   5.563   8.818 -0.0787  0.1632  0.1036
  414loPI   C4B 6624   1.761   5.739   8.414  0.0562 -0.2253  0.0008
  415loPI    C1 6625  13.416  14.130  10.504 -0.0066 -0.1065  0.0855
  415loPI    C2 6626  13.111  14.003  10.278 -0.0393 -0.1183  0.1360
  415loPI    C3 6627  13.050  14.284  10.556  0.0503  0.0729 -0.0346
  415loPI   PO4 6628  13.598  13.854  10.473 -0.1176 -0.1052  0.0891
  415loPI   GL1 6629  13.482  13.591  10.064 -0.0855 -0.0037  0.0598
  415loPI   GL2 6630  13.661  13.393  10.257  0.0115 -0.0359  0.2524
  415loPI   C1A 6631  13.437  13.701   9.701 -0.1213 -0.0351 -0.0883
  415loPI   C2A 6632  13.427  13.553   9.245  0.2021  0.3794  0.0383
  415loPI   C3A 6633  13.424  13.552   8.833 -0.1582 -0.3508 -0.0582
  415loPI   C4A 6634  13.432  13.482   8.403  0.0855  0.2376  0.1117
  415loPI   C5A 6635  13.440  13.155   8.171  0.2675  0.0563  0.0689
  415loPI   C6A 6636  13.301  13.000   7.765  0.1636  0.1207  0.0901
  415loPI   C1B 6637  13.768  13.215   9.892 -0.0503  0.1747  0.1974
  415loPI   C2B 6638  13.755  13.201   9.435 -0.1910 -0.1332  0.1873
  415loPI   C3B 6639  13.777  13.091   9.016 -0.1529  0.2356  0.0028
  415loPI   C4B 6640  13.702  13.151   8.626 -0.0441  0.0835 -0.0406
  416loPI    C1 6641  13.030   4.543  11.425  0.0156 -0.1169 -0.0806
  416loPI    C2 6642  12.729   4.806  11.400  0.1239  0.0307  0.1341
  416loPI    C3 6643  12.723   4.522  11.681  0.0366 -0.1618 -0.0590
  416loPI   PO4 6644  13.122   4.591  11.143 -0.0970  0.2007 -0.0420
  416loPI   GL1 6645  12.956   4.701  10.701 -0.0951  0.0529 -0.1313
  416loPI   GL2 6646  13.081   4.498  10.544 -0.2033 -0.1430 -0.2894
  416loPI   C1A 6647  12.549   4.778  10.479  0.1789 -0.1287  0.2139
  416loPI   C2A 6648  12.437   4.921  10.053 -0.0890  0.0729  0.2139
  416loPI   C3A 6649  12.376   5.051   9.643 -0.1432 -0.0111  0.1360
  416loPI   C4A 6650  12.299   5.195   9.323 -0.0999 -0.0773  0.0669
  416loPI   C5A 6651  12.399   5.252   8.845  0.1760 -0.2247  0.0506
  416loPI   C6A 6652  12.186   5.147   8.490 -0.1618 -0.0167 -0.2283
  416loPI   C1B 6653  12.970   4.660  10.221 -0.2277  0.1717  0.0246
  416loPI   C2B 6654  12.820   4.682   9.875  0.0803  0.0527 -0.1192
  416loPI   C3B 6655  12.889   4.810   9.491 -0.1097  0.0150 -0.1359
  416loPI   C4B 6656  12.913   4.611   9.108  0.0738  0.2336 -0.1549
  417loPI    C1 6657  11.244  10.914  11.082 -0.1118 -0.0939 -0.1143
  417loPI    C2 6658  11.517  11.172  10.945 -0.0402 -0.0759  0.0599
  417loPI    C3 6659  11.621  10.894  11.214 -0.1781 -0.1135  0.0749
  417loPI   PO4 6660  11.134  10.900  10.773 -0.2620 -0.4482 -0.1459
  417loPI   GL1 6661  11.315  11.053  10.511  0.1661 -0.1230 -0.0083
  417loPI   GL2 6662  11.346  11.375  10.530  0.2255 -0.2837 -0.0051
  417loPI   C1A 6663  11.541  11.010  10.134 -0.0544 -0.0569 -0.1943
  417loPI   C2A 6664  11.568  10.981   9.696  0.2771  0.2741  0.1586
  417loPI   C3A 6665  11.539  10.980   9.325 -0.1043 -0.0102 -0.1201
  417loPI   C4A 6666  11.487  10.982   8.876 -0.0494 -0.0533 -0.0879
  417loPI   C5A 6667  11.726  10.882   8.637  0.0099  0.2472 -0.0425
  417loPI   C6A 6668  12.123  11.035   8.338  0.0263  0.2863 -0.2301
  417loPI   C1B 6669  11.332  11.442  10.073  0.0731  0.0330 -0.1898
  417loPI   C2B 6670  11.304  11.381   9.598 -0.0552 -0.1750  0.0570
  417loPI   C3B 6671  11.212  11.336   9.159  0.2314  0.1913 -0.0648
  417loPI   C4B 6672  11.162  11.540   8.759  0.2413 -0.2424  0.0078
  418loPI    C1 6673   6.668  11.094  11.033  0.3085  0.1098  0.0056
  418loPI    C2 6674   6.531  10.795  11.260  0.2132  0.2957  0.1972
  418loPI    C3 6675   6.887  10.959  11.339  0.2970  0.1877  0.0486
  418loPI   PO4 6676   6.712  11.046  10.708 -0.0074 -0.1681 -0.0175
  418loPI   GL1 6677   6.892  10.772  10.404 -0.0291  0.0022 -0.1334
  418loPI   GL2 6678   7.191  10.697  10.292 -0.0630 -0.2209  0.4036
  418loPI   C1A 6679   6.737  10.483  10.111  0.0367 -0.0351 -0.0677
  418loPI   C2A 6680   6.853  10.526   9.759 -0.3340 -0.0366 -0.1681
  418loPI   C3A 6681   7.018  10.529   9.417 -0.0672 -0.0825 -0.1605
  418loPI   C4A 6682   7.154  10.631   8.987 -0.0121  0.0920  0.1822
  418loPI   C5A 6683   7.229  10.643   8.573 -0.2730 -0.0517 -0.0058
  418loPI   C6A 6684   6.878  10.848   8.254 -0.3784  0.0879 -0.2632
  418loPI   C1B 6685   7.243  10.947   9.897 -0.1007 -0.2898 -0.0970
  418loPI   C2B 6686   7.286  10.970   9.454 -0.0382 -0.1410  0.3123
  418loPI   C3B 6687   7.344  11.075   9.053 -0.1969  0.0472  0.1756
  418loPI   C4B 6688   7.370  11.106   8.550 -0.0984 -0.0420 -0.0424
  419loPI    C1 6689  16.153   2.344  10.750 -0.1248  0.1174 -0.0105
  419loPI    C2 6690  15.872   2.125  10.568 -0.3311  0.2137  0.1870
  419loPI    C3 6691  16.079   1.971  10.874 -0.0374  0.0786 -0.0743
  419loPI   PO4 6692  15.922   2.614  10.660 -0.0949 -0.1178  0.0721
  419loPI   GL1 6693  15.655   2.672  10.315  0.0648  0.1935  0.2456
  419loPI   GL2 6694  15.864   2.743  10.154  0.4261 -0.0270  0.0188
  419loPI   C1A 6695  15.405   2.805  10.029 -0.0601 -0.0079  0.1392
  419loPI   C2A 6696  15.191   2.787   9.619 -0.2047 -0.1785 -0.2628
  419loPI   C3A 6697  15.125   2.559   9.222 -0.1399  0.1179  0.0503
  419loPI   C4A 6698  15.142   2.340   8.916  0.1932  0.3366  0.1319
  419loPI   C5A 6699  15.124   2.040   8.736 -0.2393 -0.2217  0.0327
  419loPI   C6A 6700  15.077   1.981   8.325 -0.0880 -0.0907  0.0565
  419loPI   C1B 6701  15.737   2.727   9.691 -0.0458 -0.0983  0.0026
  419loPI   C2B 6702  15.597   2.868   9.278  0.1436  0.1880 -0.0401
  419loPI   C3B 6703  15.667   2.930   8.784 -0.0970 -0.0764 -0.0089
  419loPI   C4B 6704  15.604   3.001   8.325 -0.2771 -0.2562 -0.1084
  420loPI    C1 6705   4.050   8.309  11.068  0.1282  0.0060  0.1135
  420loPI    C2 6706   4.332   8.339  11.350  0.1805 -0.0550  0.0682
  420loPI    C3 6707   3.946   8.382  11.447  0.1914 -0.1719  0.1664
  420loPI   PO4 6708   4.163   8.360  10.839 -0.0079 -0.0672 -0.3690
  420loPI   GL1 6709   3.876   8.292  10.460 -0.0716 -0.1127  0.0470
  420loPI   GL2 6710   3.724   8.048  10.334 -0.0057 -0.1847  0.1897
  420loPI   C1A 6711   3.876   8.522  10.103  0.2385  0.0404 -0.0316
  420loPI   C2A 6712   3.900   8.623   9.642  0.1549  0.0100 -0.1838
  420loPI   C3A 6713   3.919   8.620   9.188 -0.0685  0.0180  0.1604
  420loPI   C4A 6714   3.736   8.699   8.780  0.1096  0.1855  0.0919
  420loPI   C5A 6715   3.833   9.066   8.603 -0.1433 -0.0408 -0.0825
  420loPI   C6A 6716   3.774   9.355   8.272  0.1299 -0.1636 -0.0266
  420loPI   C1B 6717   3.622   8.164   9.877 -0.0931  0.1261 -0.1951
  420loPI   C2B 6718   3.595   8.076   9.436 -0.2313  0.1636 -0.1141
  420loPI   C3B 6719   3.559   8.225   9.054 -0.1503 -0.0125 -0.1032
  420loPI   C4B 6720   3.463   8.222   8.586  0.1703 -0.2495 -0.3132
  421loPI    C1 6721   1.154  12.783  10.899  0.0584 -0.0504  0.0147
  421loPI    C2 6722   1.351  12.687  11.234 -0.0172 -0.0570  0.0575
  421loPI    C3 6723   1.214  13.060  11.182  0.1920  0.0044 -0.0663
  421loPI   PO4 6724   0.979  12.596  10.839 -0.0549  0.2215  0.0344
  421loPI   GL1 6725   1.037  12.493  10.391  0.1598 -0.0780 -0.0678
  421loPI   GL2 6726   0.922  12.301  10.159  0.0028 -0.1641 -0.2672
  421loPI   C1A 6727   1.088  12.839  10.087  0.0296 -0.3885  0.0434
  421loPI   C2A 6728   1.300  12.890   9.706 -0.2314 -0.1300  0.0435
  421loPI   C3A 6729   1.535  12.878   9.293  0.0685 -0.1150 -0.0427
  421loPI   C4A 6730   1.718  12.937   8.887  0.1715 -0.2044 -0.1825
  421loPI   C5A 6731   1.725  13.260   8.522  0.1872 -0.1764 -0.2115
  421loPI   C6A 6732   1.627  13.340   8.165  0.0475 -0.1317  0.2494
  421loPI   C1B 6733   1.021  12.518   9.779  0.1364 -0.0016  0.1170
  421loPI   C2B 6734   1.202  12.530   9.347  0.0895  0.0182 -0.1118
  421loPI   C3B 6735   1.121  12.381   8.988  0.1938 -0.0031 -0.0690
  421loPI   C4B 6736   1.078  12.294   8.570 -0.0678  0.1594 -0.0942
  422loPI    C1 6737   0.471   6.697  10.781  0.0767 -0.3149  0.0325
  422loPI    C2 6738   0.093   6.596  10.697 -0.0361  0.1334 -0.0263
  422loPI    C3 6739   0.253   6.496  11.049 -0.1794 -0.1326 -0.0343
  422loPI   PO4 6740   0.591   6.640  10.485  0.1842  0.0788 -0.0776
  422loPI   GL1 6741   0.231   6.514  10.232 -0.2489 -0.1684 -0.0570
  422loPI   GL2 6742  -0.023   6.367  10.137 -0.0319  0.1195 -0.0966
  422loPI   C1A 6743   0.396   6.226   9.885 -0.1264 -0.2580 -0.1771
  422loPI   C2A 6744   0.385   6.321   9.477  0.1198  0.0225  0.1483
  422loPI   C3A 6745   0.524   6.281   9.166  0.4711 -0.2862  0.0976
  422loPI   C4A 6746   0.411   6.322   8.837  0.0705  0.0027  0.1157
  422loPI   C5A 6747   0.485   6.624   8.471 -0.0667  0.0655  0.1493
  422loPI   C6A 6748   0.182   7.014   8.274  0.1513  0.0053 -0.0907
  422loPI   C1B 6749   0.007   6.568   9.759  0.1196  0.1808 -0.1475
  422loPI   C2B 6750  -0.034   6.631   9.347 -0.2163  0.0239  0.2328
  422loPI   C3B 6751   0.081   6.705   8.985  0.1099 -0.1848 -0.0648
  422loPI   C4B 6752  -0.108   6.718   8.561  0.2594 -0.1441  0.1535
  423loPI    C1 6753  11.862  11.374  11.306  0.0343  0.0158  0.1882
  423loPI    C2 6754  11.562  11.602  11.442 -0.0074  0.0215  0.0873
  423loPI    C3 6755  11.890  11.549  11.665 -0.0133  0.1505  0.1269
  423loPI   PO4 6756  11.966  11.435  11.018 -0.0370 -0.2264 -0.1604
  423loPI   GL1 6757  11.917  11.478  10.650  0.3079  0.0564 -0.1218
  423loPI   GL2 6758  11.911  11.203  10.545 -0.0162 -0.1312 -0.0243
  423loPI   C1A 6759  11.852  11.521  10.194 -0.2534 -0.2808  0.0691
  423loPI   C2A 6760  11.750  11.538   9.752 -0.2469  0.0166 -0.3339
  423loPI   C3A 6761  11.708  11.507   9.335 -0.1948  0.0469  0.2241
  423loPI   C4A 6762  11.682  11.520   8.942  0.0865  0.0611  0.1678
  423loPI   C5A 6763  11.701  11.398   8.512  0.1294 -0.3647 -0.3496
  423loPI   C6A 6764  11.293  11.560   8.271  0.2099  0.0901  0.1140
  423loPI   C1B 6765  12.021  11.028  10.175  0.0399  0.1432 -0.0600
  423loPI   C2B 6766  12.031  11.123   9.782 -0.1081 -0.0827  0.2801
  423loPI   C3B 6767  11.997  11.107   9.339 -0.1747  0.1401  0.1201
  423loPI   C4B 6768  12.114  11.024   8.928  0.0398  0.4620 -0.0125
  424loPI    C1 6769   7.556  12.089  10.813 -0.4203 -0.2663 -0.0128
  424loPI    C2 6770   7.344  12.348  10.593 -0.1645 -0.0483 -0.0071
  424loPI    C3 6771   7.532  12.472  10.924 -0.0342 -0.2400 -0.0071
  424loPI   PO4 6772   7.657  11.981  10.568  0.0966 -0.0840 -0.2390
  424loPI   GL1 6773   7.587  11.868  10.228 -0.2489  0.2463 -0.0067
  424loPI   GL2 6774   7.426  12.150  10.138 -0.1457 -0.0156 -0.4011
  424loPI   C1A 6775   7.763  11.883   9.736  0.2325  0.2621 -0.1123
  424loPI   C2A 6776   7.830  11.760   9.250 -0.0053  0.0427  0.0241
  424loPI   C3A 6777   8.063  11.707   8.829  0.3281  0.3279  0.2064
  424loPI   C4A 6778   8.030  11.765   8.447 -0.1311 -0.0915  0.1802
  424loPI   C5A 6779   8.424  11.716   8.166  0.3398 -0.1912  0.1759
  424loPI   C6A 6780   8.653  11.485   7.941 -0.2439  0.0154 -0.1030
  424loPI   C1B 6781   7.476  12.259   9.685  0.1566 -0.3445 -0.1363
  424loPI   C2B 6782   7.576  12.263   9.252  0.1009 -0.1782  0.0603
  424loPI   C3B 6783   7.704  12.046   8.780  0.2373  0.2112 -0.2189
  424loPI   C4B 6784   7.646  12.033   8.311  0.1585  0.4039 -0.2297
  425loPI    C1 6785  11.205  13.205  10.700 -0.0282  0.0152  0.0108
  425loPI    C2 6786  10.949  13.512  10.683  0.0278  0.0552 -0.1215
  425loPI    C3 6787  11.342  13.575  10.637  0.0663 -0.0010  0.1164
  425loPI   PO4 6788  10.987  13.035  10.631 -0.1043  0.0555  0.2615
  425loPI   GL1 6789  10.964  13.107  10.247  0.2559  0.2132  0.2165
  425loPI   GL2 6790  11.084  13.370  10.224  0.1386  0.0520 -0.2319
  425loPI   C1A 6791  10.896  13.047   9.756 -0.0425 -0.1372  0.0648
  425loPI   C2A 6792  10.895  13.166   9.269 -0.0837 -0.2318  0.1557
  425loPI   C3A 6793  10.853  13.117   8.833  0.1318 -0.0744 -0.0372
  425loPI   C4A 6794  10.916  13.060   8.366 -0.0007 -0.1165  0.1456
  425loPI   C5A 6795  11.093  12.916   8.088  0.3084 -0.0701 -0.4775
  425loPI   C6A 6796  11.357  13.126   7.874 -0.1568  0.0706 -0.3318
  425loPI   C1B 6797  11.073  13.590   9.819  0.2065  0.2036 -0.0634
  425loPI   C2B 6798  11.064  13.651   9.408  0.0417 -0.0187  0.1751
  425loPI   C3B 6799  11.009  13.575   9.039 -0.2977  0.0213  0.4946
  425loPI   C4B 6800  11.090  13.558   8.563  0.3706  0.0401 -0.0096
  426loPI    C1 6801  10.603   9.896  11.044 -0.0328 -0.0071 -0.0295
  426loPI    C2 6802  10.288   9.795  11.268 -0.0022 -0.0642 -0.0120
  426loPI    C3 6803  10.589  10.002  11.429 -0.0300 -0.0107 -0.0284
  426loPI   PO4 6804  10.442  10.030  10.769  0.1567  0.0645 -0.1680
  426loPI   GL1 6805  10.694  10.133  10.534 -0.2658 -0.0099 -0.0650
  426loPI   GL2 6806  10.769   9.712  10.545 -0.1691  0.1392  0.1648
  426loPI   C1A 6807  10.613  10.026  10.069 -0.0561  0.1222 -0.1639
  426loPI   C2A 6808  10.699   9.931   9.585  0.0515  0.1638 -0.1909
  426loPI   C3A 6809  10.677  10.008   9.082 -0.1108  0.0803 -0.1063
  426loPI   C4A 6810  10.663  10.030   8.689  0.0088  0.0954  0.1063
  426loPI   C5A 6811  10.871  10.215   8.379 -0.3311  0.1775  0.1403
  426loPI   C6A 6812  11.201  10.474   8.278 -0.1522 -0.1310 -0.2175
  426loPI   C1B 6813  10.898   9.563  10.138  0.0103  0.0379  0.1052
  426loPI   C2B 6814  10.921   9.494   9.710  0.0509  0.0704 -0.0662
  426loPI   C3B 6815  10.916   9.570   9.251 -0.1141  0.3227 -0.0308
  426loPI   C4B 6816  10.989   9.646   8.717  0.0422  0.1207  0.3333
  427loPI    C1 6817   9.750  12.057  10.917 -0.1030  0.1138  0.1176
  427loPI    C2 6818  10.148  12.052  10.877 -0.0968  0.0876  0.1813
  427loPI    C3 6819   9.921  11.818  10.646 -0.0971  0.3501 -0.0904
  427loPI   PO4 6820   9.702  12.331  10.853  0.1218  0.1577  0.0803
  427loPI   GL1 6821   9.588  12.439  10.489  0.0010  0.2096  0.1657
  427loPI   GL2 6822   9.541  12.086  10.446  0.1409 -0.0788 -0.2411
  427loPI   C1A 6823   9.612  12.539  10.111 -0.0423 -0.0201  0.3235
  427loPI   C2A 6824   9.623  12.551   9.706 -0.0651  0.2742 -0.1531
  427loPI   C3A 6825   9.539  12.518   9.211 -0.2118  0.2467 -0.1355
  427loPI   C4A 6826   9.612  12.508   8.802 -0.0267  0.0580  0.2171
  427loPI   C5A 6827   9.432  12.444   8.304 -0.2184 -0.1373  0.3172
  427loPI   C6A 6828   9.141  12.347   7.908  0.0357 -0.2711 -0.0613
  427loPI   C1B 6829   9.527  11.993   9.910  0.1778 -0.1767 -0.0705
  427loPI   C2B 6830   9.410  12.014   9.338  0.1806 -0.0151 -0.0168
  427loPI   C3B 6831   9.442  11.986   8.979  0.0801  0.2000 -0.0635
  427loPI   C4B 6832   9.495  11.928   8.511 -0.0938 -0.2355 -0.2704
  428loPI    C1 6833  13.478   3.924  11.009  0.0238  0.1344  0.0698
  428loPI    C2 6834  13.252   4.101  11.288 -0.1475  0.0349 -0.0044
  428loPI    C3 6835  13.140   4.109  10.904  0.0956  0.1851 -0.0747
  428loPI   PO4 6836  13.773   4.002  10.972  0.0911 -0.1604  0.1260
  428loPI   GL1 6837  13.752   4.159  10.514  0.0587  0.1553 -0.0961
  428loPI   GL2 6838  13.393   4.065  10.489 -0.0378 -0.0711  0.2019
  428loPI   C1A 6839  13.800   4.218  10.081 -0.0115  0.2667  0.1649
  428loPI   C2A 6840  13.711   4.362   9.694 -0.2668  0.0409  0.1641
  428loPI   C3A 6841  13.962   4.471   9.363  0.2158  0.2143 -0.0095
  428loPI   C4A 6842  14.022   4.586   8.929 -0.1978 -0.0834  0.2618
  428loPI   C5A 6843  14.492   4.699   8.787  0.3681 -0.1720  0.1149
  428loPI   C6A 6844  14.799   4.787   8.526 -0.2620 -0.3375  0.1307
  428loPI   C1B 6845  13.299   4.283  10.094  0.1340  0.0642  0.1845
  428loPI   C2B 6846  13.136   4.377   9.639 -0.1700  0.1112  0.1774
  428loPI   C3B 6847  13.412   4.580   9.398 -0.0809 -0.5232  0.3705
  428loPI   C4B 6848  13.493   4.550   9.007  0.1058  0.1907 -0.0046
  429loPI    C1 6849   6.050   6.738  10.792  0.1521  0.1914 -0.2547
  429loPI    C2 6850   6.102   6.354  10.695  0.1895  0.0546  0.2735
  429loPI    C3 6851   5.804   6.459  10.941  0.0449  0.3973 -0.0383
  429loPI   PO4 6852   6.349   6.858  10.766  0.2825  0.1397 -0.4031
  429loPI   GL1 6853   6.620   7.034  10.427  0.3319 -0.0429 -0.0201
  429loPI   GL2 6854   6.295   7.018  10.301 -0.0839  0.0141  0.0733
  429loPI   C1A 6855   6.669   7.313  10.079 -0.0930 -0.2223  0.1072
  429loPI   C2A 6856   6.637   7.250   9.629 -0.3799  0.1436 -0.0261
  429loPI   C3A 6857   6.614   7.414   9.220  0.1465  0.0090 -0.0414
  429loPI   C4A 6858   6.582   7.456   8.874 -0.2378  0.2373 -0.1444
  429loPI   C5A 6859   6.500   7.363   8.432  0.1985 -0.0717 -0.2796
  429loPI   C6A 6860   6.476   7.097   8.035  0.0460  0.0289 -0.0535
  429loPI   C1B 6861   6.204   7.195   9.864  0.1560 -0.2083 -0.1100
  429loPI   C2B 6862   6.135   7.179   9.461 -0.1367 -0.2323 -0.0950
  429loPI   C3B 6863   6.272   7.023   9.083  0.1952 -0.0441  0.1064
  429loPI   C4B 6864   6.258   7.021   8.698 -0.0843 -0.2098 -0.0064
  430loPI    C1 6865  11.159  12.721  11.358  0.1307  0.1972  0.0143
  430loPI    C2 6866  10.793  12.733  11.196  0.0398 -0.1991  0.1771
  430loPI    C3 6867  10.862  12.911  11.548  0.1232  0.2665 -0.0663
  430loPI   PO4 6868  11.291  12.823  11.088  0.1313  0.2231  0.3380
  430loPI   GL1 6869  11.449  12.726  10.663  0.0186 -0.1406 -0.2505
  430loPI   GL2 6870  11.416  12.886  10.362 -0.3413 -0.0214 -0.0171
  430loPI   C1A 6871  11.511  12.366  10.272  0.3177 -0.0505  0.1439
  430loPI   C2A 6872  11.610  12.388   9.781 -0.0134 -0.2068  0.0013
  430loPI   C3A 6873  11.540  12.325   9.343 -0.1085  0.1011  0.0849
  430loPI   C4A 6874  11.571  12.386   8.850  0.0731 -0.0089 -0.0871
  430loPI   C5A 6875  11.640  12.381   8.437  0.0771  0.1546  0.3877
  430loPI   C6A 6876  11.762  12.316   8.054 -0.0666 -0.1890 -0.2388
  430loPI   C1B 6877  11.227  12.692   9.917 -0.4222 -0.1070 -0.1100
  430loPI   C2B 6878  11.145  12.764   9.399 -0.0248 -0.1925  0.0637
  430loPI   C3B 6879  11.210  12.793   8.979  0.1193  0.3377 -0.1210
  430loPI   C4B 6880  11.244  12.724   8.569 -0.0541 -0.1636  0.0389
  431loPI    C1 6881   6.665  14.856  10.776  0.2579  0.0674 -0.0041
  431loPI    C2 6882   6.985  14.952  10.996  0.1476  0.0737  0.1552
  431loPI    C3 6883   6.619  14.970  11.157  0.0765 -0.0441  0.0085
  431loPI   PO4 6884   6.708  14.709  10.650  0.1404 -0.0015 -0.2795
  431loPI   GL1 6885   6.796  14.531  10.248 -0.1233  0.1336 -0.0679
  431loPI   GL2 6886   6.527  14.628  10.087 -0.0429  0.3580  0.1484
  431loPI   C1A 6887   6.979  14.770   9.869  0.2676  0.2356 -0.3818
  431loPI   C2A 6888   7.098  14.875   9.374  0.1315  0.3186 -0.2328
  431loPI   C3A 6889   7.197  15.000   8.879 -0.1441 -0.2225 -0.1633
  431loPI   C4A 6890   7.331  15.277   8.536  0.0620  0.0137 -0.0764
  431loPI   C5A 6891   7.209  15.618   8.198 -0.0594 -0.0470 -0.2624
  431loPI   C6A 6892   7.122  16.019   7.936  0.1123  0.0800  0.0211
  431loPI   C1B 6893   6.595  14.572   9.697  0.0925  0.0077  0.0687
  431loPI   C2B 6894   6.532  14.356   9.300 -0.0762 -0.1382 -0.0040
  431loPI   C3B 6895   6.470  14.303   8.847 -0.0257  0.0439  0.1802
  431loPI   C4B 6896   6.364  14.354   8.429 -0.1935  0.2284 -0.1785
  432loPI    C1 6897   2.690  16.031  10.696  0.2037 -0.0145 -0.3275
  432loPI    C2 6898   2.813  16.409  10.651  0.2015  0.0283  0.0058
  432loPI    C3 6899   2.810  16.241  11.014 -0.1969 -0.1547 -0.0760
  432loPI   PO4 6900   2.755  15.942  10.449  0.2876 -0.0890  0.0436
  432loPI   GL1 6901   2.680  15.958   9.991  0.0597  0.1938  0.1904
  432loPI   GL2 6902   2.384  16.081   9.841  0.1514  0.0434  0.1869
  432loPI   C1A 6903   2.564  15.584   9.704  0.2265  0.0115  0.0295
  432loPI   C2A 6904   2.314  15.440   9.300  0.1947  0.1083  0.1565
  432loPI   C3A 6905   2.070  15.362   8.932 -0.0630 -0.0089  0.0868
  432loPI   C4A 6906   1.933  15.339   8.555 -0.2246  0.0902 -0.0943
  432loPI   C5A 6907   1.984  14.997   8.282  0.1067  0.2740 -0.2115
  432loPI   C6A 6908   2.193  14.698   8.083 -0.1190 -0.0688 -0.0374
  432loPI   C1B 6909   2.426  16.026   9.362  0.0201  0.2069  0.0818
  432loPI   C2B 6910   2.584  16.055   8.878  0.0706 -0.2672 -0.3017
  432loPI   C3B 6911   2.888  16.308   8.738  0.1275 -0.2104  0.0796
  432loPI   C4B 6912   3.271  16.229   8.604 -0.2099  0.1250  0.1694
  433loPI    C1 6913   4.884   1.892  10.864 -0.2393  0.1060  0.0038
  433loPI    C2 6914   4.544   1.952  10.661 -0.2929  0.1735  0.1124
  433loPI    C3 6915   4.542   1.957  11.061 -0.1770  0.1014  0.1145
  433loPI   PO4 6916   4.997   1.645  10.767  0.1126 -0.0811  0.1092
  433loPI   GL1 6917   4.859   1.669  10.366  0.1804  0.0744 -0.0466
  433loPI   GL2 6918   4.611   1.692  10.157 -0.3036 -0.2285 -0.2058
  433loPI   C1A 6919   4.998   1.794   9.848 -0.0883 -0.0303 -0.2411
  433loPI   C2A 6920   4.811   1.839   9.487  0.2083  0.1761  0.1478
  433loPI   C3A 6921   4.797   1.954   9.112  0.0963 -0.0123  0.1131
  433loPI   C4A 6922   4.698   1.889   8.696  0.2074  0.0784 -0.1804
  433loPI   C5A 6923   4.607   1.704   8.343 -0.1721  0.4441  0.2172
  433loPI   C6A 6924   4.532   1.906   7.981 -0.2943  0.1268 -0.1001
  433loPI   C1B 6925   4.444   1.920   9.829  0.3711  0.2351 -0.3475
  433loPI   C2B 6926   4.357   2.080   9.407 -0.1092  0.0009 -0.0286
  433loPI   C3B 6927   4.211   1.900   8.932 -0.1537  0.1263 -0.0294
  433loPI   C4B 6928   4.178   1.986   8.469  0.1939 -0.1748 -0.0067
  434loPI    C1 6929   8.654  15.731  10.593 -0.1179  0.1675 -0.1069
  434loPI    C2 6930   9.043  15.672  10.665 -0.1069  0.1616 -0.1707
  434loPI    C3 6931   8.841  15.950  10.870 -0.1721 -0.1318  0.1732
  434loPI   PO4 6932   8.612  15.464  10.536  0.2989  0.0598 -0.2059
  434loPI   GL1 6933   8.836  15.167  10.261 -0.2901  0.1280  0.0679
  434loPI   GL2 6934   8.545  14.982  10.338  0.4334 -0.2047  0.4762
  434loPI   C1A 6935   8.976  15.086   9.768  0.0946 -0.0842  0.0376
  434loPI   C2A 6936   9.010  14.821   9.343  0.0863 -0.1891  0.0079
  434loPI   C3A 6937   9.129  14.697   8.890 -0.2370 -0.1758  0.2379
  434loPI   C4A 6938   9.272  14.717   8.442  0.3985 -0.1723 -0.0009
  434loPI   C5A 6939   9.363  15.028   8.109  0.0180  0.2829 -0.0117
  434loPI   C6A 6940   9.508  15.157   7.678  0.2621 -0.0274 -0.0903
  434loPI   C1B 6941   8.469  14.912   9.903  0.1737  0.0428 -0.2806
  434loPI   C2B 6942   8.515  14.765   9.463  0.1100 -0.0817  0.0519
  434loPI   C3B 6943   8.576  14.685   8.953 -0.2507  0.1627 -0.2018
  434loPI   C4B 6944   8.596  14.593   8.437 -0.0324 -0.2933 -0.2740
  435loPI    C1 6945   7.093  10.232  10.994 -0.0529 -0.3079  0.1578
  435loPI    C2 6946   7.144  10.517  11.270 -0.1108 -0.1483  0.0054
  435loPI    C3 6947   6.791  10.333  11.236 -0.0824 -0.2178  0.0841
  435loPI   PO4 6948   7.232  10.280  10.821 -0.0233 -0.0994 -0.0419
  435loPI   GL1 6949   7.624  10.284  10.605  0.2714  0.2125  0.0813
  435loPI   GL2 6950   7.621  10.552  10.498 -0.1448 -0.2387 -0.1450
  435loPI   C1A 6951   7.681   9.950  10.306 -0.0148 -0.1274  0.1425
  435loPI   C2A 6952   7.592   9.993   9.791 -0.2053 -0.0049  0.0729
  435loPI   C3A 6953   7.789  10.047   9.422 -0.0730  0.0632  0.2353
  435loPI   C4A 6954   7.865  10.195   8.983 -0.1361  0.1750 -0.0571
  435loPI   C5A 6955   8.052  10.343   8.601  0.0329 -0.2142 -0.1496
  435loPI   C6A 6956   8.195  10.734   8.334 -0.0047 -0.1540 -0.2193
  435loPI   C1B 6957   7.682  10.469  10.132 -0.0148 -0.1905 -0.0372
  435loPI   C2B 6958   7.852  10.481   9.744 -0.0402  0.3432  0.1576
  435loPI   C3B 6959   7.985  10.499   9.363  0.3434 -0.0429  0.2374
  435loPI   C4B 6960   8.275  10.342   9.193  0.1966 -0.0165 -0.1372
  436loPI    C1 6961  16.306  12.418  10.555 -0.1347  0.0313 -0.0219
  436loPI    C2 6962  16.359  12.221  10.899 -0.1457 -0.0150 -0.0464
  436loPI    C3 6963  16.657  12.440  10.746 -0.0177 -0.2872 -0.1920
  436loPI   PO4 6964  16.042  12.475  10.507  0.1898 -0.0972  0.0653
  436loPI   GL1 6965  15.683  12.333  10.283 -0.1119  0.0215  0.2894
  436loPI   GL2 6966  15.388  12.447  10.433 -0.1581  0.1858 -0.0382
  436loPI   C1A 6967  15.833  12.288   9.865  0.1746  0.0209  0.2020
  436loPI   C2A 6968  15.811  12.381   9.452 -0.1390  0.1737  0.1538
  436loPI   C3A 6969  15.820  12.263   9.098  0.1169 -0.1719 -0.2510
  436loPI   C4A 6970  15.758  12.134   8.679 -0.0523  0.0216  0.0362
  436loPI   C5A 6971  15.913  12.056   8.222  0.0220 -0.0967 -0.0222
  436loPI   C6A 6972  16.014  12.184   7.833  0.3291 -0.0101  0.3208
  436loPI   C1B 6973  15.276  12.221  10.073  0.1925  0.3192 -0.1770
  436loPI   C2B 6974  15.355  12.299   9.630 -0.2760 -0.1752  0.0585
  436loPI   C3B 6975  15.258  12.184   9.126 -0.0662 -0.0472 -0.0183
  436loPI   C4B 6976  15.300  12.005   8.787  0.1092  0.1885  0.1128
  437loPI    C1 6977  12.837   1.771  10.704  0.3344  0.1283 -0.0089
  437loPI    C2 6978  12.657   2.063  10.910 -0.0756 -0.1108 -0.0172
  437loPI    C3 6979  12.807   1.745  11.102  0.2083  0.0152 -0.0251
  437loPI   PO4 6980  12.849   1.875  10.479  0.2963 -0.0520 -0.1612
  437loPI   GL1 6981  12.987   1.988  10.078  0.0650 -0.1964  0.2061
  437loPI   GL2 6982  13.027   1.671  10.047  0.0780 -0.1751  0.1030
  437loPI   C1A 6983  13.083   2.124   9.656 -0.1744  0.0770  0.5576
  437loPI   C2A 6984  13.147   2.262   9.197  0.1982  0.1539 -0.0077
  437loPI   C3A 6985  13.126   2.338   8.757 -0.3106 -0.3056 -0.2159
  437loPI   C4A 6986  13.066   2.442   8.302  0.0580  0.1477  0.2661
  437loPI   C5A 6987  12.815   2.782   8.230 -0.1800  0.1249 -0.0781
  437loPI   C6A 6988  12.463   3.116   8.330 -0.0079 -0.2759  0.0996
  437loPI   C1B 6989  13.338   1.393   9.821  0.1548  0.2467 -0.1589
  437loPI   C2B 6990  13.631   1.306   9.469  0.1701  0.1297  0.1562
  437loPI   C3B 6991  13.850   1.333   9.154 -0.0036 -0.2701 -0.0592
  437loPI   C4B 6992  13.641   1.394   8.762 -0.0341 -0.0386 -0.0826
  438loPI    C1 6993  16.849  14.921  10.619 -0.0684 -0.0662  0.0506
  438loPI    C2 6994  16.550  14.831  10.868 -0.0239  0.1123  0.1703
  438loPI    C3 6995  16.614  15.211  10.761  0.1605  0.0754  0.1462
  438loPI   PO4 6996  16.802  14.804  10.419  0.1575  0.2727 -0.1094
  438loPI   GL1 6997  16.920  14.496  10.236  0.0060  0.0692  0.1854
  438loPI   GL2 6998  16.878  14.223  10.210 -0.2146 -0.0488 -0.0870
  438loPI   C1A 6999  16.952  14.550   9.791 -0.1740 -0.2174 -0.0849
  438loPI   C2A 7000  16.976  14.450   9.359 -0.2597  0.2701 -0.0807
  438loPI   C3A 7001  16.943  14.279   9.008 -0.2702 -0.0023 -0.0304
  438loPI   C4A 7002  17.075  14.324   8.540 -0.1272 -0.2148  0.0600
  438loPI   C5A 7003  17.014  14.108   8.173  0.2901 -0.3114  0.1545
  438loPI   C6A 7004  16.992  14.109   7.675 -0.0057  0.1058  0.0341
  438loPI   C1B 7005  16.895  14.006   9.796 -0.0883  0.1804  0.0958
  438loPI   C2B 7006  16.804  13.966   9.376  0.0903 -0.0310 -0.0442
  438loPI   C3B 7007  16.925  13.730   9.027  0.2602 -0.0056 -0.0161
  438loPI   C4B 7008  17.039  13.796   8.641 -0.0861 -0.0990  0.1537
  439loPI    C1 7009  16.452  18.006  10.406  0.0541  0.0209  0.3048
  439loPI    C2 7010  16.312  18.258  10.683  0.0847  0.1399  0.2125
  439loPI    C3 7011  16.691  18.132  10.700  0.1428  0.2999  0.1162
  439loPI   PO4 7012  16.401  18.122  10.202  0.2298  0.0456 -0.0551
  439loPI   GL1 7013  15.958  17.924   9.986 -0.1145 -0.0407 -0.0583
  439loPI   GL2 7014  16.159  17.705   9.964 -0.4233  0.2428  0.1800
  439loPI   C1A 7015  15.969  17.993   9.570 -0.3030  0.0551 -0.0464
  439loPI   C2A 7016  16.055  17.989   9.135  0.0104  0.0734 -0.0072
  439loPI   C3A 7017  16.249  17.817   8.744  0.2906 -0.1509  0.1009
  439loPI   C4A 7018  16.501  17.911   8.395 -0.0715 -0.1051 -0.3405
  439loPI   C5A 7019  16.783  17.634   8.238  0.1215  0.0999  0.2096
  439loPI   C6A 7020  17.176  17.732   8.109  0.0907  0.2728  0.2150
  439loPI   C1B 7021  16.144  17.464   9.514 -0.0736 -0.2038 -0.0029
  439loPI   C2B 7022  16.334  17.423   9.159 -0.4328  0.0293  0.4516
  439loPI   C3B 7023  16.508  17.354   8.804 -0.0321 -0.0174  0.2070
  439loPI   C4B 7024  16.690  17.217   8.524 -0.0451  0.0324  0.2116
  440loPI    C1 7025   2.532   1.176  10.470 -0.1740  0.1165  0.0230
  440loPI    C2 7026   2.329   1.506  10.571 -0.2377  0.0132  0.2380
  440loPI    C3 7027   2.181   1.145  10.658 -0.3059 -0.0830 -0.2500
  440loPI   PO4 7028   2.694   1.316  10.314  0.1630  0.1156 -0.1048
  440loPI   GL1 7029   2.821   1.361   9.948  0.0531  0.0852 -0.3392
  440loPI   GL2 7030   2.754   1.733   9.877  0.2890 -0.2076 -0.3063
  440loPI   C1A 7031   2.436   1.373   9.610 -0.0907 -0.0999  0.1674
  440loPI   C2A 7032   2.384   1.455   9.239  0.0151 -0.0946 -0.0951
  440loPI   C3A 7033   2.418   1.523   8.803 -0.2552 -0.1151  0.0823
  440loPI   C4A 7034   2.296   1.570   8.313  0.1613 -0.0041  0.1194
  440loPI   C5A 7035   2.114   1.330   7.982 -0.2547  0.2240  0.3209
  440loPI   C6A 7036   1.981   1.260   7.676  0.2177 -0.0522  0.0533
  440loPI   C1B 7037   2.544   1.827   9.455 -0.1360  0.2907  0.0422
  440loPI   C2B 7038   2.671   1.936   9.050 -0.0831 -0.0183 -0.2252
  440loPI   C3B 7039   2.773   1.946   8.651 -0.1524  0.0031  0.0200
  440loPI   C4B 7040   2.614   1.874   8.168 -0.0812 -0.1477  0.0151
  441loPI    C1 7041  12.982   6.379  11.355  0.0745  0.1415 -0.1579
  441loPI    C2 7042  13.348   6.254  11.252  0.0728  0.0027 -0.0002
  441loPI    C3 7043  13.252   6.296  11.638 -0.0312  0.1813 -0.0442
  441loPI   PO4 7044  12.892   6.508  11.130 -0.2508 -0.0337  0.2105
  441loPI   GL1 7045  12.947   6.503  10.718  0.4430  0.0130  0.1147
  441loPI   GL2 7046  13.215   6.490  10.681  0.0686  0.4081  0.1827
  441loPI   C1A 7047  12.975   6.743  10.310 -0.3074 -0.0433 -0.1401
  441loPI   C2A 7048  13.144   6.812   9.889 -0.1136 -0.1143  0.0727
  441loPI   C3A 7049  13.343   6.691   9.507  0.3141 -0.3066  0.0749
  441loPI   C4A 7050  13.371   6.776   9.009 -0.0763 -0.1076 -0.0979
  441loPI   C5A 7051  13.195   6.947   8.573  0.1132 -0.2543  0.0750
  441loPI   C6A 7052  12.838   7.130   8.377 -0.0841 -0.0617  0.3216
  441loPI   C1B 7053  13.405   6.497  10.177 -0.2507  0.0094  0.1541
  441loPI   C2B 7054  13.670   6.407   9.854 -0.0155  0.1236  0.1637
  441loPI   C3B 7055  13.731   6.292   9.427  0.2689 -0.1891 -0.1586
  441loPI   C4B 7056  13.713   6.327   8.963  0.2059  0.0169 -0.0376
  442loPI    C1 7057  12.543  13.695  10.985 -0.3644 -0.0747  0.0969
  442loPI    C2 7058  12.471  13.329  11.130  0.0583 -0.2757 -0.1805
  442loPI    C3 7059  12.794  13.532  11.250 -0.1145 -0.0365 -0.1123
  442loPI   PO4 7060  12.404  13.688  10.712  0.2168  0.0069 -0.3968
  442loPI   GL1 7061  12.291  13.651  10.415 -0.1467 -0.2590 -0.2253
  442loPI   GL2 7062  12.428  13.281  10.306 -0.3143  0.2403 -0.2636
  442loPI   C1A 7063  12.352  13.615   9.937  0.1242 -0.2582  0.3004
  442loPI   C2A 7064  12.526  13.714   9.564  0.0503 -0.1381 -0.1791
  442loPI   C3A 7065  12.486  13.505   9.192 -0.3535  0.0117  0.3320
  442loPI   C4A 7066  12.416  13.542   8.794 -0.0235  0.1056 -0.0594
  442loPI   C5A 7067  12.559  13.243   8.502  0.1823 -0.2025 -0.0809
  442loPI   C6A 7068  12.713  13.050   8.146 -0.0388 -0.5722  0.3209
  442loPI   C1B 7069  12.230  12.990  10.078 -0.0242 -0.0528 -0.0443
  442loPI   C2B 7070  12.175  12.867   9.698 -0.0981  0.1453 -0.1028
  442loPI   C3B 7071  12.187  12.836   9.289 -0.0779 -0.0920  0.1644
  442loPI   C4B 7072  12.255  12.912   8.862  0.1622 -0.3005 -0.0917
  443loPI    C1 7073   1.664   8.589  10.974 -0.0507 -0.0561 -0.0579
  443loPI    C2 7074   1.304   8.671  10.820  0.0542  0.0667 -0.2407
  443loPI    C3 7075   1.333   8.505  11.182 -0.1784  0.3261 -0.0989
  443loPI   PO4 7076   1.826   8.554  10.710  0.2150  0.0283 -0.1599
  443loPI   GL1 7077   1.536   8.726  10.366 -0.2336  0.2079  0.0728
  443loPI   GL2 7078   1.569   9.122  10.283  0.1906  0.1536  0.0234
  443loPI   C1A 7079   1.750   8.641  10.038  0.1281 -0.2740  0.1898
  443loPI   C2A 7080   1.741   8.653   9.562  0.0941  0.1772 -0.3996
  443loPI   C3A 7081   1.731   8.645   9.067 -0.0136  0.0749  0.1169
  443loPI   C4A 7082   1.407   8.626   8.790  0.2203  0.1668 -0.3389
  443loPI   C5A 7083   1.267   8.492   8.311 -0.4989  0.0219  0.3499
  443loPI   C6A 7084   1.473   8.476   7.865  0.0855  0.1011  0.3779
  443loPI   C1B 7085   1.531   9.088   9.879 -0.0038  0.1683 -0.0516
  443loPI   C2B 7086   1.511   9.047   9.484 -0.0293 -0.0093 -0.1122
  443loPI   C3B 7087   1.417   9.112   9.189 -0.1709 -0.2305 -0.2815
  443loPI   C4B 7088   1.404   9.126   8.759 -0.4482 -0.2715  0.0943
  444loPI    C1 7089   8.188  15.228  10.722 -0.0051 -0.0367  0.2678
  444loPI    C2 7090   8.005  14.876  10.772  0.0473 -0.1061 -0.0133
  444loPI    C3 7091   8.378  14.928  10.907  0.0511 -0.1693  0.0007
  444loPI   PO4 7092   8.110  15.291  10.508  0.1444  0.1482 -0.2285
  444loPI   GL1 7093   7.899  15.413  10.168  0.1446  0.1032  0.0597
  444loPI   GL2 7094   7.661  15.207  10.256 -0.1741 -0.1064  0.0861
  444loPI   C1A 7095   7.837  15.592   9.812  0.1945 -0.1018 -0.0044
  444loPI   C2A 7096   8.040  15.549   9.341 -0.1386  0.0319 -0.0757
  444loPI   C3A 7097   8.265  15.448   8.874 -0.1277 -0.0598  0.1393
  444loPI   C4A 7098   8.248  15.633   8.390 -0.1237  0.0966  0.1179
  444loPI   C5A 7099   8.439  15.347   8.166  0.1414  0.1702  0.0665
  444loPI   C6A 7100   8.322  14.937   8.175  0.0433 -0.0656 -0.0690
  444loPI   C1B 7101   7.458  15.188   9.800 -0.1425  0.0392 -0.2046
  444loPI   C2B 7102   7.532  15.305   9.377  0.3483  0.3377  0.0056
  444loPI   C3B 7103   7.680  15.386   8.961 -0.3526 -0.0624 -0.2803
  444loPI   C4B 7104   7.781  15.650   8.623 -0.2444 -0.2688  0.1121
  445loPI    C1 7105   1.641   2.934  10.619  0.1773 -0.2417  0.1830
  445loPI    C2 7106   1.644   2.855  11.011  0.1974 -0.0012  0.2327
  445loPI    C3 7107   1.328   3.037  10.846  0.2081 -0.0613  0.1452
  445loPI   PO4 7108   1.642   2.700  10.507  0.3460 -0.1052  0.3071
  445loPI   GL1 7109   1.416   2.646  10.096  0.2138  0.0464 -0.0897
  445loPI   GL2 7110   1.727   2.548   9.997  0.0834  0.2661 -0.1880
  445loPI   C1A 7111   1.149   2.800   9.753 -0.0821  0.2638 -0.0025
  445loPI   C2A 7112   0.890   2.703   9.272  0.1907 -0.1984 -0.0909
  445loPI   C3A 7113   0.936   2.432   8.950  0.2583 -0.1845 -0.1366
  445loPI   C4A 7114   0.968   2.284   8.564 -0.1494 -0.0428 -0.1990
  445loPI   C5A 7115   1.001   2.160   8.101  0.1508 -0.1710  0.3747
  445loPI   C6A 7116   1.205   1.992   7.722 -0.0029  0.0978 -0.1627
  445loPI   C1B 7117   1.456   2.339   9.651  0.3881  0.1152  0.4883
  445loPI   C2B 7118   1.164   2.204   9.384  0.2294 -0.0688  0.1483
  445loPI   C3B 7119   1.347   2.105   9.028  0.3080 -0.0060 -0.1279
  445loPI   C4B 7120   1.718   1.994   8.767 -0.2838  0.2871  0.1883
  446loPI    C1 7121  11.121  14.159  10.885 -0.1049  0.0246  0.0907
  446loPI    C2 7122  11.138  14.521  10.717  0.0425 -0.0341 -0.0232
  446loPI    C3 7123  11.306  14.458  11.075  0.0119  0.0111 -0.0008
  446loPI   PO4 7124  11.105  14.008  10.585  0.1406 -0.1426  0.1925
  446loPI   GL1 7125  11.114  14.127  10.174 -0.3583 -0.0307  0.0310
  446loPI   GL2 7126  11.327  13.902  10.122 -0.0107  0.1728 -0.0986
  446loPI   C1A 7127  11.018  14.137   9.825 -0.0214  0.0964  0.2906
  446loPI   C2A 7128  11.181  14.169   9.496 -0.0556  0.1160  0.1241
  446loPI   C3A 7129  11.181  14.069   9.137  0.1778  0.3666  0.4265
  446loPI   C4A 7130  11.288  14.050   8.727 -0.0504 -0.0188  0.2056
  446loPI   C5A 7131  11.280  13.989   8.330 -0.1039 -0.0326 -0.1746
  446loPI   C6A 7132  11.402  13.652   8.025 -0.2007 -0.1755 -0.1492
  446loPI   C1B 7133  11.544  13.737   9.737  0.0029 -0.2778 -0.1037
  446loPI   C2B 7134  11.523  13.745   9.320  0.0087  0.2916 -0.0149
  446loPI   C3B 7135  11.534  13.653   8.861 -0.2127  0.5104 -0.1087
  446loPI   C4B 7136  11.595  13.623   8.509 -0.0731 -0.1904  0.0300
  447loPI    C1 7137   0.821  11.817  11.114  0.0176 -0.0179  0.1266
  447loPI    C2 7138   0.460  11.663  11.191 -0.0557  0.1322  0.0847
  447loPI    C3 7139   0.668  11.841  11.483 -0.0414  0.0992  0.0946
  447loPI   PO4 7140   0.902  11.650  10.900  0.0623  0.1222 -0.0849
  447loPI   GL1 7141   0.926  11.609  10.456 -0.0481 -0.3698 -0.2629
  447loPI   GL2 7142   0.665  11.835  10.431  0.1145 -0.1394 -0.0659
  447loPI   C1A 7143   1.208  11.865  10.112 -0.1889 -0.0305  0.0525
  447loPI   C2A 7144   1.307  12.053   9.799  0.1118 -0.1822  0.1138
  447loPI   C3A 7145   1.599  12.351   9.568 -0.0895 -0.1927  0.1231
  447loPI   C4A 7146   1.682  12.431   9.161  0.0097 -0.1680 -0.2968
  447loPI   C5A 7147   1.554  12.522   8.731 -0.0513 -0.0585  0.0387
  447loPI   C6A 7148   1.376  12.706   8.371 -0.0613 -0.1843  0.1912
  447loPI   C1B 7149   0.639  11.940  10.065 -0.3834  0.1195 -0.0087
  447loPI   C2B 7150   0.811  12.062   9.695 -0.0115 -0.2484 -0.0295
  447loPI   C3B 7151   0.800  12.160   9.320 -0.0941  0.2116 -0.0996
  447loPI   C4B 7152   0.891  11.943   8.961 -0.3061  0.0836 -0.2915
  448loPI    C1 7153  12.507   3.168  10.747  0.0464 -0.1196  0.4642
  448loPI    C2 7154  12.621   2.785  10.726  0.0239 -0.1011 -0.2922
  448loPI    C3 7155  12.245   2.887  10.636  0.0279  0.1024 -0.0885
  448loPI   PO4 7156  12.679   3.290  10.619  0.0873 -0.1061  0.2392
  448loPI   GL1 7157  12.683   3.652  10.313  0.2285 -0.1085  0.0888
  448loPI   GL2 7158  12.882   3.901  10.450 -0.2978 -0.1127  0.2095
  448loPI   C1A 7159  12.590   3.555   9.844 -0.0248 -0.2154  0.0348
  448loPI   C2A 7160  12.525   3.575   9.327  0.2695  0.3207  0.0613
  448loPI   C3A 7161  12.351   3.666   8.877  0.2606  0.3128 -0.2302
  448loPI   C4A 7162  12.516   3.751   8.447 -0.0401 -0.0777  0.0711
  448loPI   C5A 7163  12.486   4.028   7.999  0.0435 -0.0216  0.2776
  448loPI   C6A 7164  12.202   4.381   7.794  0.1292 -0.1369  0.1865
  448loPI   C1B 7165  12.818   4.047  10.032 -0.0072 -0.0830  0.3307
  448loPI   C2B 7166  12.561   4.006   9.646  0.2152 -0.3484  0.0796
  448loPI   C3B 7167  12.698   4.062   9.239 -0.1925 -0.3382 -0.1471
  448loPI   C4B 7168  12.823   3.952   8.797  0.3017 -0.0344 -0.0621
  449loPI    C1 7169   5.840   9.079  11.195  0.2387 -0.3073 -0.0486
  449loPI    C2 7170   5.632   8.793  11.383  0.0535 -0.1753 -0.0491
  449loPI    C3 7171   5.979   8.922  11.536 -0.1039 -0.0569  0.2132
  449loPI   PO4 7172   5.806   9.010  10.817  0.2420 -0.3844 -0.1523
  449loPI   GL1 7173   5.982   9.133  10.410  0.0663 -0.1564  0.1114
  449loPI   GL2 7174   6.207   9.423  10.371  0.2103  0.0281 -0.1300
  449loPI   C1A 7175   5.727   9.293  10.057 -0.3217  0.0968 -0.2683
  449loPI   C2A 7176   5.456   9.021   9.757 -0.0878  0.0758 -0.0527
  449loPI   C3A 7177   5.522   8.961   9.351  0.1702 -0.1974 -0.1425
  449loPI   C4A 7178   5.662   9.024   8.867  0.0249 -0.1476  0.1662
  449loPI   C5A 7179   5.322   9.087   8.554  0.3743  0.0849  0.2594
  449loPI   C6A 7180   5.022   8.885   8.227  0.1330 -0.1727 -0.2752
  449loPI   C1B 7181   6.513   9.559  10.047  0.0764  0.1728  0.4449
  449loPI   C2B 7182   6.601   9.563   9.600 -0.1643  0.2957  0.1824
  449loPI   C3B 7183   6.929   9.635   9.363 -0.0749 -0.2345 -0.0083
  449loPI   C4B 7184   7.027   9.584   9.054 -0.0499 -0.1023 -0.0473
  450loPI    C1 7185   5.989   1.783  10.704  0.2165 -0.1184 -0.0242
  450loPI    C2 7186   6.035   2.176  10.759 -0.0806 -0.0373 -0.3208
  450loPI    C3 7187   5.833   1.959  11.027 -0.0765  0.0459 -0.2499
  450loPI   PO4 7188   5.990   1.781  10.451  0.0533 -0.1427 -0.2020
  450loPI   GL1 7189   5.771   1.457  10.116 -0.0656 -0.1285  0.1322
  450loPI   GL2 7190   5.840   1.065  10.092 -0.0482  0.3823  0.1183
  450loPI   C1A 7191   6.018   1.487   9.763  0.1204 -0.0024  0.1881
  450loPI   C2A 7192   6.281   1.660   9.432  0.6425  0.0138 -0.2297
  450loPI   C3A 7193   6.424   1.594   9.088  0.1019  0.1641  0.2022
  450loPI   C4A 7194   6.580   1.658   8.741 -0.0211  0.0203  0.0932
  450loPI   C5A 7195   6.423   1.699   8.324 -0.1232 -0.0039 -0.0311
  450loPI   C6A 7196   6.497   1.896   7.928 -0.0304  0.2614 -0.0737
  450loPI   C1B 7197   5.685   1.158   9.676 -0.2127  0.2181  0.0542
  450loPI   C2B 7198   5.779   1.485   9.269 -0.3434 -0.0691 -0.1380
  450loPI   C3B 7199   5.827   1.728   8.938 -0.2534  0.1075 -0.0925
  450loPI   C4B 7200   5.937   1.884   8.461  0.0156 -0.1484  0.4570
  451loPI    C1 7201  15.981   3.153  10.849 -0.1135  0.1803 -0.1846
  451loPI    C2 7202  15.699   3.084  10.574 -0.2535 -0.0591  0.0155
  451loPI    C3 7203  15.655   2.943  10.946  0.0185  0.1083  0.1138
  451loPI   PO4 7204  16.220   2.991  10.682  0.1914  0.1668  0.1868
  451loPI   GL1 7205  16.165   3.107  10.249  0.0300  0.0874 -0.2599
  451loPI   GL2 7206  15.967   3.418  10.216 -0.2030  0.1246 -0.0417
  451loPI   C1A 7207  16.101   3.035   9.855 -0.1940  0.0351 -0.2654
  451loPI   C2A 7208  16.101   3.169   9.415 -0.1837 -0.1091  0.0404
  451loPI   C3A 7209  15.712   3.320   9.124 -0.0755  0.0712 -0.3132
  451loPI   C4A 7210  15.495   3.477   8.818  0.2017  0.1343 -0.1035
  451loPI   C5A 7211  15.222   3.301   8.528  0.2465 -0.0150  0.1174
  451loPI   C6A 7212  14.920   3.413   8.206  0.0429  0.0598  0.0953
  451loPI   C1B 7213  15.644   3.275   9.962  0.1593  0.1822 -0.0288
  451loPI   C2B 7214  15.455   3.293   9.537 -0.3421 -0.2555  0.3501
  451loPI   C3B 7215  15.176   3.112   9.178  0.0394 -0.2864  0.3084
  451loPI   C4B 7216  14.994   2.928   8.779  0.0574 -0.0457  0.0756
  452loPI    C1 7217   7.285   7.648  11.028 -0.3258 -0.0487  0.3364
  452loPI    C2 7218   7.483   7.945  11.207 -0.0544 -0.0247  0.0072
  452loPI    C3 7219   7.492   7.576  11.362 -0.1681  0.0791  0.2674
  452loPI   PO4 7220   7.401   7.585  10.792 -0.0401 -0.0684  0.2408
  452loPI   GL1 7221   7.672   7.590  10.468  0.0798 -0.0789  0.2744
  452loPI   GL2 7222   7.554   7.298  10.402 -0.1249 -0.3428 -0.0725
  452loPI   C1A 7223   7.727   7.675  10.117 -0.0749  0.0269 -0.1787
  452loPI   C2A 7224   7.622   7.669   9.789  0.0988 -0.0204 -0.0224
  452loPI   C3A 7225   7.686   7.695   9.374  0.1749  0.0392  0.0158
  452loPI   C4A 7226   7.773   7.919   8.974  0.0267 -0.0849 -0.0925
  452loPI   C5A 7227   7.587   8.189   8.630 -0.1303 -0.0926  0.3303
  452loPI   C6A 7228   7.529   8.346   8.264 -0.0187 -0.0419 -0.0288
  452loPI   C1B 7229   7.638   7.154  10.018 -0.2394 -0.0458  0.0480
  452loPI   C2B 7230   7.747   7.126   9.586 -0.0644  0.3331 -0.0073
  452loPI   C3B 7231   7.619   7.245   9.267 -0.1093 -0.0856 -0.1866
  452loPI   C4B 7232   7.583   7.396   8.843  0.1509 -0.1840 -0.2721
  453loPI    C1 7233   0.828   3.369  10.389  0.0268  0.0564  0.0311
  453loPI    C2 7234   0.622   3.425  10.727 -0.1011  0.1951 -0.0682
  453loPI    C3 7235   0.720   3.055  10.611  0.0930  0.1573  0.2076
  453loPI   PO4 7236   0.688   3.505  10.234 -0.0829  0.0949  0.1015
  453loPI   GL1 7237   0.714   3.615   9.784  0.2953  0.1176 -0.0895
  453loPI   GL2 7238   0.794   3.949   9.993 -0.2201 -0.0456  0.0662
  453loPI   C1A 7239   0.574   3.498   9.340  0.0453 -0.1768  0.0076
  453loPI   C2A 7240   0.703   3.481   8.861 -0.0897  0.0599  0.0787
  453loPI   C3A 7241   0.994   3.221   8.551 -0.2981  0.0071  0.1217
  453loPI   C4A 7242   1.293   3.284   8.243 -0.4188 -0.1013 -0.0454
  453loPI   C5A 7243   1.556   3.472   7.922  0.2832  0.2003  0.2018
  453loPI   C6A 7244   1.923   3.786   7.824 -0.0740 -0.1835 -0.0652
  453loPI   C1B 7245   0.909   4.087   9.604 -0.2479 -0.2704  0.0713
  453loPI   C2B 7246   0.952   4.181   9.149  0.1958 -0.1110 -0.0308
  453loPI   C3B 7247   1.071   3.971   8.777  0.1058 -0.0434  0.0408
  453loPI   C4B 7248   1.163   3.751   8.379  0.1326 -0.3031  0.3440
  454loPI    C1 7249  13.411  14.903  10.683  0.1786  0.0742  0.0452
  454loPI    C2 7250  13.220  14.967  11.028 -0.1816 -0.1293 -0.1114
  454loPI    C3 7251  13.171  15.220  10.723 -0.1117 -0.1208 -0.1155
  454loPI   PO4 7252  13.363  14.698  10.631 -0.2172 -0.2249 -0.1108
  454loPI   GL1 7253  13.312  14.484  10.159  0.1952 -0.0691 -0.2208
  454loPI   GL2 7254  13.526  14.209  10.032 -0.0187 -0.1096  0.1255
  454loPI   C1A 7255  13.255  14.557   9.725 -0.1062  0.0324  0.2049
  454loPI   C2A 7256  13.209  14.437   9.359 -0.0441 -0.0696  0.1166
  454loPI   C3A 7257  13.371  14.459   9.058 -0.1328 -0.2445  0.3625
  454loPI   C4A 7258  13.288  14.476   8.634 -0.0990  0.2746 -0.1639
  454loPI   C5A 7259  13.014  14.409   8.292  0.0720  0.1584  0.0291
  454loPI   C6A 7260  13.028  14.326   7.926  0.0171  0.1129 -0.0049
  454loPI   C1B 7261  13.679  14.097   9.605 -0.3540  0.1544 -0.1019
  454loPI   C2B 7262  13.662  14.022   9.145 -0.0153  0.0044 -0.0072
  454loPI   C3B 7263  13.660  14.037   8.751 -0.2622  0.1036  0.2276
  454loPI   C4B 7264  13.583  13.946   8.291 -0.2664 -0.1150 -0.1902
  455loPI    C1 7265  15.553   8.867  10.859 -0.3505 -0.1682  0.0937
  455loPI    C2 7266  15.787   8.705  11.141 -0.0763 -0.0378 -0.0544
  455loPI    C3 7267  15.821   9.094  11.051 -0.2651 -0.0455 -0.1648
  455loPI   PO4 7268  15.327   8.639  10.952 -0.3074 -0.0229 -0.0082
  455loPI   GL1 7269  15.235   8.392  10.586  0.1019 -0.2695  0.0089
  455loPI   GL2 7270  14.915   8.406  10.587 -0.2537  0.1931  0.0756
  455loPI   C1A 7271  15.149   8.351  10.155  0.0962  0.0712  0.1084
  455loPI   C2A 7272  14.987   8.304   9.733  0.0324  0.0533 -0.1635
  455loPI   C3A 7273  14.872   8.377   9.214 -0.0609 -0.2016 -0.0891
  455loPI   C4A 7274  14.833   8.507   8.736  0.3580 -0.1690 -0.0939
  455loPI   C5A 7275  14.831   8.340   8.457 -0.3230 -0.0636 -0.2603
  455loPI   C6A 7276  15.169   8.047   8.424 -0.1510 -0.3103  0.0563
  455loPI   C1B 7277  14.794   8.643  10.326 -0.2694 -0.1154  0.1335
  455loPI   C2B 7278  14.650   8.657   9.924 -0.0026  0.2980 -0.4259
  455loPI   C3B 7279  14.572   8.693   9.483  0.2124 -0.4952 -0.1564
  455loPI   C4B 7280  14.452   8.674   9.096  0.0830  0.0103 -0.2649
  456loPI    C1 7281  16.282   8.329  11.281 -0.0083 -0.1396 -0.2450
  456loPI    C2 7282  16.542   8.534  11.505 -0.0876 -0.0897 -0.1983
  456loPI    C3 7283  16.550   8.134  11.505 -0.1128 -0.0907 -0.0759
  456loPI   PO4 7284  16.289   8.438  11.003 -0.0159  0.0023  0.1229
  456loPI   GL1 7285  16.393   8.738  10.782 -0.0057  0.1602  0.1822
  456loPI   GL2 7286  16.597   8.880  10.487  0.2820  0.0123  0.0175
  456loPI   C1A 7287  16.033   8.734  10.537  0.2419 -0.0151  0.0260
  456loPI   C2A 7288  15.752   8.877  10.293  0.0263  0.1024  0.0766
  456loPI   C3A 7289  15.806   8.886   9.852  0.2452  0.1246  0.0137
  456loPI   C4A 7290  15.586   8.933   9.444 -0.2423 -0.3004 -0.0314
  456loPI   C5A 7291  15.487   9.065   8.984  0.1041 -0.0951 -0.1495
  456loPI   C6A 7292  15.015   9.001   8.767 -0.1571  0.0449  0.2841
  456loPI   C1B 7293  16.301   8.698  10.144 -0.3811  0.0625 -0.1275
  456loPI   C2B 7294  16.157   8.541   9.785  0.1183 -0.1746  0.0498
  456loPI   C3B 7295  15.886   8.528   9.460  0.3020  0.1025  0.2737
  456loPI   C4B 7296  15.762   8.598   9.002 -0.1043 -0.0218  0.0566
  457loPI    C1 7297   3.342   6.233  10.855 -0.0001 -0.2855 -0.0428
  457loPI    C2 7298   3.304   6.358  11.233  0.0232  0.0299 -0.1418
  457loPI    C3 7299   3.453   5.994  11.157  0.1521  0.0194  0.1470
  457loPI   PO4 7300   3.095   6.321  10.735 -0.1549  0.2382 -0.1204
  457loPI   GL1 7301   2.909   6.585  10.512 -0.1152 -0.0133  0.2696
  457loPI   GL2 7302   2.870   6.852  10.586  0.2240 -0.2611 -0.2372
  457loPI   C1A 7303   3.000   6.444  10.020  0.1360  0.1746 -0.1809
  457loPI   C2A 7304   2.967   6.413   9.573 -0.2952  0.0457  0.0830
  457loPI   C3A 7305   2.947   6.403   9.094  0.0668 -0.2839  0.0108
  457loPI   C4A 7306   2.995   6.399   8.623  0.2884  0.2152 -0.2222
  457loPI   C5A 7307   3.316   6.373   8.247  0.0349 -0.1744 -0.0147
  457loPI   C6A 7308   3.741   6.345   8.300 -0.2354  0.0441  0.0790
  457loPI   C1B 7309   2.797   6.886  10.109  0.1641  0.0530  0.2058
  457loPI   C2B 7310   2.792   6.901   9.642 -0.1507 -0.4284 -0.0920
  457loPI   C3B 7311   2.702   6.990   9.252  0.2362  0.0097  0.0471
  457loPI   C4B 7312   2.695   6.834   8.795  0.2349 -0.0592  0.0929
  458loPI    C1 7313  11.689   5.854  10.977  0.0105  0.1739  0.0546
  458loPI    C2 7314  11.326   6.001  10.894 -0.1049 -0.2034 -0.1309
  458loPI    C3 7315  11.438   5.945  11.274 -0.1873  0.0392 -0.0692
  458loPI   PO4 7316  11.715   5.593  10.770  0.2843  0.1264 -0.0803
  458loPI   GL1 7317  11.564   5.497  10.381  0.1030  0.0462 -0.3257
  458loPI   GL2 7318  11.446   5.824  10.400 -0.0413 -0.0754 -0.0245
  458loPI   C1A 7319  11.589   5.490   9.962  0.2294 -0.4029 -0.0697
  458loPI   C2A 7320  11.502   5.695   9.586  0.3751  0.0360  0.1432
  458loPI   C3A 7321  11.569   5.946   9.302  0.0368  0.0799  0.1220
  458loPI   C4A 7322  11.763   5.965   8.890  0.1344  0.0145 -0.0741
  458loPI   C5A 7323  11.736   5.716   8.474 -0.1639 -0.1120 -0.0146
  458loPI   C6A 7324  11.966   5.514   8.203 -0.3623  0.2852 -0.1637
  458loPI   C1B 7325  11.491   5.978   9.980  0.1435  0.0806 -0.2424
  458loPI   C2B 7326  11.312   6.206   9.651 -0.1306  0.2012 -0.3274
  458loPI   C3B 7327  11.296   6.317   9.216 -0.1761 -0.6172 -0.1284
  458loPI   C4B 7328  11.265   6.595   8.844  0.1793  0.1642  0.0690
  459loPI    C1 7329  15.235  17.487  10.739  0.1988 -0.1560 -0.1088
  459loPI    C2 7330  15.529  17.328  10.958 -0.3000 -0.4129  0.4018
  459loPI    C3 7331  15.331  17.649  11.092 -0.0840 -0.0697 -0.0688
  459loPI   PO4 7332  15.242  17.625  10.432  0.1498  0.0671  0.0244
  459loPI   GL1 7333  15.597  17.679  10.179  0.0749  0.0705  0.3264
  459loPI   GL2 7334  15.574  17.455   9.968  0.0378 -0.0155 -0.2821
  459loPI   C1A 7335  15.510  17.947   9.823 -0.2958 -0.2121  0.2518
  459loPI   C2A 7336  15.480  18.120   9.337 -0.3639 -0.1698  0.0717
  459loPI   C3A 7337  15.575  18.054   8.925  0.0534 -0.1577  0.1344
  459loPI   C4A 7338  15.742  17.845   8.618 -0.2556 -0.0604  0.0159
  459loPI   C5A 7339  15.740  17.682   8.241 -0.1714 -0.0640  0.4508
  459loPI   C6A 7340  15.685  17.926   7.844  0.0168 -0.3025  0.1509
  459loPI   C1B 7341  15.666  17.521   9.586  0.2701 -0.0560 -0.0528
  459loPI   C2B 7342  15.792  17.550   9.104  0.3129 -0.1358  0.0468
  459loPI   C3B 7343  15.958  17.366   8.723 -0.0117 -0.1766 -0.0608
  459loPI   C4B 7344  16.265  17.465   8.395  0.1488 -0.0083 -0.5098
  460loPI    C1 7345  13.917   8.455  11.067 -0.2268  0.1158  0.1239
  460loPI    C2 7346  13.865   8.611  11.432 -0.0491  0.0441  0.1813
  460loPI    C3 7347  14.164   8.740  11.200 -0.3458  0.3097 -0.0639
  460loPI   PO4 7348  13.928   8.180  11.121 -0.0497  0.0287 -0.3961
  460loPI   GL1 7349  13.676   7.969  10.846  0.2630  0.0244 -0.1504
  460loPI   GL2 7350  13.887   7.789  10.788  0.0486  0.3961  0.0731
  460loPI   C1A 7351  13.419   8.082  10.528 -0.0438  0.0146 -0.2570
  460loPI   C2A 7352  13.330   8.017  10.143  0.0565 -0.1729  0.3580
  460loPI   C3A 7353  13.288   8.139   9.762 -0.1813  0.1224  0.1092
  460loPI   C4A 7354  13.289   8.085   9.281  0.1161 -0.2167  0.1488
  460loPI   C5A 7355  13.471   8.268   8.844  0.0513  0.0634 -0.1164
  460loPI   C6A 7356  13.330   8.280   8.397  0.1359 -0.1895  0.0381
  460loPI   C1B 7357  14.035   7.691  10.356  0.2596  0.1735  0.0057
  460loPI   C2B 7358  14.333   7.697   9.999  0.0043 -0.0628  0.0652
  460loPI   C3B 7359  14.204   7.740   9.600  0.3322 -0.1070  0.0325
  460loPI   C4B 7360  14.220   7.749   9.127  0.0338  0.1689  0.2742
  461loPI    C1 7361   2.165   6.116  10.793  0.1161 -0.0319 -0.0409
  461loPI    C2 7362   2.145   6.370  11.101  0.0611  0.0232 -0.0896
  461loPI    C3 7363   2.278   5.997  11.158  0.0731  0.0402 -0.0040
  461loPI   PO4 7364   1.914   6.163  10.642 -0.2672 -0.0957  0.1435
  461loPI   GL1 7365   1.966   6.210  10.216 -0.0435 -0.2743  0.0630
  461loPI   GL2 7366   1.737   6.382  10.175 -0.3101 -0.3144  0.0336
  461loPI   C1A 7367   2.073   6.299   9.821  0.0380  0.1589 -0.1827
  461loPI   C2A 7368   2.129   6.186   9.438 -0.3145  0.0694  0.0619
  461loPI   C3A 7369   2.097   6.138   9.017  0.2522 -0.0476 -0.0743
  461loPI   C4A 7370   1.840   6.324   8.659  0.2610  0.1439  0.0134
  461loPI   C5A 7371   1.606   6.571   8.448 -0.1485 -0.2099  0.0505
  461loPI   C6A 7372   1.675   6.854   8.071 -0.0461 -0.0230 -0.1869
  461loPI   C1B 7373   1.549   6.485   9.861 -0.0827 -0.0595 -0.1525
  461loPI   C2B 7374   1.207   6.767   9.640  0.1136 -0.1959 -0.0850
  461loPI   C3B 7375   0.836   6.654   9.364 -0.0075  0.0659  0.1289
  461loPI   C4B 7376   0.708   6.694   8.961 -0.2388  0.1945  0.0395
  462loPI    C1 7377  11.536   0.873  10.737 -0.2459 -0.1582 -0.1360
  462loPI    C2 7378  11.402   1.165  10.975  0.1078 -0.0727 -0.0363
  462loPI    C3 7379  11.557   0.832  11.134  0.3644 -0.0065 -0.1431
  462loPI   PO4 7380  11.604   0.945  10.577  0.2601 -0.0120 -0.2996
  462loPI   GL1 7381  11.710   0.972  10.154 -0.1530 -0.1094 -0.1775
  462loPI   GL2 7382  11.392   1.152  10.170 -0.4413  0.0427  0.0775
  462loPI   C1A 7383  11.772   1.173   9.707  0.1792  0.0021 -0.3693
  462loPI   C2A 7384  11.837   1.221   9.277  0.0274 -0.1384 -0.3465
  462loPI   C3A 7385  12.025   1.488   8.995  0.1036 -0.2435 -0.0309
  462loPI   C4A 7386  12.280   1.610   8.577 -0.3427  0.4439 -0.0149
  462loPI   C5A 7387  12.063   1.719   8.197 -0.0599 -0.0332  0.0542
  462loPI   C6A 7388  11.898   1.677   7.708  0.1626  0.2602  0.4470
  462loPI   C1B 7389  11.261   1.178   9.804 -0.0198 -0.0496 -0.3650
  462loPI   C2B 7390  11.276   1.190   9.357  0.1119  0.0417  0.0012
  462loPI   C3B 7391  11.210   0.903   9.129  0.0014  0.2993  0.0826
  462loPI   C4B 7392  10.845   0.707   9.340  0.3163  0.2983  0.1267
  463loPI    C1 7393  15.685   0.942  10.859  0.0993 -0.3388 -0.1437
  463loPI    C2 7394  15.573   1.006  11.238  0.0349  0.1356 -0.2374
  463loPI    C3 7395  15.926   1.143  11.107 -0.0295  0.1484 -0.4005
  463loPI   PO4 7396  15.533   0.932  10.716  0.0815  0.3771  0.0290
  463loPI   GL1 7397  15.435   1.015  10.361 -0.0401 -0.1734  0.0847
  463loPI   GL2 7398  15.740   1.155  10.326 -0.0586 -0.1374 -0.2488
  463loPI   C1A 7399  15.173   0.953   9.911  0.0377 -0.0062  0.0711
  463loPI   C2A 7400  15.120   0.950   9.478 -0.2095  0.0809  0.4695
  463loPI   C3A 7401  14.954   0.941   9.083 -0.1071  0.0476 -0.2749
  463loPI   C4A 7402  14.761   0.903   8.682  0.1216  0.1370  0.0264
  463loPI   C5A 7403  14.819   0.843   8.283 -0.2325  0.1304 -0.0435
  463loPI   C6A 7404  15.071   0.701   7.900 -0.1639  0.0144  0.0033
  463loPI   C1B 7405  15.848   1.216   9.907 -0.0400  0.0408 -0.0772
  463loPI   C2B 7406  15.921   1.366   9.588  0.1728 -0.4941 -0.1310
  463loPI   C3B 7407  15.846   1.385   9.175  0.1771  0.1150  0.2370
  463loPI   C4B 7408  15.648   1.480   8.851 -0.0579  0.2297  0.1294
  464loPI    C1 7409   9.837   3.902  10.925 -0.0214  0.1459  0.1373
  464loPI    C2 7410   9.584   3.672  11.133  0.1700 -0.0032  0.2080
  464loPI    C3 7411   9.845   3.907  11.325 -0.0394  0.2933  0.1365
  464loPI   PO4 7412   9.922   3.719  10.750  0.0793  0.1898 -0.1093
  464loPI   GL1 7413   9.896   3.596  10.410 -0.1466  0.0377  0.1726
  464loPI   GL2 7414   9.963   3.348  10.295  0.0791  0.0661 -0.2624
  464loPI   C1A 7415   9.990   3.867  10.137 -0.0117  0.1683 -0.0469
  464loPI   C2A 7416  10.067   4.060   9.772 -0.3530  0.3029  0.4653
  464loPI   C3A 7417  10.051   4.111   9.336  0.0203  0.1760  0.2845
  464loPI   C4A 7418  10.218   4.280   8.945 -0.2810 -0.0409  0.2076
  464loPI   C5A 7419  10.556   4.438   8.674 -0.2641 -0.2023  0.1297
  464loPI   C6A 7420  10.524   4.587   8.274 -0.1177  0.0793  0.0963
  464loPI   C1B 7421   9.890   3.369   9.863  0.1631 -0.2269 -0.2449
  464loPI   C2B 7422   9.777   3.377   9.342 -0.3428  0.2317  0.0488
  464loPI   C3B 7423   9.673   3.451   8.876 -0.0363  0.2275  0.1876
  464loPI   C4B 7424   9.617   3.371   8.368 -0.0643  0.2143  0.1736
  465loPI    C1 7425  14.430   7.193  11.469 -0.1536  0.0886  0.0694
  465loPI    C2 7426  14.184   6.940  11.281  0.0373 -0.1755  0.1696
  465loPI    C3 7427  14.417   6.809  11.579  0.0811  0.1372  0.2763
  465loPI   PO4 7428  14.407   7.388  11.192 -0.0303 -0.0506  0.1911
  465loPI   GL1 7429  14.283   7.426  10.811 -0.1175  0.0744  0.0074
  465loPI   GL2 7430  13.992   7.341  10.725  0.1132 -0.3768  0.2138
  465loPI   C1A 7431  14.605   7.448  10.508  0.1317  0.3385  0.0511
  465loPI   C2A 7432  14.598   7.258  10.058 -0.0679  0.0032 -0.0794
  465loPI   C3A 7433  14.513   7.293   9.633  0.1136 -0.2328  0.0285
  465loPI   C4A 7434  14.544   7.361   9.201  0.1912  0.2442 -0.1413
  465loPI   C5A 7435  14.459   7.371   8.765 -0.2697  0.3679  0.3614
  465loPI   C6A 7436  14.160   7.081   8.508  0.2383 -0.2432 -0.0448
  465loPI   C1B 7437  14.094   7.213  10.395 -0.4876 -0.1077  0.0273
  465loPI   C2B 7438  13.952   7.289   9.890 -0.1771  0.1534 -0.0933
  465loPI   C3B 7439  14.038   7.309   9.419 -0.3613  0.3009 -0.3404
  465loPI   C4B 7440  14.083   7.237   9.000  0.1708  0.1344  0.0579
  466loPI    C1 7441  17.371   4.482  10.805  0.0648 -0.0399 -0.0244
  466loPI    C2 7442  17.273   4.109  10.700  0.2219 -0.0686 -0.0711
  466loPI    C3 7443  17.175   4.246  11.063  0.1055 -0.1322 -0.0779
  466loPI   PO4 7444  17.260   4.583  10.466  0.0617 -0.0417 -0.2506
  466loPI   GL1 7445  17.444   4.625  10.140 -0.3259 -0.0869 -0.2235
  466loPI   GL2 7446  17.563   4.884  10.188 -0.3188  0.0512  0.1196
  466loPI   C1A 7447  17.344   4.819   9.770 -0.0617  0.0068 -0.1338
  466loPI   C2A 7448  17.306   4.914   9.319 -0.0261  0.0143 -0.0921
  466loPI   C3A 7449  17.057   5.183   9.060  0.1565 -0.2321  0.0096
  466loPI   C4A 7450  16.659   5.251   8.929 -0.0533  0.2900 -0.0767
  466loPI   C5A 7451  16.612   5.446   9.259  0.0537  0.0295  0.0441
  466loPI   C6A 7452  16.418   5.540   9.590  0.0864 -0.0842  0.2279
  466loPI   C1B 7453  17.750   5.088   9.824  0.1753  0.3314 -0.0410
  466loPI   C2B 7454  17.764   5.075   9.454  0.0407 -0.0424  0.1384
  466loPI   C3B 7455  17.670   5.023   8.956  0.1117  0.1705 -0.0749
  466loPI   C4B 7456  17.579   5.052   8.453 -0.2492 -0.4171  0.0247
  467loPI    C1 7457  14.973   0.339  10.789 -0.2070 -0.0120 -0.0185
  467loPI    C2 7458  15.273   0.570  10.919 -0.1312 -0.1346  0.0260
  467loPI    C3 7459  14.895   0.668  11.003 -0.1060  0.0374 -0.0565
  467loPI   PO4 7460  15.021   0.311  10.567 -0.1671 -0.1541  0.3861
  467loPI   GL1 7461  15.131   0.440  10.145 -0.2962 -0.1083 -0.2490
  467loPI   GL2 7462  15.268   0.067  10.208 -0.3873  0.3236 -0.1328
  467loPI   C1A 7463  15.318   0.442   9.730 -0.3155 -0.0966  0.1692
  467loPI   C2A 7464  14.984   0.507   9.302  0.1016  0.1547  0.0042
  467loPI   C3A 7465  14.638   0.503   8.984  0.0666  0.0524  0.0775
  467loPI   C4A 7466  14.322   0.594   8.846 -0.0903 -0.0076  0.1722
  467loPI   C5A 7467  14.253   0.906   8.610 -0.0600 -0.0102  0.3348
  467loPI   C6A 7468  13.977   1.221   8.351  0.0621 -0.1219  0.0331
  467loPI   C1B 7469  15.024  -0.006   9.910  0.1030 -0.2741 -0.0380
  467loPI   C2B 7470  15.018   0.049   9.477  0.0612  0.1895  0.0530
  467loPI   C3B 7471  15.086   0.074   8.976  0.0722 -0.0181  0.1463
  467loPI   C4B 7472  15.186  -0.089   8.568  0.4355  0.1627 -0.0109
  468loPI    C1 7473   3.655   0.669  10.872 -0.2805 -0.2556 -0.1985
  468loPI    C2 7474   3.270   0.711  10.970 -0.1516 -0.0660  0.2475
  468loPI    C3 7475   3.521   0.524  11.220  0.0887 -0.0038  0.0560
  468loPI   PO4 7476   3.713   0.595  10.668 -0.0045  0.1493 -0.0738
  468loPI   GL1 7477   3.667   0.711  10.267 -0.1510  0.0953  0.2080
  468loPI   GL2 7478   3.556   0.426  10.207  0.2179  0.1511  0.0160
  468loPI   C1A 7479   3.827   0.676   9.890 -0.2566  0.1030  0.2275
  468loPI   C2A 7480   3.988   0.742   9.455 -0.1484  0.0034  0.1826
  468loPI   C3A 7481   4.123   0.739   9.049  0.0841  0.2119  0.0435
  468loPI   C4A 7482   4.097   0.849   8.507 -0.0601  0.1896 -0.0597
  468loPI   C5A 7483   3.965   1.160   8.221  0.1026  0.1767  0.0775
  468loPI   C6A 7484   3.668   1.301   7.896 -0.2074 -0.2806 -0.2440
  468loPI   C1B 7485   3.392   0.382   9.797  0.3099 -0.3012  0.0895
  468loPI   C2B 7486   3.453   0.258   9.401 -0.2629  0.1908  0.2769
  468loPI   C3B 7487   3.463   0.379   8.952  0.1915  0.1252 -0.2891
  468loPI   C4B 7488   3.731   0.510   8.685 -0.2825 -0.1545 -0.0160
  469loPI    C1 7489   3.350  17.046  10.691 -0.0549 -0.0550 -0.0787
  469loPI    C2 7490   3.674  17.215  10.854  0.0855 -0.0593 -0.3480
  469loPI    C3 7491   3.342  17.168  11.072  0.1590  0.2416 -0.1655
  469loPI   PO4 7492   3.335  17.084  10.381 -0.0131  0.0225 -0.1689
  469loPI   GL1 7493   3.615  16.871  10.123 -0.2291 -0.2349 -0.0356
  469loPI   GL2 7494   3.849  17.134  10.181  0.0506  0.1124 -0.0563
  469loPI   C1A 7495   3.943  16.773   9.812 -0.3186  0.2607  0.1381
  469loPI   C2A 7496   4.019  16.631   9.463 -0.1511 -0.1479 -0.0417
  469loPI   C3A 7497   4.198  16.555   9.004 -0.2708 -0.4135  0.1374
  469loPI   C4A 7498   4.547  16.805   8.727  0.0990 -0.0365  0.3297
  469loPI   C5A 7499   4.823  16.729   8.294 -0.3708 -0.3937 -0.0721
  469loPI   C6A 7500   5.234  16.751   8.073 -0.0891  0.3146  0.3394
  469loPI   C1B 7501   3.514  17.318   9.818  0.0343  0.0180 -0.0472
  469loPI   C2B 7502   3.257  17.278   9.472 -0.0391  0.0652  0.1803
  469loPI   C3B 7503   3.224  17.431   9.034 -0.1132 -0.0063  0.1599
  469loPI   C4B 7504   3.294  17.607   8.635  0.0397 -0.1007  0.0225
  470loPI    C1 7505   4.656   1.441  11.051 -0.2534  0.0412 -0.0461
  470loPI    C2 7506   4.866   1.165  10.852 -0.0038  0.2478 -0.0751
  470loPI    C3 7507   4.896   1.191  11.250 -0.1713  0.1145 -0.0524
  470loPI   PO4 7508   4.499   1.421  10.840 -0.0358  0.0382  0.0690
  470loPI   GL1 7509   4.607   1.226  10.428 -0.1731  0.0555 -0.1553
  470loPI   GL2 7510   4.773   0.934  10.383 -0.1133 -0.1337  0.2656
  470loPI   C1A 7511   4.307   1.400   9.974  0.0664 -0.0602  0.1097
  470loPI   C2A 7512   4.098   1.596   9.588  0.3681  0.0383  0.1504
  470loPI   C3A 7513   4.393   1.596   9.316 -0.0328 -0.0129 -0.1878
  470loPI   C4A 7514   4.462   1.457   8.857 -0.2121 -0.1454 -0.2102
  470loPI   C5A 7515   4.221   1.461   8.517 -0.2762 -0.1084  0.3799
  470loPI   C6A 7516   4.104   1.644   8.076  0.0647 -0.1928  0.1970
  470loPI   C1B 7517   4.748   0.702   9.999  0.3996  0.0215  0.0110
  470loPI   C2B 7518   4.921   0.764   9.557  0.1027  0.2121  0.0758
  470loPI   C3B 7519   4.997   0.874   9.156 -0.1225  0.0336  0.1188
  470loPI   C4B 7520   5.188   0.932   8.764 -0.1746 -0.1273  0.0114
  471loPI    C1 7521  13.493   5.782  11.222 -0.0675  0.0317  0.1261
  471loPI    C2 7522  13.810   5.656  11.430 -0.0283  0.0501  0.0775
  471loPI    C3 7523  13.596   5.968  11.561  0.0314  0.0989  0.0598
  471loPI   PO4 7524  13.525   5.783  10.965  0.1644  0.0131  0.2601
  471loPI   GL1 7525  13.669   5.837  10.582 -0.2228  0.0385  0.2506
  471loPI   GL2 7526  13.361   6.030  10.430  0.1235  0.0680 -0.2064
  471loPI   C1A 7527  13.917   6.121  10.265 -0.1191  0.1965 -0.0426
  471loPI   C2A 7528  13.942   6.035   9.815 -0.2556 -0.2674 -0.0479
  471loPI   C3A 7529  13.912   5.824   9.384  0.0287 -0.0886 -0.3359
  471loPI   C4A 7530  14.035   5.968   9.046  0.1701  0.2407  0.0674
  471loPI   C5A 7531  14.302   5.783   8.846  0.0302  0.2379 -0.0024
  471loPI   C6A 7532  14.523   5.637   8.449  0.0919  0.1862  0.2254
  471loPI   C1B 7533  13.519   5.876  10.071  0.1183 -0.3769  0.2397
  471loPI   C2B 7534  13.453   5.945   9.617  0.0017 -0.1267  0.0072
  471loPI   C3B 7535  13.505   5.858   9.144  0.0480 -0.2923  0.1138
  471loPI   C4B 7536  13.597   5.864   8.738 -0.0225 -0.1092  0.1977
  472loPI    C1 7537  15.443   5.626  11.231 -0.2491  0.0314  0.0424
  472loPI    C2 7538  15.681   5.705  11.543  0.0330 -0.1804 -0.1139
  472loPI    C3 7539  15.318   5.548  11.602 -0.1039  0.2134  0.1315
  472loPI   PO4 7540  15.488   5.803  11.090 -0.0578  0.2047 -0.0518
  472loPI   GL1 7541  15.454   5.811  10.575 -0.1117  0.0298  0.0257
  472loPI   GL2 7542  15.689   5.618  10.346  0.2717  0.1351 -0.0302
  472loPI   C1A 7543  15.303   5.883  10.103  0.1408 -0.0416  0.1381
  472loPI   C2A 7544  15.151   6.000   9.737 -0.0843 -0.0996 -0.0931
  472loPI   C3A 7545  15.056   6.074   9.365  0.1667  0.4494 -0.0970
  472loPI   C4A 7546  15.260   6.030   8.969 -0.0171 -0.2525  0.0062
  472loPI   C5A 7547  15.525   6.111   8.544  0.1019  0.0781 -0.1882
  472loPI   C6A 7548  15.936   6.370   8.399  0.1437  0.2394  0.3359
  472loPI   C1B 7549  15.563   5.503   9.982 -0.2628  0.1274 -0.1898
  472loPI   C2B 7550  15.439   5.601   9.592  0.2181 -0.2987  0.2429
  472loPI   C3B 7551  15.591   5.765   9.257  0.5120  0.0667  0.1784
  472loPI   C4B 7552  15.805   6.080   9.023 -0.0059 -0.0546 -0.4413
  473loPI    C1 7553   4.404   9.036  10.982 -0.0997  0.1095 -0.0502
  473loPI    C2 7554   4.195   8.771  11.197  0.2585 -0.0415  0.1197
  473loPI    C3 7555   4.487   8.984  11.370  0.1154  0.3138 -0.0664
  473loPI   PO4 7556   4.415   8.999  10.769  0.1875  0.0851  0.0646
  473loPI   GL1 7557   4.580   9.048  10.372  0.3182 -0.1604  0.0323
  473loPI   GL2 7558   4.833   9.139  10.292 -0.1842 -0.2456 -0.2035
  473loPI   C1A 7559   4.455   9.372  10.105  0.0128  0.1176  0.0397
  473loPI   C2A 7560   4.483   9.453   9.655 -0.2059 -0.1362 -0.0288
  473loPI   C3A 7561   4.511   9.645   9.282 -0.0583  0.1686 -0.1131
  473loPI   C4A 7562   4.577   9.962   9.027 -0.0172  0.2729  0.0872
  473loPI   C5A 7563   4.851  10.037   8.725  0.1028 -0.0154 -0.0319
  473loPI   C6A 7564   4.859  10.263   8.373  0.0199  0.0836 -0.2092
  473loPI   C1B 7565   4.879   9.211   9.869 -0.1726  0.4878 -0.2587
  473loPI   C2B 7566   5.085   9.209   9.430 -0.0321 -0.0297  0.1484
  473loPI   C3B 7567   5.134   9.041   9.033  0.1655  0.1128 -0.1742
  473loPI   C4B 7568   5.129   8.700   8.808 -0.2469 -0.3544 -0.0143
  474POPI    C1 7569   9.264   1.396  10.663  0.2538 -0.0531 -0.1372
  474POPI    C2 7570   9.170   1.621  10.980  0.3763  0.0012 -0.1389
  474POPI    C3 7571   8.935   1.315  10.875  0.3949 -0.0865  0.0717
  474POPI   PO4 7572   9.215   1.537  10.431 -0.0186 -0.1684  0.0585
  474POPI   GL1 7573   9.469   1.627  10.181  0.1902 -0.1615  0.0951
  474POPI   GL2 7574   9.654   1.853  10.223  0.2458  0.4510 -0.0056
  474POPI   C1A 7575   9.586   1.635   9.702 -0.2474 -0.2636 -0.4344
  474POPI   D2A 7576   9.584   1.364   9.334 -0.1691  0.1228 -0.0155
  474POPI   C3A 7577   9.716   1.376   8.913 -0.0329  0.1482 -0.2866
  474POPI   C4A 7578   9.618   1.317   8.497 -0.0825  0.1867  0.0692
  474POPI   C1B 7579   9.796   2.038   9.942  0.2093 -0.2395  0.0337
  474POPI   C2B 7580   9.852   1.996   9.444 -0.1398  0.0991 -0.3018
  474POPI   C3B 7581   9.658   1.820   9.110  0.0950  0.0734 -0.0068
  474POPI   C4B 7582   9.346   2.104   8.897  0.0205  0.1185  0.3296
  475POPI    C1 7583  12.459  11.453  10.914  0.1640  0.0452  0.0649
  475POPI    C2 7584  12.383  11.206  11.220 -0.0515 -0.1024 -0.1047
  475POPI    C3 7585  12.357  11.602  11.271  0.0519 -0.1211  0.1037
  475POPI   PO4 7586  12.422  11.356  10.729 -0.0087  0.1061  0.0216
  475POPI   GL1 7587  12.508  11.205  10.307 -0.0648  0.0401 -0.0231
  475POPI   GL2 7588  12.432  10.853  10.416 -0.3153  0.1730 -0.0837
  475POPI   C1A 7589  12.507  11.068   9.910 -0.0312  0.3393  0.1946
  475POPI   D2A 7590  12.540  11.189   9.511  0.2267  0.2130  0.1867
  475POPI   C3A 7591  12.594  11.186   9.096  0.0233 -0.2278 -0.0718
  475POPI   C4A 7592  12.539  11.137   8.703 -0.1673 -0.0426  0.1328
  475POPI   C1B 7593  12.272  10.657  10.045 -0.0825  0.1771  0.1169
  475POPI   C2B 7594  12.301  10.696   9.591 -0.2879  0.0639 -0.2171
  475POPI   C3B 7595  12.385  10.693   9.201  0.2981  0.0172 -0.1797
  475POPI   C4B 7596  12.320  10.575   8.746 -0.3195 -0.2736 -0.0039
  476POPI    C1 7597  14.604  10.829  10.915  0.0890  0.1693 -0.2104
  476POPI    C2 7598  14.695  11.196  10.782  0.0850  0.2799  0.0843
  476POPI    C3 7599  14.764  11.099  11.164 -0.0826  0.0310  0.0541
  476POPI   PO4 7600  14.413  10.814  10.867  0.1260 -0.0349  0.0338
  476POPI   GL1 7601  14.262  10.598  10.551 -0.2031  0.0441  0.1420
  476POPI   GL2 7602  14.534  10.439  10.474 -0.1173  0.0897 -0.6884
  476POPI   C1A 7603  14.024  10.373  10.294 -0.0084 -0.1465 -0.5692
  476POPI   D2A 7604  14.178  10.051   9.979 -0.0036  0.0663 -0.1787
  476POPI   C3A 7605  14.035  10.029   9.591  0.3938 -0.0525 -0.0582
  476POPI   C4A 7606  14.121   9.937   9.090 -0.1220 -0.0621 -0.0955
  476POPI   C1B 7607  14.430  10.544  10.062 -0.1759 -0.0505  0.2142
  476POPI   C2B 7608  14.319  10.435   9.626 -0.0369  0.2920 -0.1002
  476POPI   C3B 7609  14.267  10.454   9.191  0.0561 -0.2939  0.0566
  476POPI   C4B 7610  14.269  10.485   8.754  0.2462 -0.1743  0.0434
  477POPI    C1 7611  16.750  10.320  10.738  0.0900 -0.0219 -0.2241
  477POPI    C2 7612  16.595  10.680  10.818 -0.1722 -0.1559 -0.1176
  477POPI    C3 7613  16.947  10.575  10.975 -0.2589 -0.0759  0.1344
  477POPI   PO4 7614  16.783  10.326  10.482  0.1563  0.1860 -0.0294
  477POPI   GL1 7615  16.934  10.000  10.146 -0.0009 -0.1247  0.1913
  477POPI   GL2 7616  17.049  10.314  10.089 -0.0272  0.1473 -0.1896
  477POPI   C1A 7617  16.618  10.028   9.886  0.5388  0.0424 -0.2591
  477POPI   D2A 7618  16.502  10.183   9.563 -0.0607 -0.1162 -0.1698
  477POPI   C3A 7619  16.324  10.006   9.238  0.1135  0.1465 -0.1921
  477POPI   C4A 7620  15.954  10.056   8.969 -0.1056 -0.1812  0.0172
  477POPI   C1B 7621  17.012  10.289   9.673 -0.1538  0.0423 -0.1566
  477POPI   C2B 7622  16.891  10.159   9.243 -0.2328 -0.0563 -0.0311
  477POPI   C3B 7623  16.686  10.071   8.823 -0.0299  0.2626 -0.0629
  477POPI   C4B 7624  16.369  10.108   8.475 -0.0467  0.0972  0.1019
  478POPI    C1 7625   3.216  11.654  11.071 -0.0672 -0.2265 -0.1087
  478POPI    C2 7626   2.965  11.797  11.347  0.2456  0.1163  0.0056
  478POPI    C3 7627   3.062  11.409  11.348 -0.2010 -0.0012  0.0186
  478POPI   PO4 7628   3.070  11.630  10.798  0.1076  0.0212 -0.0217
  478POPI   GL1 7629   2.968  11.269  10.525  0.1484  0.0854  0.0976
  478POPI   GL2 7630   2.758  10.994  10.416 -0.2014  0.2964 -0.0075
  478POPI   C1A 7631   3.178  11.157  10.152  0.0262 -0.0029 -0.2725
  478POPI   D2A 7632   3.218  10.908   9.839 -0.1195  0.1338 -0.2615
  478POPI   C3A 7633   3.145  10.775   9.359  0.0427  0.0722 -0.1742
  478POPI   C4A 7634   3.024  10.625   8.999 -0.1406  0.1058  0.3355
  478POPI   C1B 7635   2.652  10.770  10.071 -0.1838  0.0749 -0.1787
  478POPI   C2B 7636   2.735  10.823   9.613 -0.2785 -0.2517  0.2226
  478POPI   C3B 7637   2.475  10.762   9.421 -0.1774 -0.3211  0.2735
  478POPI   C4B 7638   2.515  10.859   8.994  0.2231  0.2367 -0.1319
  479POPI    C1 7639   1.311  14.109  10.879  0.0240  0.1275 -0.1207
  479POPI    C2 7640   0.912  14.084  10.879  0.0312  0.0031 -0.0470
  479POPI    C3 7641   1.097  14.326  11.137  0.0189 -0.2294  0.1837
  479POPI   PO4 7642   1.345  14.114  10.616  0.2169  0.1063 -0.1295
  479POPI   GL1 7643   1.280  14.306  10.288 -0.3295 -0.0946  0.0793
  479POPI   GL2 7644   1.253  14.575  10.163 -0.0641  0.0430  0.1042
  479POPI   C1A 7645   1.277  14.066   9.970  0.3164 -0.0450 -0.0494
  479POPI   D2A 7646   1.376  13.883   9.640  0.1975  0.3874  0.2265
  479POPI   C3A 7647   1.117  13.681   9.309  0.0236  0.0456 -0.0626
  479POPI   C4A 7648   0.989  13.598   8.913  0.0834 -0.1387 -0.0297
  479POPI   C1B 7649   1.571  14.470   9.806  0.0775  0.3617 -0.0556
  479POPI   C2B 7650   1.670  14.353   9.458 -0.2535  0.0339 -0.1161
  479POPI   C3B 7651   1.557  14.317   9.082  0.0973 -0.1837 -0.2357
  479POPI   C4B 7652   1.488  14.190   8.677 -0.1273  0.1662 -0.0484
  480POPI    C1 7653  14.283  15.699  10.439  0.0017 -0.1815  0.0131
  480POPI    C2 7654  14.093  15.460  10.696  0.0263  0.0206  0.2220
  480POPI    C3 7655  14.484  15.412  10.632  0.0571  0.0847  0.3593
  480POPI   PO4 7656  14.039  15.741  10.234  0.3212  0.1369 -0.0750
  480POPI   GL1 7657  13.860  15.957   9.843  0.2984 -0.3455 -0.0736
  480POPI   GL2 7658  14.107  15.999   9.550 -0.0905 -0.0216 -0.0742
  480POPI   C1A 7659  13.764  15.682   9.501  0.1235  0.2208  0.1404
  480POPI   D2A 7660  13.818  15.449   9.113  0.2139  0.2993 -0.2709
  480POPI   C3A 7661  13.739  15.347   8.657 -0.0297 -0.0371  0.1469
  480POPI   C4A 7662  14.125  15.364   8.406 -0.1736 -0.1183  0.0748
  480POPI   C1B 7663  14.080  15.901   9.068  0.0583 -0.0264  0.1150
  480POPI   C2B 7664  14.247  15.871   8.644 -0.1664 -0.0407  0.1693
  480POPI   C3B 7665  14.207  15.896   8.291  0.0235  0.3736  0.1168
  480POPI   C4B 7666  13.842  16.024   8.159 -0.2735 -0.2562  0.3134
  481POPI    C1 7667  17.897   1.814  10.402 -0.0199 -0.0587  0.0929
  481POPI    C2 7668  17.908   1.692  10.783  0.2530  0.1366  0.1503
  481POPI    C3 7669  17.939   1.426  10.486 -0.1222 -0.0349  0.2590
  481POPI   PO4 7670  17.711   2.035  10.360  0.3928  0.1234  0.1774
  481POPI   GL1 7671  17.324   2.056  10.112  0.1360 -0.3058  0.0829
  481POPI   GL2 7672  17.396   2.358   9.984 -0.0011 -0.1468  0.0244
  481POPI   C1A 7673  17.345   1.777   9.765  0.1284  0.1928 -0.0220
  481POPI   D2A 7674  17.332   1.315   9.788 -0.3134  0.1372 -0.1833
  481POPI   C3A 7675  17.007   1.168   9.514  0.0705  0.2565 -0.1508
  481POPI   C4A 7676  16.924   1.342   9.119  0.2224 -0.0762  0.1513
  481POPI   C1B 7677  17.321   2.505   9.615 -0.1428  0.0898 -0.1926
  481POPI   C2B 7678  17.346   2.587   9.214  0.0012  0.2381 -0.0304
  481POPI   C3B 7679  17.550   2.762   8.819  0.0859 -0.0560  0.0466
  481POPI   C4B 7680  17.796   2.771   8.619 -0.2111 -0.1507  0.1784
  482POPI    C1 7681   6.953   0.698  10.600 -0.3412 -0.1576  0.0608
  482POPI    C2 7682   7.039   1.043  10.784  0.2806 -0.2269 -0.0778
  482POPI    C3 7683   7.084   0.696  10.978 -0.0428 -0.2517 -0.0407
  482POPI   PO4 7684   7.016   0.774  10.364  0.1059 -0.2502  0.0640
  482POPI   GL1 7685   6.949   0.683   9.896 -0.2109 -0.2244 -0.1763
  482POPI   GL2 7686   7.154   0.989   9.910  0.0998  0.0395  0.3762
  482POPI   C1A 7687   6.890   0.814   9.536  0.1700  0.0249  0.4525
  482POPI   D2A 7688   6.679   1.267   9.351 -0.0226  0.2964 -0.0015
  482POPI   C3A 7689   6.836   1.269   8.972  0.0452  0.2757  0.2057
  482POPI   C4A 7690   7.066   1.195   8.634  0.0481 -0.1121 -0.0413
  482POPI   C1B 7691   7.189   1.201   9.523  0.0722  0.1093  0.0567
  482POPI   C2B 7692   7.379   1.319   9.037 -0.1532  0.0052  0.0381
  482POPI   C3B 7693   7.580   1.312   8.631 -0.0173  0.1870  0.1061
  482POPI   C4B 7694   7.767   1.452   8.273 -0.0693 -0.1727 -0.1060
  483POPI    C1 7695   6.796  17.829  10.534  0.2179 -0.0777 -0.0394
  483POPI    C2 7696   6.592  17.552  10.331  0.1157  0.0715 -0.1425
  483POPI    C3 7697   6.664  17.500  10.721 -0.1474  0.0307 -0.0969
  483POPI   PO4 7698   6.916  17.905  10.327  0.0249 -0.1247  0.0945
  483POPI   GL1 7699   6.974  18.190   9.959 -0.1252  0.2247 -0.2319
  483POPI   GL2 7700   7.216  17.958   9.751  0.2420 -0.0382 -0.0551
  483POPI   C1A 7701   7.084  18.371   9.616 -0.0310 -0.2043 -0.1248
  483POPI   D2A 7702   6.971  18.375   9.160  0.0569 -0.1675 -0.2116
  483POPI   C3A 7703   7.083  18.251   8.820 -0.0290 -0.3746 -0.0206
  483POPI   C4A 7704   7.394  18.097   8.495  0.1522  0.2201 -0.1847
  483POPI   C1B 7705   7.242  17.975   9.361  0.3347 -0.1840  0.1597
  483POPI   C2B 7706   7.069  17.792   8.982 -0.0586  0.1958  0.2015
  483POPI   C3B 7707   6.739  17.481   8.882  0.0190 -0.1505 -0.0549
  483POPI   C4B 7708   6.434  17.229   9.157  0.0813  0.0563  0.1063
  484POPI    C1 7709   5.847   7.797  10.762  0.1266  0.2257  0.0361
  484POPI    C2 7710   5.595   7.879  11.061  0.0497  0.1623 -0.0108
  484POPI    C3 7711   5.927   7.668  11.132 -0.0767 -0.0383 -0.0088
  484POPI   PO4 7712   5.623   7.792  10.554  0.1014 -0.1126  0.1522
  484POPI   GL1 7713   5.495   7.522  10.216 -0.0366  0.1002  0.0120
  484POPI   GL2 7714   5.175   7.690  10.244 -0.1880  0.1289  0.4069
  484POPI   C1A 7715   5.404   7.570   9.731 -0.0422  0.0404  0.1947
  484POPI   D2A 7716   5.338   7.543   9.263  0.0241  0.0621 -0.1668
  484POPI   C3A 7717   5.438   7.522   8.815 -0.2379 -0.0270  0.1509
  484POPI   C4A 7718   5.521   7.451   8.451  0.0841 -0.0585  0.1170
  484POPI   C1B 7719   4.926   7.616   9.989 -0.1590 -0.0305 -0.1110
  484POPI   C2B 7720   4.902   7.584   9.585  0.1799 -0.0903  0.0297
  484POPI   C3B 7721   4.884   7.600   9.144  0.2125 -0.1071 -0.1010
  484POPI   C4B 7722   4.753   7.798   8.766  0.0943  0.1882  0.1106
  485POPI    C1 7723   2.665  12.042  10.861 -0.0369  0.2665 -0.4587
  485POPI    C2 7724   2.395  12.288  11.024 -0.2200 -0.1761 -0.0736
  485POPI    C3 7725   2.744  12.225  11.208 -0.0570  0.0073 -0.3148
  485POPI   PO4 7726   2.734  12.115  10.657  0.0553  0.1282 -0.2898
  485POPI   GL1 7727   2.817  12.141  10.231 -0.0448 -0.1034 -0.2519
  485POPI   GL2 7728   2.643  12.425  10.083 -0.0300  0.2765  0.1321
  485POPI   C1A 7729   2.898  11.829   9.829 -0.2541  0.0636  0.0377
  485POPI   D2A 7730   3.269  11.795   9.439 -0.1244  0.2918  0.2753
  485POPI   C3A 7731   3.354  11.997   9.068  0.0592  0.0338  0.1962
  485POPI   C4A 7732   3.265  11.875   8.589  0.2204  0.0866  0.0523
  485POPI   C1B 7733   2.663  12.279   9.712 -0.0429  0.0154 -0.1532
  485POPI   C2B 7734   2.741  12.159   9.276 -0.0927  0.0805 -0.0721
  485POPI   C3B 7735   2.815  12.172   8.783  0.1230  0.0576 -0.0109
  485POPI   C4B 7736   2.903  12.460   8.520  0.1152  0.1778 -0.1122
  486POPI    C1 7737  11.213   6.737  10.618  0.0886 -0.0880  0.0186
  486POPI    C2 7738  11.275   6.496  10.931  0.1841 -0.0922 -0.0034
  486POPI    C3 7739  11.256   6.343  10.561 -0.0195 -0.0986  0.0090
  486POPI   PO4 7740  11.384   6.958  10.679  0.0618 -0.0920  0.2554
  486POPI   GL1 7741  11.689   7.141  10.485  0.0562 -0.0328  0.0266
  486POPI   GL2 7742  11.930   7.342  10.627  0.1564 -0.1704  0.1517
  486POPI   C1A 7743  11.712   7.386  10.132  0.0450 -0.0489  0.0059
  486POPI   D2A 7744  11.541   7.483   9.705 -0.0508 -0.0328 -0.1785
  486POPI   C3A 7745  11.607   7.372   9.243 -0.3060 -0.0725 -0.2153
  486POPI   C4A 7746  11.693   7.472   8.748  0.0659 -0.6465  0.3117
  486POPI   C1B 7747  12.135   7.448  10.286 -0.2225 -0.1164 -0.0312
  486POPI   C2B 7748  12.129   7.579   9.877 -0.0175  0.2839 -0.0976
  486POPI   C3B 7749  12.027   7.527   9.505  0.2282  0.2138 -0.1850
  486POPI   C4B 7750  12.107   7.341   9.045 -0.0580 -0.0870 -0.1001
  487POPI    C1 7751  10.045  17.160  10.497 -0.1978 -0.1165  0.0470
  487POPI    C2 7752  10.078  17.304  10.869 -0.1073  0.0403 -0.0208
  487POPI    C3 7753   9.740  17.359  10.662 -0.1640 -0.0622  0.0441
  487POPI   PO4 7754  10.187  17.276  10.342 -0.1614  0.0428 -0.0136
  487POPI   GL1 7755  10.216  17.632  10.029 -0.0595  0.0321  0.1288
  487POPI   GL2 7756  10.081  17.644   9.673  0.0611 -0.1312 -0.1495
  487POPI   C1A 7757  10.538  17.890   9.800 -0.1346  0.1948  0.2142
  487POPI   D2A 7758  10.643  17.780   9.378  0.2833 -0.3226 -0.1274
  487POPI   C3A 7759  10.973  17.916   9.201  0.4421 -0.1314  0.3593
  487POPI   C4A 7760  11.134  17.892   8.774  0.1784  0.0803 -0.3169
  487POPI   C1B 7761  10.343  17.389   9.321  0.1264  0.1327 -0.1867
  487POPI   C2B 7762  10.361  17.157   8.934 -0.1513  0.3168 -0.1058
  487POPI   C3B 7763  10.322  17.439   8.488 -0.0065  0.0035  0.2253
  487POPI   C4B 7764  10.104  17.513   8.065 -0.1291 -0.1280  0.1624
  488POPI    C1 7765   3.499   8.128  11.181  0.0070  0.0290 -0.0008
  488POPI    C2 7766   3.521   7.737  11.100  0.0335 -0.0237  0.2541
  488POPI    C3 7767   3.791   7.906  11.341  0.2115  0.2177 -0.1070
  488POPI   PO4 7768   3.493   8.188  10.811  0.0498 -0.0146  0.0371
  488POPI   GL1 7769   3.267   7.948  10.542  0.0932 -0.0934  0.2063
  488POPI   GL2 7770   3.351   7.681  10.231  0.0986  0.0663  0.1088
  488POPI   C1A 7771   3.121   8.083  10.051 -0.2437  0.4377  0.0693
  488POPI   D2A 7772   2.819   7.857   9.909  0.0833 -0.1691 -0.1403
  488POPI   C3A 7773   2.926   8.089   9.577 -0.3633  0.2208 -0.1467
  488POPI   C4A 7774   3.085   8.208   9.320  0.1281  0.0915  0.0461
  488POPI   C1B 7775   3.382   7.738   9.717 -0.1498 -0.3479  0.1804
  488POPI   C2B 7776   3.283   7.781   9.230 -0.1736  0.0366  0.3020
  488POPI   C3B 7777   3.278   7.713   8.816 -0.0745 -0.0451 -0.1009
  488POPI   C4B 7778   3.252   7.652   8.371  0.0289  0.2412  0.0278
  489POPI    C1 7779   0.521  12.847  10.871  0.1367 -0.0474  0.0180
  489POPI    C2 7780   0.685  13.120  11.113 -0.0031  0.0334  0.0227
  489POPI    C3 7781   0.371  12.906  11.236  0.1257 -0.1535  0.0310
  489POPI   PO4 7782   0.551  12.924  10.637  0.1770  0.1868 -0.2038
  489POPI   GL1 7783   0.597  12.806  10.291  0.0419 -0.1809 -0.0147
  489POPI   GL2 7784   0.232  12.682  10.345  0.0479 -0.3007  0.1336
  489POPI   C1A 7785   0.581  12.643   9.951 -0.1019  0.4205 -0.0841
  489POPI   D2A 7786   0.516  12.462   9.567 -0.0015 -0.2485 -0.0874
  489POPI   C3A 7787   0.198  12.446   9.207  0.0730 -0.1723  0.0922
  489POPI   C4A 7788   0.012  12.215   8.919 -0.0874  0.1647  0.2765
  489POPI   C1B 7789  -0.002  12.563  10.022  0.1514  0.0421  0.1507
  489POPI   C2B 7790  -0.002  12.508   9.712  0.0260  0.1366  0.1255
  489POPI   C3B 7791  -0.292  12.264   9.368 -0.2136 -0.4574  0.1186
  489POPI   C4B 7792  -0.471  12.113   8.901  0.0099 -0.1275  0.0148
  490POPI    C1 7793  16.422  15.717   9.845 -0.0758  0.2744  0.0745
  490POPI    C2 7794  16.623  15.841  10.167  0.0584  0.0491  0.0795
  490POPI    C3 7795  16.806  15.614   9.893 -0.0797  0.1670 -0.1124
  490POPI   PO4 7796  16.192  15.682   9.968  0.1609 -0.0881 -0.1957
  490POPI   GL1 7797  15.923  15.512   9.572 -0.0881  0.0502 -0.0495
  490POPI   GL2 7798  15.668  15.442   9.717  0.0443  0.0569 -0.2633
  490POPI   C1A 7799  16.120  15.540   9.179 -0.1538 -0.1559 -0.3582
  490POPI   D2A 7800  16.120  15.861   8.871  0.1935 -0.1883  0.0795
  490POPI   C3A 7801  16.086  16.272   9.001  0.1079 -0.0019  0.0561
  490POPI   C4A 7802  16.058  16.497   9.408  0.1831 -0.0909 -0.0641
  490POPI   C1B 7803  15.531  15.364   9.341 -0.2790 -0.0959  0.0709
  490POPI   C2B 7804  15.530  15.251   8.819 -0.0119  0.3497  0.2968
  490POPI   C3B 7805  15.686  15.012   8.534  0.1121 -0.0743 -0.2698
  490POPI   C4B 7806  15.547  14.817   8.120  0.0937  0.0992 -0.0515
  491POPI    C1 7807  17.343   3.671  10.597  0.2040  0.0758  0.0556
  491POPI    C2 7808  17.540   3.402  10.817  0.1620  0.0423  0.0519
  491POPI    C3 7809  17.648   3.786  10.828  0.0191  0.0775  0.3019
  491POPI   PO4 7810  17.295   3.613  10.382  0.0759  0.2984 -0.1726
  491POPI   GL1 7811  17.340   3.295  10.165 -0.0958  0.0882  0.0804
  491POPI   GL2 7812  17.331   3.108  10.001  0.0368  0.0957  0.0582
  491POPI   C1A 7813  17.065   3.432   9.665 -0.0551  0.1819 -0.0752
  491POPI   D2A 7814  16.927   3.431   9.275  0.1441  0.0487  0.1407
  491POPI   C3A 7815  17.204   3.455   8.978  0.1797 -0.2450  0.0558
  491POPI   C4A 7816  17.236   3.418   8.520 -0.3067  0.1639 -0.2529
  491POPI   C1B 7817  17.199   2.989   9.641 -0.0528  0.1337 -0.1893
  491POPI   C2B 7818  17.233   3.065   9.232  0.1345 -0.0678 -0.0973
  491POPI   C3B 7819  17.043   2.951   8.893  0.0773  0.0159  0.0752
  491POPI   C4B 7820  17.175   2.877   8.514 -0.1520  0.0159  0.2198
  492POPI    C1 7821   6.719   8.044  10.712  0.0863  0.0779  0.1071
  492POPI    C2 7822   6.811   7.716  10.921  0.0760 -0.0527 -0.0902
  492POPI    C3 7823   6.871   8.078  11.080 -0.0812 -0.1507  0.1995
  492POPI   PO4 7824   6.898   8.052  10.386  0.0482  0.0886 -0.1590
  492POPI   GL1 7825   6.804   8.216   9.970  0.0541  0.3188  0.2330
  492POPI   GL2 7826   6.830   7.907   9.850  0.2057 -0.0184 -0.2806
  492POPI   C1A 7827   6.585   8.238   9.531  0.0847  0.2091  0.1851
  492POPI   D2A 7828   6.459   8.322   9.064  0.0835 -0.0857 -0.2309
  492POPI   C3A 7829   6.756   8.378   8.791  0.1288 -0.1913  0.0887
  492POPI   C4A 7830   7.137   8.344   8.673  0.1856 -0.0498 -0.1706
  492POPI   C1B 7831   6.801   7.751   9.456 -0.2334 -0.4559 -0.2777
  492POPI   C2B 7832   6.815   7.870   9.095  0.1703  0.0097 -0.0650
  492POPI   C3B 7833   6.746   7.920   8.590  0.0827 -0.0315  0.1305
  492POPI   C4B 7834   6.838   8.213   8.279 -0.2337 -0.1810 -0.0604
  493POPI    C1 7835   7.350   6.796  10.905 -0.3538  0.0404  0.0284
  493POPI    C2 7836   7.433   7.169  11.022 -0.0090 -0.0553  0.0985
  493POPI    C3 7837   7.622   6.860  11.191 -0.3856 -0.2727  0.1323
  493POPI   PO4 7838   7.364   6.851  10.559 -0.0048 -0.2546 -0.1075
  493POPI   GL1 7839   7.218   6.894  10.147  0.0715  0.1308 -0.1168
  493POPI   GL2 7840   6.907   6.852  10.058 -0.0580 -0.0925 -0.4348
  493POPI   C1A 7841   7.344   6.831   9.750  0.0237 -0.1181  0.0963
  493POPI   D2A 7842   7.250   6.853   9.299 -0.1345  0.1289 -0.2361
  493POPI   C3A 7843   7.421   6.895   8.953  0.1446 -0.2628 -0.0659
  493POPI   C4A 7844   7.231   6.832   8.583 -0.1208  0.2311 -0.0263
  493POPI   C1B 7845   6.827   6.831   9.657 -0.1242 -0.2366 -0.1367
  493POPI   C2B 7846   6.755   6.951   9.202 -0.1994  0.0348  0.1346
  493POPI   C3B 7847   6.767   6.962   8.683 -0.0257 -0.0693  0.1884
  493POPI   C4B 7848   6.896   6.981   8.239  0.0620 -0.0174  0.0803
  494POPI    C1 7849   5.032   4.956  11.005  0.0544  0.0887  0.0410
  494POPI    C2 7850   5.023   5.322  11.168 -0.2601  0.0324  0.1580
  494POPI    C3 7851   4.945   5.001  11.393  0.0410 -0.1119  0.0621
  494POPI   PO4 7852   4.850   5.007  10.689 -0.3068  0.0496  0.0584
  494POPI   GL1 7853   5.117   4.988  10.301  0.0446  0.0960 -0.2335
  494POPI   GL2 7854   4.937   5.315  10.256 -0.0417 -0.1985 -0.0390
  494POPI   C1A 7855   5.176   4.916   9.873 -0.1039 -0.0763 -0.0257
  494POPI   D2A 7856   5.210   5.014   9.385  0.0084 -0.0608  0.3173
  494POPI   C3A 7857   5.267   4.837   9.033  0.1022 -0.0129 -0.2621
  494POPI   C4A 7858   5.384   4.944   8.648 -0.1376  0.0047 -0.4959
  494POPI   C1B 7859   4.925   5.467   9.902 -0.0233  0.0375 -0.0955
  494POPI   C2B 7860   4.975   5.461   9.461  0.1193 -0.0520  0.0130
  494POPI   C3B 7861   4.945   5.404   9.024  0.0922 -0.0710  0.3374
  494POPI   C4B 7862   4.910   5.383   8.490 -0.1983  0.0494  0.1019
  495POPI    C1 7863  16.806   8.984  10.924 -0.0137  0.0448  0.1200
  495POPI    C2 7864  16.759   8.622  11.088  0.0934  0.0346  0.1282
  495POPI    C3 7865  16.792   8.946  11.322  0.0985  0.0375  0.1234
  495POPI   PO4 7866  17.020   8.892  10.729  0.1912  0.0959 -0.0812
  495POPI   GL1 7867  17.028   9.059  10.336 -0.1405 -0.0374  0.0177
  495POPI   GL2 7868  17.284   9.148  10.280  0.1525 -0.4031 -0.1633
  495POPI   C1A 7869  16.900   9.103   9.864 -0.0262  0.0176 -0.0404
  495POPI   D2A 7870  16.875   9.276   9.401 -0.3332 -0.0007 -0.0852
  495POPI   C3A 7871  16.565   9.073   9.166  0.1473  0.4384 -0.3234
  495POPI   C4A 7872  16.212   9.141   8.885 -0.0047  0.0234  0.3633
  495POPI   C1B 7873  17.265   8.833   9.958  0.1974 -0.0425  0.2002
  495POPI   C2B 7874  17.085   8.741   9.533 -0.2403 -0.0462 -0.0972
  495POPI   C3B 7875  16.963   8.772   9.087 -0.0030  0.0803  0.0787
  495POPI   C4B 7876  16.711   8.573   8.761 -0.1393  0.0454  0.1277
  496POPI    C1 7877   3.971   1.051  10.782  0.3366 -0.0134 -0.1911
  496POPI    C2 7878   3.806   1.415  10.773 -0.2357 -0.2510  0.1066
  496POPI    C3 7879   4.048   1.312  11.075  0.1090 -0.0524 -0.0944
  496POPI   PO4 7880   3.998   0.998  10.534 -0.1669 -0.1345  0.0927
  496POPI   GL1 7881   3.880   1.164  10.074  0.1930 -0.0536 -0.0462
  496POPI   GL2 7882   3.701   1.377  10.277  0.0617 -0.0274  0.0424
  496POPI   C1A 7883   3.756   1.142   9.617  0.0140 -0.0074 -0.0630
  496POPI   D2A 7884   4.001   1.219   9.259 -0.0804 -0.0087  0.2271
  496POPI   C3A 7885   3.890   1.597   9.105  0.0882  0.0198  0.2361
  496POPI   C4A 7886   3.797   1.650   8.712 -0.0718 -0.0686  0.1284
  496POPI   C1B 7887   3.762   1.655   9.934 -0.4003 -0.2214 -0.1440
  496POPI   C2B 7888   3.588   1.633   9.571  0.0434  0.1115  0.1483
  496POPI   C3B 7889   3.412   1.368   9.290 -0.1320  0.0594 -0.0035
  496POPI   C4B 7890   3.424   1.313   8.911  0.0998  0.2173 -0.1251
  497POPI    C1 7891   8.460   5.205  10.900  0.1149 -0.2484  0.0386
  497POPI    C2 7892   8.333   5.440  11.198  0.2026 -0.1571  0.0044
  497POPI    C3 7893   8.703   5.289  11.206  0.2163 -0.1282 -0.0737
  497POPI   PO4 7894   8.398   5.402  10.686 -0.1511 -0.1842 -0.1290
  497POPI   GL1 7895   8.227   5.325  10.323 -0.1861  0.2522  0.0416
  497POPI   GL2 7896   8.377   5.710  10.254 -0.4934  0.0829  0.0064
  497POPI   C1A 7897   8.430   5.264   9.907  0.0826  0.1282 -0.2224
  497POPI   D2A 7898   8.500   5.387   9.563 -0.1531 -0.3101  0.0372
  497POPI   C3A 7899   8.489   5.469   9.194 -0.4441  0.1938 -0.0370
  497POPI   C4A 7900   8.461   5.593   8.729  0.3635  0.0106  0.4401
  497POPI   C1B 7901   8.411   6.002   9.854  0.3423  0.2419 -0.0346
  497POPI   C2B 7902   8.390   6.082   9.373  0.1956 -0.3798  0.2660
  497POPI   C3B 7903   8.361   6.123   8.950  0.1923  0.1194 -0.2844
  497POPI   C4B 7904   8.503   6.162   8.546  0.1806  0.1701 -0.0133
  498POPI    C1 7905  10.590   7.445  10.745 -0.0535 -0.0150 -0.1407
  498POPI    C2 7906  10.306   7.594  10.506 -0.2634 -0.0246  0.0974
  498POPI    C3 7907  10.303   7.206  10.603 -0.1518 -0.0304  0.0800
  498POPI   PO4 7908  10.795   7.618  10.728 -0.0024  0.0453  0.0374
  498POPI   GL1 7909  10.832   7.697  10.321  0.2079 -0.1114  0.0953
  498POPI   GL2 7910  10.512   7.660  10.030 -0.1721 -0.0876 -0.0832
  498POPI   C1A 7911  10.862   8.089  10.189 -0.0801 -0.5365 -0.1790
  498POPI   D2A 7912  10.919   8.203   9.757  0.0258  0.0001 -0.3169
  498POPI   C3A 7913  10.768   8.142   9.337  0.0925 -0.2670 -0.2025
  498POPI   C4A 7914  10.884   8.112   8.902  0.0661 -0.0452 -0.1089
  498POPI   C1B 7915  10.652   7.746   9.586  0.2925  0.1147 -0.1487
  498POPI   C2B 7916  10.659   7.649   9.134  0.1638  0.1009 -0.3298
  498POPI   C3B 7917  10.598   7.712   8.772  0.1164 -0.0235 -0.0712
  498POPI   C4B 7918  10.931   7.995   8.450  0.2161  0.3232 -0.1080
  499POPI    C1 7919  10.614   5.436  10.601 -0.2743  0.0724 -0.2063
  499POPI    C2 7920  10.379   5.528  10.912 -0.0619 -0.0754  0.0007
  499POPI    C3 7921  10.716   5.319  10.969  0.1601  0.1947 -0.2814
  499POPI   PO4 7922  10.592   5.658  10.410 -0.3545 -0.1759 -0.3451
  499POPI   GL1 7923  10.614   5.766  10.035  0.0797 -0.0439  0.0590
  499POPI   GL2 7924  10.363   5.925   9.994  0.2300 -0.2744 -0.0761
  499POPI   C1A 7925  10.540   5.869   9.525 -0.0599 -0.2543 -0.1581
  499POPI   D2A 7926  10.620   5.906   9.102 -0.1785  0.1800  0.3313
  499POPI   C3A 7927  10.392   5.554   8.886 -0.0805  0.2191  0.1367
  499POPI   C4A 7928  10.313   5.511   8.495 -0.0322  0.1282  0.2884
  499POPI   C1B 7929  10.163   6.166   9.613 -0.1927 -0.0064  0.0068
  499POPI   C2B 7930  10.147   6.228   9.136 -0.1245 -0.3250 -0.0144
  499POPI   C3B 7931  10.376   6.153   8.755 -0.1808 -0.2661 -0.3057
  499POPI   C4B 7932  10.766   5.896   8.582 -0.2453 -0.2610 -0.1544
  500POPI    C1 7933  10.675  10.953  11.025  0.0184  0.0419 -0.1753
  500POPI    C2 7934  10.504  10.927  11.386 -0.0862  0.0297 -0.2255
  500POPI    C3 7935  10.824  11.162  11.333  0.1274 -0.2158 -0.0498
  500POPI   PO4 7936  10.477  10.805  10.898  0.1246  0.0629 -0.3259
  500POPI   GL1 7937  10.316  11.024  10.580  0.0530  0.1243  0.1913
  500POPI   GL2 7938  10.146  10.744  10.454 -0.2528  0.2520  0.2774
  500POPI   C1A 7939  10.451  11.020  10.136  0.0726 -0.0203 -0.0353
  500POPI   D2A 7940  10.426  10.860   9.669 -0.1679  0.1908  0.2454
  500POPI   C3A 7941  10.620  10.890   9.280 -0.3518 -0.0407 -0.0414
  500POPI   C4A 7942  10.539  10.876   8.800 -0.0068 -0.0728 -0.0459
  500POPI   C1B 7943  10.339  10.507  10.203  0.0148 -0.3168 -0.2008
  500POPI   C2B 7944  10.428  10.403   9.804 -0.2980 -0.2070  0.0291
  500POPI   C3B 7945  10.445  10.373   9.365  0.0184  0.1713 -0.0190
  500POPI   C4B 7946  10.410  10.376   8.976  0.1881 -0.0309  0.2358
  501POPI    C1 7947  13.717  13.137  10.746  0.2901  0.0045  0.1346
  501POPI    C2 7948  13.745  13.303  11.108 -0.1631  0.1616  0.1038
  501POPI    C3 7949  13.483  13.009  11.043  0.1932 -0.1398 -0.0027
  501POPI   PO4 7950  13.854  13.029  10.684 -0.0094  0.1468  0.1771
  501POPI   GL1 7951  14.208  13.034  10.380 -0.0227 -0.2299 -0.0344
  501POPI   GL2 7952  14.078  12.791  10.148  0.0017 -0.1535 -0.5290
  501POPI   C1A 7953  14.281  13.255  10.040 -0.1598 -0.0393 -0.0939
  501POPI   D2A 7954  14.217  13.347   9.645 -0.1527 -0.1985 -0.0585
  501POPI   C3A 7955  14.263  13.179   9.188  0.3819 -0.0569  0.1819
  501POPI   C4A 7956  14.217  13.248   8.744  0.1267  0.0747  0.0160
  501POPI   C1B 7957  14.081  12.795   9.900  0.0778 -0.1823  0.2466
  501POPI   C2B 7958  14.083  12.804   9.529  0.1947  0.0168  0.1120
  501POPI   C3B 7959  14.102  12.725   9.080  0.0417 -0.0072 -0.0099
  501POPI   C4B 7960  13.983  12.756   8.619 -0.3643  0.3478 -0.1253
  502POPI    C1 7961  15.253   1.366  10.749 -0.1203 -0.2588 -0.4148
  502POPI    C2 7962  14.958   1.449  11.006  0.2056  0.0377 -0.1256
  502POPI    C3 7963  15.120   1.084  11.000  0.0643 -0.0270 -0.0483
  502POPI   PO4 7964  15.169   1.456  10.577 -0.0429  0.1528 -0.2821
  502POPI   GL1 7965  14.991   1.268  10.278 -0.1009  0.2315 -0.0173
  502POPI   GL2 7966  14.864   1.526  10.151 -0.3435  0.0410  0.2003
  502POPI   C1A 7967  14.727   0.946  10.096 -0.3562 -0.0668 -0.0336
  502POPI   D2A 7968  14.751   0.765   9.707 -0.0866  0.1049  0.0956
  502POPI   C3A 7969  14.497   0.820   9.362  0.0288  0.1571  0.0987
  502POPI   C4A 7970  14.322   1.131   9.142 -0.1904 -0.0841  0.2526
  502POPI   C1B 7971  14.879   1.343   9.784 -0.0256 -0.4006 -0.2043
  502POPI   C2B 7972  14.794   1.327   9.336  0.3109  0.1229 -0.1097
  502POPI   C3B 7973  14.639   1.412   8.907 -0.0982  0.3745 -0.0318
  502POPI   C4B 7974  14.571   1.358   8.450  0.1992  0.1901  0.1371
  503POPI    C1 7975   5.409  16.883  10.912  0.0799  0.1974 -0.1201
  503POPI    C2 7976   5.761  17.048  11.006  0.1236  0.1245 -0.1547
  503POPI    C3 7977   5.423  17.197  11.159  0.1802  0.1128 -0.0166
  503POPI   PO4 7978   5.379  16.915  10.690 -0.1987 -0.1487  0.4509
  503POPI   GL1 7979   5.299  16.647  10.288 -0.0365  0.0119  0.1351
  503POPI   GL2 7980   5.434  16.528  10.003 -0.1964  0.1979 -0.0272
  503POPI   C1A 7981   5.063  16.879   9.865  0.0218 -0.2991 -0.0258
  503POPI   D2A 7982   5.165  16.903   9.441 -0.1581  0.0577  0.3544
  503POPI   C3A 7983   5.197  16.744   9.019 -0.0868  0.1336  0.1219
  503POPI   C4A 7984   5.216  16.739   8.658 -0.0994 -0.0726 -0.0967
  503POPI   C1B 7985   5.470  16.472   9.599  0.0588  0.4393  0.1226
  503POPI   C2B 7986   5.298  16.331   9.218  0.4562 -0.2861  0.2068
  503POPI   C3B 7987   5.219  16.230   8.809  0.1779 -0.2666  0.1419
  503POPI   C4B 7988   5.125  16.157   8.426 -0.1106 -0.0111 -0.0085
  504POPI    C1 7989  10.868   3.320  10.993 -0.0638 -0.1364 -0.0760
  504POPI    C2 7990  10.754   3.462  11.349 -0.1954 -0.1897 -0.0963
  504POPI    C3 7991  10.528   3.192  11.160 -0.0354 -0.2957 -0.1383
  504POPI   PO4 7992  10.828   3.523  10.757  0.1081 -0.1417  0.0742
  504POPI   GL1 7993  10.699   3.598  10.341 -0.3710  0.0276  0.1710
  504POPI   GL2 7994  10.394   3.510  10.173 -0.0608 -0.2116  0.2039
  504POPI   C1A 7995  10.912   3.622   9.958  0.1348  0.0159  0.0983
  504POPI   D2A 7996  10.830   3.668   9.479  0.1513  0.0222  0.0201
  504POPI   C3A 7997  10.577   3.488   9.172  0.3263 -0.2976 -0.0560
  504POPI   C4A 7998  10.493   3.403   8.822  0.2522 -0.5197  0.0860
  504POPI   C1B 7999  10.392   3.598   9.835  0.0782  0.0664  0.0741
  504POPI   C2B 8000  10.206   3.666   9.454 -0.0247 -0.0904  0.0919
  504POPI   C3B 8001  10.149   3.657   9.059  0.0588  0.2307 -0.0706
  504POPI   C4B 8002  10.050   3.664   8.602  0.1651  0.0715 -0.2284
  505POPI    C1 8003  17.379   1.003  10.406  0.1589  0.2620  0.0839
  505POPI    C2 8004  17.044   1.219  10.372  0.0992  0.1512 -0.0419
  505POPI    C3 8005  17.138   1.049  10.722 -0.0511  0.0617 -0.0443
  505POPI   PO4 8006  17.554   1.246  10.268 -0.1803 -0.0126 -0.3117
  505POPI   GL1 8007  17.719   1.567  10.009 -0.0441 -0.1732 -0.0379
  505POPI   GL2 8008  18.040   1.276   9.994  0.0258 -0.1270 -0.1944
  505POPI   C1A 8009  17.839   1.626   9.672 -0.0468  0.1971  0.0940
  505POPI   D2A 8010  17.668   1.775   9.223 -0.1060  0.1515  0.3172
  505POPI   C3A 8011  17.350   1.673   9.113 -0.3586 -0.1011 -0.0989
  505POPI   C4A 8012  17.221   1.555   8.640 -0.0414  0.0990 -0.1548
  505POPI   C1B 8013  18.232   1.328   9.605 -0.2114 -0.2466  0.0865
  505POPI   C2B 8014  18.057   1.509   9.085 -0.0876 -0.0584  0.2836
  505POPI   C3B 8015  17.863   1.471   8.737 -0.1179 -0.0224 -0.1024
  505POPI   C4B 8016  17.630   1.626   8.352 -0.3864 -0.0081  0.0152
  506POPI    C1 8017  16.495   4.667  10.773 -0.0186  0.0517 -0.1027
  506POPI    C2 8018  16.465   4.825  11.139  0.1713  0.0647 -0.0918
  506POPI    C3 8019  16.751   4.557  11.060 -0.0659 -0.1761 -0.1465
  506POPI   PO4 8020  16.295   4.723  10.683 -0.0833 -0.0290  0.2019
  506POPI   GL1 8021  16.208   4.848  10.293 -0.1362  0.0945 -0.0678
  506POPI   GL2 8022  15.916   4.620  10.316 -0.2647 -0.1916  0.0557
  506POPI   C1A 8023  16.394   4.641   9.941  0.0196  0.0725 -0.0453
  506POPI   D2A 8024  16.494   4.702   9.536  0.4254  0.4749 -0.1965
  506POPI   C3A 8025  16.706   5.007   9.363 -0.3281  0.0016  0.0216
  506POPI   C4A 8026  16.991   5.220   9.533  0.1640 -0.1829  0.0034
  506POPI   C1B 8027  15.882   4.598   9.793  0.0497  0.6580  0.0622
  506POPI   C2B 8028  15.972   4.646   9.475 -0.0969 -0.1009  0.4073
  506POPI   C3B 8029  16.270   4.628   9.084 -0.0326 -0.2920  0.1282
  506POPI   C4B 8030  16.768   4.736   8.855  0.0212 -0.3734 -0.2146
  507POPI    C1 8031  17.108  17.303   9.991 -0.0126  0.0766  0.0260
  507POPI    C2 8032  17.243  17.116  10.318 -0.1714 -0.0776  0.0051
  507POPI    C3 8033  17.486  17.174  10.006 -0.1067 -0.2070  0.0309
  507POPI   PO4 8034  16.936  17.373  10.036  0.2590  0.0012 -0.1062
  507POPI   GL1 8035  16.600  17.512   9.796 -0.2168 -0.5420 -0.1374
  507POPI   GL2 8036  16.823  17.296   9.591  0.0498  0.1913 -0.0749
  507POPI   C1A 8037  16.459  17.848   9.510 -0.0625  0.1273 -0.0791
  507POPI   D2A 8038  16.580  18.034   9.061  0.0404 -0.0962  0.0629
  507POPI   C3A 8039  16.745  18.410   8.783 -0.3087 -0.0262 -0.2368
  507POPI   C4A 8040  16.680  18.648   8.429 -0.4543  0.0095 -0.1198
  507POPI   C1B 8041  16.788  17.571   9.234 -0.2823 -0.3119 -0.0766
  507POPI   C2B 8042  16.900  17.740   8.815  0.1073 -0.0213 -0.0388
  507POPI   C3B 8043  16.967  18.101   8.462 -0.0728 -0.2675 -0.1248
  507POPI   C4B 8044  16.759  18.164   8.065 -0.1220 -0.0476 -0.0913
  508POPI    C1 8045   2.921  13.722  11.067  0.1577 -0.0980  0.0441
  508POPI    C2 8046   3.043  13.987  11.342  0.0146 -0.0183  0.0321
  508POPI    C3 8047   2.828  13.669  11.453 -0.1552  0.0834 -0.0032
  508POPI   PO4 8048   3.085  13.748  10.852  0.0684  0.4295 -0.2111
  508POPI   GL1 8049   3.255  13.838  10.478 -0.0274  0.2294 -0.0205
  508POPI   GL2 8050   3.126  14.098  10.503 -0.1328 -0.1056  0.1209
  508POPI   C1A 8051   3.328  13.722  10.043  0.1415  0.1478  0.1385
  508POPI   D2A 8052   3.050  13.742   9.686  0.0612  0.2385 -0.4188
  508POPI   C3A 8053   2.878  13.424   9.329 -0.0743 -0.0838 -0.1668
  508POPI   C4A 8054   2.915  13.237   8.894 -0.1754  0.0033 -0.0930
  508POPI   C1B 8055   2.946  14.086  10.087  0.0845 -0.0863 -0.0443
  508POPI   C2B 8056   3.004  14.292   9.673  0.0083 -0.0092  0.4023
  508POPI   C3B 8057   3.254  14.285   9.281  0.0330  0.4128 -0.1844
  508POPI   C4B 8058   3.440  14.123   8.962  0.1221  0.1451  0.3124
  509POPI    C1 8059  16.846  16.784  10.132 -0.0151  0.1993 -0.0250
  509POPI    C2 8060  16.809  17.058  10.422 -0.1828  0.1684 -0.0162
  509POPI    C3 8061  16.575  16.733  10.422 -0.1341  0.1326 -0.1468
  509POPI   PO4 8062  16.978  16.824  10.009  0.2428  0.0808  0.2489
  509POPI   GL1 8063  17.143  16.914   9.595  0.0360 -0.2115 -0.0214
  509POPI   GL2 8064  16.952  16.774   9.434 -0.2842  0.2157 -0.0735
  509POPI   C1A 8065  17.367  16.821   9.174 -0.2721  0.0454  0.0305
  509POPI   D2A 8066  17.458  16.886   8.670 -0.0398  0.0579 -0.1692
  509POPI   C3A 8067  17.148  16.901   8.424  0.1439 -0.0849 -0.0841
  509POPI   C4A 8068  16.662  16.716   8.331 -0.0412 -0.3460 -0.0009
  509POPI   C1B 8069  16.941  17.114   9.071  0.2376 -0.1491 -0.0242
  509POPI   C2B 8070  17.161  17.194   8.842 -0.1727 -0.0846  0.1135
  509POPI   C3B 8071  17.193  17.392   8.497  0.0465  0.1180 -0.0722
  509POPI   C4B 8072  17.025  17.221   8.080  0.2683 -0.0925 -0.2090
  510POPI    C1 8073  11.711  15.873  10.265  0.2762 -0.0774  0.1847
  510POPI    C2 8074  11.652  16.153  10.544 -0.0189  0.1449 -0.0938
  510POPI    C3 8075  11.484  15.793  10.584  0.2246  0.0585  0.1827
  510POPI   PO4 8076  11.664  15.937  10.027  0.0624  0.2388  0.1822
  510POPI   GL1 8077  11.614  15.817   9.628  0.1394  0.0137  0.0804
  510POPI   GL2 8078  11.486  15.529   9.788  0.2064 -0.0333 -0.0866
  510POPI   C1A 8079  11.563  15.729   9.292 -0.0327  0.2659 -0.1650
  510POPI   D2A 8080  11.552  15.538   8.888 -0.1886  0.1978 -0.0314
  510POPI   C3A 8081  11.690  15.492   8.455 -0.0262 -0.1507  0.0234
  510POPI   C4A 8082  11.829  15.486   8.111  0.3437  0.0858 -0.0759
  510POPI   C1B 8083  11.956  15.403   9.639  0.2399 -0.4338  0.1709
  510POPI   C2B 8084  11.975  15.261   9.196 -0.2166  0.0171  0.2174
  510POPI   C3B 8085  11.978  15.270   8.793 -0.3911 -0.0258  0.2781
  510POPI   C4B 8086  12.086  15.136   8.347 -0.2335  0.1386 -0.2325
  511POPI    C1 8087  10.720   6.218  10.876  0.0124  0.0006 -0.1666
  511POPI    C2 8088  10.483   6.349  11.171  0.2895  0.0688  0.0297
  511POPI    C3 8089  10.354   6.063  10.922 -0.0686  0.2399  0.0136
  511POPI   PO4 8090  10.800   6.455  10.787  0.1240  0.0160 -0.1268
  511POPI   GL1 8091  10.819   6.602  10.363  0.0987  0.3879 -0.0305
  511POPI   GL2 8092  10.702   6.705  10.128 -0.1083  0.1509  0.1016
  511POPI   C1A 8093  11.226   6.563  10.153  0.2470 -0.0098  0.3913
  511POPI   D2A 8094  11.625   6.807  10.165 -0.1451  0.0772 -0.1493
  511POPI   C3A 8095  11.865   6.970   9.854 -0.2983 -0.2649  0.0544
  511POPI   C4A 8096  11.959   6.963   9.385 -0.1032  0.0416  0.2929
  511POPI   C1B 8097  10.871   6.863   9.660  0.0823 -0.0535 -0.0509
  511POPI   C2B 8098  10.826   6.826   9.157  0.2063  0.0047  0.0879
  511POPI   C3B 8099  10.851   6.912   8.729  0.0163 -0.0545  0.2920
  511POPI   C4B 8100  10.858   7.051   8.258 -0.1608 -0.1233  0.1070
  512POPI    C1 8101  10.671   2.874  10.838  0.2936 -0.0151 -0.1413
  512POPI    C2 8102  10.723   2.478  10.843 -0.0828 -0.0660  0.2456
  512POPI    C3 8103  10.823   2.698  11.162  0.0767  0.1466  0.0522
  512POPI   PO4 8104  10.468   2.900  10.659 -0.5171 -0.2135  0.2051
  512POPI   GL1 8105  10.395   3.002  10.237  0.0266  0.0019  0.2223
  512POPI   GL2 8106  10.280   3.097   9.972 -0.5194  0.0059  0.0018
  512POPI   C1A 8107  10.546   2.704   9.910 -0.3954 -0.0062  0.1129
  512POPI   D2A 8108  10.651   2.543   9.523  0.0478  0.1167  0.1584
  512POPI   C3A 8109  10.692   2.824   9.212 -0.2668 -0.1350 -0.2179
  512POPI   C4A 8110  10.657   2.807   8.880  0.1069  0.2440  0.0412
  512POPI   C1B 8111  10.311   3.071   9.570 -0.1919  0.1587  0.1867
  512POPI   C2B 8112  10.236   3.042   9.094  0.1576 -0.1629 -0.0742
  512POPI   C3B 8113  10.050   3.119   8.742 -0.0106  0.3814  0.1134
  512POPI   C4B 8114  10.250   3.021   8.385 -0.1102  0.2305 -0.0405
  513POPI    C1 8115  14.464   8.341  11.069  0.2214  0.1579 -0.0530
  513POPI    C2 8116  14.665   8.166  11.367 -0.0536 -0.1707 -0.0553
  513POPI    C3 8117  14.304   8.325  11.435 -0.0759 -0.1622 -0.1909
  513POPI   PO4 8118  14.564   8.259  10.888 -0.1286  0.0782 -0.1175
  513POPI   GL1 8119  14.528   7.991  10.516 -0.0857  0.1370 -0.1317
  513POPI   GL2 8120  14.891   7.902  10.585  0.0989 -0.3010 -0.0233
  513POPI   C1A 8121  14.558   8.220  10.134 -0.1821 -0.0613  0.4193
  513POPI   D2A 8122  14.400   8.263   9.718  0.0786 -0.1172  0.2794
  513POPI   C3A 8123  14.372   8.194   9.304  0.1056 -0.0412  0.1722
  513POPI   C4A 8124  14.309   8.174   8.883 -0.1591  0.0824 -0.4873
  513POPI   C1B 8125  14.873   7.864  10.200  0.1248  0.0713 -0.0124
  513POPI   C2B 8126  14.768   7.836   9.798 -0.2265 -0.1641  0.0577
  513POPI   C3B 8127  14.684   7.801   9.332  0.0598  0.0817 -0.2428
  513POPI   C4B 8128  14.931   7.982   8.868 -0.0442 -0.1006  0.0588
  514POPI    C1 8129  13.023   8.829  11.267  0.1384  0.0165 -0.0949
  514POPI    C2 8130  13.309   9.050  11.439 -0.0583  0.1710  0.0388
  514POPI    C3 8131  12.994   8.928  11.654  0.2078 -0.5294  0.0586
  514POPI   PO4 8132  13.034   8.926  10.975 -0.2474  0.0148 -0.0026
  514POPI   GL1 8133  12.865   8.883  10.598  0.0906  0.2041 -0.2543
  514POPI   GL2 8134  12.604   9.117  10.744 -0.0846  0.2722  0.1295
  514POPI   C1A 8135  12.736   8.863  10.283 -0.2286  0.0097  0.1530
  514POPI   D2A 8136  12.545   9.036  10.007 -0.3025  0.3254 -0.0490
  514POPI   C3A 8137  12.595   8.918   9.600  0.0440  0.0540 -0.0629
  514POPI   C4A 8138  12.581   8.876   9.115 -0.0017 -0.1566 -0.1911
  514POPI   C1B 8139  12.295   9.346  10.505 -0.1883  0.1459  0.2534
  514POPI   C2B 8140  12.306   9.402  10.151 -0.2200  0.0905  0.0535
  514POPI   C3B 8141  12.333   9.433   9.722  0.1823  0.1392 -0.0445
  514POPI   C4B 8142  12.289   9.353   9.361 -0.1616  0.1890 -0.0987
  515POPI    C1 8143  11.690   1.743  11.008  0.3082 -0.2308 -0.1609
  515POPI    C2 8144  11.912   1.834  11.329  0.0979 -0.0775 -0.0563
  515POPI    C3 8145  11.746   1.471  11.296  0.2951 -0.1656 -0.0965
  515POPI   PO4 8146  11.807   1.813  10.748 -0.0509 -0.1009  0.2913
  515POPI   GL1 8147  11.925   1.944  10.376 -0.2791  0.1082  0.2261
  515POPI   GL2 8148  11.712   2.080  10.191 -0.2885 -0.0076  0.1658
  515POPI   C1A 8149  12.094   1.699   9.965 -0.0608  0.0054  0.3350
  515POPI   D2A 8150  12.049   1.565   9.586 -0.3534  0.1139 -0.1242
  515POPI   C3A 8151  12.339   1.816   9.329  0.2415 -0.1710  0.0478
  515POPI   C4A 8152  12.283   1.966   8.919 -0.0395 -0.1993 -0.0202
  515POPI   C1B 8153  11.823   2.086   9.872  0.3284  0.1162 -0.5044
  515POPI   C2B 8154  11.854   1.984   9.415 -0.2045  0.0560  0.2195
  515POPI   C3B 8155  11.804   2.066   9.040  0.0930  0.1302 -0.1618
  515POPI   C4B 8156  11.846   1.888   8.691  0.3348 -0.1034  0.0866
  516POPI    C1 8157   6.331  17.139  10.370 -0.3313 -0.1812  0.0135
  516POPI    C2 8158   6.164  17.256  10.713 -0.0125 -0.0046  0.1131
  516POPI    C3 8159   6.315  16.887  10.681 -0.0684 -0.0314  0.1515
  516POPI   PO4 8160   6.190  17.127  10.210  0.1205 -0.1153  0.0630
  516POPI   GL1 8161   6.038  17.158   9.858 -0.1357  0.2008  0.1695
  516POPI   GL2 8162   6.303  16.992   9.640  0.0697  0.0202 -0.1482
  516POPI   C1A 8163   5.978  17.264   9.365  0.0389 -0.0875  0.0872
  516POPI   D2A 8164   5.860  17.270   8.949 -0.1897 -0.3190  0.1896
  516POPI   C3A 8165   6.112  17.292   8.619  0.2030 -0.0178 -0.0874
  516POPI   C4A 8166   6.416  17.389   8.546 -0.0087 -0.1779  0.2362
  516POPI   C1B 8167   6.282  16.668   9.331 -0.1802  0.0027  0.1267
  516POPI   C2B 8168   6.158  16.725   8.873 -0.2341  0.0790 -0.0266
  516POPI   C3B 8169   6.047  16.665   8.512 -0.1452  0.0232 -0.1302
  516POPI   C4B 8170   5.935  16.815   8.112  0.0858  0.2441 -0.0086
  517POPI    C1 8171   9.268  16.585  10.553  0.1777 -0.0705 -0.1814
  517POPI    C2 8172   8.882  16.510  10.628  0.1807  0.1295  0.0456
  517POPI    C3 8173   9.166  16.347  10.858  0.2222  0.1596  0.0160
  517POPI   PO4 8174   9.221  16.518  10.252 -0.0942  0.1897 -0.0611
  517POPI   GL1 8175   9.364  16.612   9.944 -0.2343 -0.1237 -0.2605
  517POPI   GL2 8176   9.362  16.921   9.771  0.0971 -0.2333 -0.1002
  517POPI   C1A 8177   9.698  16.337   9.772 -0.3117 -0.1186 -0.2999
  517POPI   D2A 8178  10.056  16.290   9.471 -0.0147 -0.1042 -0.1438
  517POPI   C3A 8179  10.121  16.147   9.010 -0.2174  0.1167 -0.0225
  517POPI   C4A 8180  10.397  15.904   8.704 -0.0212 -0.0667 -0.3902
  517POPI   C1B 8181   9.270  16.753   9.348 -0.1586 -0.2517 -0.2025
  517POPI   C2B 8182   9.306  16.830   8.981  0.2853  0.2206 -0.4125
  517POPI   C3B 8183   9.507  16.773   8.587 -0.1949  0.0630  0.0430
  517POPI   C4B 8184   9.761  16.598   8.238  0.1621  0.0058 -0.2934
  518POPI    C1 8185  17.454   7.656  10.815 -0.0872 -0.1225 -0.0494
  518POPI    C2 8186  17.629   7.898  11.082  0.2762 -0.2470 -0.1704
  518POPI    C3 8187  17.250   7.963  10.972  0.2369  0.0161  0.1097
  518POPI   PO4 8188  17.583   7.603  10.551  0.0811  0.4413  0.0457
  518POPI   GL1 8189  17.658   7.381  10.219 -0.0799 -0.0014  0.0766
  518POPI   GL2 8190  17.418   7.051  10.245  0.0127 -0.0908  0.0540
  518POPI   C1A 8191  17.672   7.390   9.705 -0.0241  0.0678  0.1140
  518POPI   D2A 8192  17.890   7.579   9.497 -0.1112 -0.0345  0.0735
  518POPI   C3A 8193  17.842   7.671   9.141 -0.0709  0.2585  0.2626
  518POPI   C4A 8194  18.023   7.584   8.820  0.0737 -0.0081 -0.2492
  518POPI   C1B 8195  17.626   6.925   9.930 -0.2133 -0.1347 -0.2048
  518POPI   C2B 8196  17.562   6.890   9.509 -0.0655 -0.0964 -0.0087
  518POPI   C3B 8197  17.508   7.274   9.236 -0.0184  0.0344 -0.0058
  518POPI   C4B 8198  17.515   7.450   8.838 -0.1809 -0.0968  0.0536
  519POPI    C1 8199   8.625  14.525  10.693  0.0454 -0.1685 -0.0283
  519POPI    C2 8200   8.666  14.182  10.894  0.1533 -0.0703  0.1184
  519POPI    C3 8201   8.986  14.410  10.819  0.0988 -0.0571 -0.0787
  519POPI   PO4 8202   8.517  14.534  10.486 -0.0568  0.1427  0.0009
  519POPI   GL1 8203   8.194  14.396  10.223 -0.2056  0.0710 -0.3973
  519POPI   GL2 8204   8.098  14.678  10.219  0.2123 -0.0683  0.0161
  519POPI   C1A 8205   8.239  14.478   9.809  0.0398  0.1196  0.3684
  519POPI   D2A 8206   7.982  14.470   9.371  0.1178 -0.3005  0.1177
  519POPI   C3A 8207   8.035  14.586   8.867  0.0145 -0.1892  0.1042
  519POPI   C4A 8208   8.112  14.558   8.417 -0.0190 -0.0690  0.2036
  519POPI   C1B 8209   7.988  14.980   9.882  0.0486  0.0934  0.1193
  519POPI   C2B 8210   8.075  15.039   9.546  0.0972  0.2071  0.2106
  519POPI   C3B 8211   8.173  15.036   9.133 -0.0749 -0.0230  0.1723
  519POPI   C4B 8212   8.269  14.990   8.668  0.0902 -0.0273  0.0621
  520POPI    C1 8213   8.400  16.299  10.644  0.1308  0.0205  0.3405
  520POPI    C2 8214   8.037  16.143  10.705  0.1316 -0.0774  0.1089
  520POPI    C3 8215   8.279  16.217  11.016 -0.1676  0.1907  0.2839
  520POPI   PO4 8216   8.507  16.163  10.436 -0.0609  0.0594 -0.0794
  520POPI   GL1 8217   8.620  15.859  10.067  0.1738  0.1460  0.2074
  520POPI   GL2 8218   8.848  15.743  10.164  0.1120  0.1332  0.3741
  520POPI   C1A 8219   8.815  15.875   9.647 -0.1032  0.1104  0.1748
  520POPI   D2A 8220   9.061  15.814   9.242 -0.0081  0.0374  0.3252
  520POPI   C3A 8221   9.158  16.172   8.995  0.0080  0.2037  0.0522
  520POPI   C4A 8222   9.004  16.552   8.715  0.0313  0.0795  0.0070
  520POPI   C1B 8223   9.099  15.539   9.880  0.3504  0.0575 -0.0980
  520POPI   C2B 8224   9.289  15.480   9.545  0.1321  0.0461 -0.1946
  520POPI   C3B 8225   9.267  15.312   9.120  0.0358  0.1875  0.2534
  520POPI   C4B 8226   9.229  15.141   8.740 -0.1264  0.2357 -0.0070
  521POPI    C1 8227   1.063   4.402  10.603  0.1973 -0.0007  0.0382
  521POPI    C2 8228   0.951   4.165  10.905  0.2492  0.0146  0.0694
  521POPI    C3 8229   1.338   4.255  10.854  0.2209  0.1636  0.1103
  521POPI   PO4 8230   0.890   4.323  10.396 -0.1788  0.2395 -0.1970
  521POPI   GL1 8231   0.912   4.523  10.007 -0.2836  0.0183 -0.0603
  521POPI   GL2 8232   1.216   4.273   9.976  0.4674 -0.0828  0.1486
  521POPI   C1A 8233   1.110   4.561   9.608 -0.2588 -0.1212  0.2290
  521POPI   D2A 8234   1.209   4.648   9.172  0.2997 -0.0524 -0.1942
  521POPI   C3A 8235   0.977   4.628   8.750 -0.3584 -0.0122 -0.1838
  521POPI   C4A 8236   1.020   4.330   8.470 -0.0283  0.2012 -0.2110
  521POPI   C1B 8237   1.431   4.104   9.593  0.1291 -0.3636 -0.2945
  521POPI   C2B 8238   1.421   4.190   9.225  0.0833 -0.0861 -0.0382
  521POPI   C3B 8239   1.499   4.383   8.832  0.1883 -0.1808 -0.0333
  521POPI   C4B 8240   1.433   4.709   8.502  0.0415  0.0951 -0.1268
  522POPI    C1 8241   6.538   1.743  10.790  0.0708 -0.1060  0.0364
  522POPI    C2 8242   6.698   2.102  10.862 -0.3718  0.0761  0.1415
  522POPI    C3 8243   6.747   1.805  11.126 -0.0662  0.0766  0.0890
  522POPI   PO4 8244   6.500   1.745  10.500 -0.0509 -0.3650 -0.1853
  522POPI   GL1 8245   6.444   1.827  10.169 -0.0630 -0.0605 -0.0719
  522POPI   GL2 8246   6.189   2.013  10.063  0.4411 -0.1068 -0.2208
  522POPI   C1A 8247   6.543   1.561   9.849  0.1812  0.2309 -0.0242
  522POPI   D2A 8248   6.923   1.666   9.720 -0.2296 -0.0996  0.0931
  522POPI   C3A 8249   6.919   1.687   9.277 -0.1279 -0.0990  0.0419
  522POPI   C4A 8250   7.150   1.674   8.836  0.2223  0.0074 -0.1054
  522POPI   C1B 8251   6.394   2.080   9.737  0.1329 -0.0284 -0.1657
  522POPI   C2B 8252   6.662   2.122   9.455 -0.1399  0.0538  0.2497
  522POPI   C3B 8253   6.680   2.118   8.997 -0.0902  0.0385 -0.1998
  522POPI   C4B 8254   6.776   2.040   8.478 -0.0823  0.2009 -0.1324
  523POPI    C1 8255   0.105   3.131  10.685  0.1438 -0.1825  0.1278
  523POPI    C2 8256  -0.007   3.434  10.921 -0.0560 -0.0888 -0.0840
  523POPI    C3 8257   0.260   3.167  11.053  0.0932  0.1553  0.1196
  523POPI   PO4 8258   0.280   3.261  10.450  0.4125  0.0078 -0.3189
  523POPI   GL1 8259   0.510   3.021  10.101 -0.0969  0.3597  0.0553
  523POPI   GL2 8260   0.834   3.051   9.960  0.1792  0.2241 -0.1364
  523POPI   C1A 8261   0.324   3.320   9.723 -0.1162  0.0533  0.0629
  523POPI   D2A 8262   0.138   3.281   9.363  0.2237 -0.2455  0.2074
  523POPI   C3A 8263   0.191   3.457   8.881 -0.0162  0.3769 -0.0600
  523POPI   C4A 8264   0.423   3.296   8.469 -0.1078  0.0971 -0.3701
  523POPI   C1B 8265   0.932   3.194   9.539  0.0387 -0.2648  0.0127
  523POPI   C2B 8266   1.015   3.199   9.174 -0.1432 -0.1738 -0.2611
  523POPI   C3B 8267   1.210   2.903   8.864  0.1206  0.0551 -0.1090
  523POPI   C4B 8268   1.592   2.933   8.530  0.1478  0.0553  0.2382
  524DPPI    C1 8269   5.166  17.892  10.572 -0.0150  0.0118  0.0952
  524DPPI    C2 8270   5.338  17.715  10.257 -0.4118 -0.0615 -0.0864
  524DPPI    C3 8271   5.565  17.875  10.545 -0.0452 -0.3361 -0.2147
  524DPPI   PO4 8272   4.984  17.678  10.613  0.3630  0.3173 -0.0738
  524DPPI   GL1 8273   5.018  17.340  10.277 -0.0330  0.0702 -0.1793
  524DPPI   GL2 8274   5.296  17.166  10.200 -0.2736  0.0644 -0.0864
  524DPPI   C1A 8275   5.007  17.398   9.788 -0.1852 -0.0453  0.1391
  524DPPI   C2A 8276   5.036  17.515   9.390 -0.0652 -0.2633  0.1301
  524DPPI   C3A 8277   4.887  17.564   8.984  0.1047  0.0499 -0.0375
  524DPPI   C4A 8278   4.756  17.689   8.580  0.0759  0.0761 -0.3179
  524DPPI   C1B 8279   5.537  17.048   9.750 -0.0332  0.1148  0.0625
  524DPPI   C2B 8280   5.495  17.317   9.401  0.3109  0.0582  0.2348
  524DPPI   C3B 8281   5.366  17.369   8.993 -0.1563  0.0010 -0.0001
  524DPPI   C4B 8282   5.283  17.374   8.564 -0.0184 -0.0089 -0.0877
  525DPPI    C1 8283  13.064   3.443  11.034  0.1714 -0.1854  0.1074
  525DPPI    C2 8284  12.948   3.671  11.341  0.1499 -0.1258  0.0552
  525DPPI    C3 8285  12.695   3.403  11.185  0.0768  0.0120 -0.0659
  525DPPI   PO4 8286  13.117   3.588  10.813  0.1053  0.1149  0.0398
  525DPPI   GL1 8287  13.160   3.415  10.418  0.0042  0.1713  0.0113
  525DPPI   GL2 8288  13.522   3.244  10.434 -0.1856  0.0682  0.1585
  525DPPI   C1A 8289  13.130   3.628  10.063 -0.1304 -0.0974  0.1781
  525DPPI   C2A 8290  13.027   3.844   9.593 -0.2602 -0.0325  0.0203
  525DPPI   C3A 8291  13.074   3.690   9.129  0.1757 -0.0078 -0.0009
  525DPPI   C4A 8292  13.457   3.798   8.893 -0.1010  0.1310 -0.0087
  525DPPI   C1B 8293  13.374   3.206  10.026 -0.1041 -0.2168 -0.1866
  525DPPI   C2B 8294  13.417   3.388   9.540  0.0669  0.2144  0.0271
  525DPPI   C3B 8295  13.570   3.294   9.143  0.5854  0.1535  0.0588
  525DPPI   C4B 8296  13.496   3.223   8.686 -0.0775 -0.1522  0.2025
  526DPPI    C1 8297   4.420  15.706  10.733  0.2109  0.1266 -0.0598
  526DPPI    C2 8298   4.285  16.009  10.956  0.0480  0.1380 -0.1731
  526DPPI    C3 8299   4.036  15.717  10.843  0.1330  0.1225 -0.3240
  526DPPI   PO4 8300   4.531  15.803  10.556  0.2297  0.2393 -0.1414
  526DPPI   GL1 8301   4.815  16.014  10.306  0.1112 -0.0952 -0.3154
  526DPPI   GL2 8302   5.068  15.879  10.053 -0.0135 -0.1203  0.2084
  526DPPI   C1A 8303   4.600  15.950   9.855  0.1672  0.0825  0.1914
  526DPPI   C2A 8304   4.625  15.796   9.482  0.0318 -0.2753 -0.0563
  526DPPI   C3A 8305   4.608  15.538   9.117  0.1782  0.0001  0.3528
  526DPPI   C4A 8306   4.522  15.367   8.718 -0.0618  0.2198 -0.1894
  526DPPI   C1B 8307   5.088  16.049   9.674  0.1711 -0.3114  0.1256
  526DPPI   C2B 8308   4.914  16.014   9.207  0.0013  0.0282  0.2028
  526DPPI   C3B 8309   4.825  15.846   8.712 -0.0101 -0.1619 -0.1697
  526DPPI   C4B 8310   4.837  15.761   8.311 -0.0513  0.1828 -0.1099
  527DPPI    C1 8311   6.542   0.960  11.103 -0.2957  0.0987  0.5574
  527DPPI    C2 8312   6.711   1.322  11.081 -0.1535  0.0080  0.0233
  527DPPI    C3 8313   6.879   1.037  11.305  0.1061  0.0794 -0.0759
  527DPPI   PO4 8314   6.516   0.829  10.754  0.0322  0.2350 -0.0563
  527DPPI   GL1 8315   6.427   0.485  10.411 -0.3452  0.1526  0.2284
  527DPPI   GL2 8316   6.714   0.443  10.264 -0.1570  0.2925  0.2034
  527DPPI   C1A 8317   6.186   0.674  10.044 -0.0705  0.1625  0.2731
  527DPPI   C2A 8318   5.877   0.524   9.807  0.2817 -0.0562  0.2982
  527DPPI   C3A 8319   5.925   0.580   9.413 -0.2744  0.3018 -0.2360
  527DPPI   C4A 8320   6.159   0.629   9.031 -0.1205 -0.1342  0.1185
  527DPPI   C1B 8321   6.559   0.439   9.840  0.1366  0.0670  0.3227
  527DPPI   C2B 8322   6.536   0.488   9.352  0.0343 -0.0642  0.1870
  527DPPI   C3B 8323   6.709   0.740   9.081 -0.0181 -0.2043  0.1018
  527DPPI   C4B 8324   6.430   1.056   8.888  0.0735  0.0786 -0.0625
  528DPPI    C1 8325  12.313  14.510  10.891 -0.0309 -0.0862  0.1329
  528DPPI    C2 8326  12.684  14.361  10.898 -0.0040 -0.0160  0.2256
  528DPPI    C3 8327  12.378  14.142  11.034 -0.0000 -0.0823  0.1290
  528DPPI   PO4 8328  12.292  14.582  10.644  0.1756 -0.0910  0.2383
  528DPPI   GL1 8329  11.964  14.549  10.249  0.0853  0.0620  0.0727
  528DPPI   GL2 8330  11.675  14.682  10.180  0.0969 -0.0816  0.2226
  528DPPI   C1A 8331  12.062  14.615   9.789 -0.0530  0.0702 -0.0782
  528DPPI   C2A 8332  12.352  14.679   9.504  0.2187 -0.1421 -0.0128
  528DPPI   C3A 8333  12.413  14.557   9.030  0.1651  0.1443 -0.1455
  528DPPI   C4A 8334  12.707  14.389   8.693  0.1338  0.1221  0.0747
  528DPPI   C1B 8335  11.614  14.430   9.839  0.1024  0.0914 -0.0471
  528DPPI   C2B 8336  11.727  14.248   9.493  0.3085  0.3349 -0.0677
  528DPPI   C3B 8337  11.801  14.155   9.030 -0.2064  0.1804 -0.1167
  528DPPI   C4B 8338  11.728  14.174   8.582  0.2095  0.0883 -0.0475
  529DPPI    C1 8339   2.774   7.837  10.764 -0.3308  0.0065  0.0107
  529DPPI    C2 8340   3.058   7.953  11.020 -0.0576 -0.2007 -0.1931
  529DPPI    C3 8341   2.738   7.755  11.154 -0.1357  0.0800  0.0452
  529DPPI   PO4 8342   2.677   8.020  10.628 -0.0370  0.3239  0.2903
  529DPPI   GL1 8343   2.462   8.216  10.224  0.2552 -0.0081 -0.1082
  529DPPI   GL2 8344   2.243   8.494  10.192  0.0288  0.0579  0.0864
  529DPPI   C1A 8345   2.440   8.112   9.700 -0.0663  0.1197  0.1065
  529DPPI   C2A 8346   2.535   8.139   9.263 -0.2933  0.2392 -0.1856
  529DPPI   C3A 8347   2.515   8.300   8.855  0.2583  0.1102 -0.0353
  529DPPI   C4A 8348   2.263   8.470   8.461  0.2357 -0.1199  0.1085
  529DPPI   C1B 8349   2.334   8.580   9.767 -0.5334 -0.3071  0.2547
  529DPPI   C2B 8350   2.267   8.624   9.383 -0.0128 -0.1041  0.0968
  529DPPI   C3B 8351   2.222   8.697   8.878 -0.0605 -0.2828 -0.0100
  529DPPI   C4B 8352   2.271   8.996   8.500  0.2420 -0.1819 -0.1464
  530DPPI    C1 8353  11.617   2.806  10.933 -0.0191  0.1312 -0.1801
  530DPPI    C2 8354  11.881   3.017  11.147  0.1294 -0.0544 -0.1774
  530DPPI    C3 8355  11.646   2.748  11.328 -0.2596  0.3034 -0.1350
  530DPPI   PO4 8356  11.731   2.773  10.710  0.2117  0.1652  0.3588
  530DPPI   GL1 8357  11.864   2.682  10.322 -0.1210  0.0292 -0.0882
  530DPPI   GL2 8358  11.915   3.027  10.301  0.1572 -0.3923  0.1857
  530DPPI   C1A 8359  11.975   2.758   9.882 -0.0220  0.1891  0.1560
  530DPPI   C2A 8360  11.987   2.793   9.493  0.0083  0.0494 -0.1891
  530DPPI   C3A 8361  11.960   2.832   9.116 -0.0511 -0.0847 -0.0743
  530DPPI   C4A 8362  11.976   2.917   8.801  0.0666 -0.0487  0.0382
  530DPPI   C1B 8363  11.818   3.235   9.909  0.0520  0.0402 -0.3361
  530DPPI   C2B 8364  11.827   3.352   9.468 -0.0294 -0.0163  0.0100
  530DPPI   C3B 8365  11.899   3.388   8.996 -0.0081 -0.0668  0.1295
  530DPPI   C4B 8366  11.975   3.334   8.539 -0.0513 -0.0618 -0.2734
  531DPPI    C1 8367  13.966   6.481  11.496  0.2163 -0.2506  0.0095
  531DPPI    C2 8368  13.705   6.469  11.800  0.1217 -0.1830 -0.0684
  531DPPI    C3 8369  14.089   6.559  11.869  0.0481  0.0888 -0.0020
  531DPPI   PO4 8370  13.800   6.627  11.318  0.0777 -0.1586  0.0481
  531DPPI   GL1 8371  13.858   6.721  10.847  0.1368 -0.0723 -0.0876
  531DPPI   GL2 8372  13.938   6.574  10.556  0.1839 -0.2699 -0.0325
  531DPPI   C1A 8373  13.655   7.052  10.513  0.0770 -0.0287  0.0535
  531DPPI   C2A 8374  13.523   7.073  10.102  0.0422  0.1303  0.2172
  531DPPI   C3A 8375  13.367   7.256   9.690 -0.0741  0.2648 -0.1111
  531DPPI   C4A 8376  13.505   7.213   9.192  0.0210 -0.2680 -0.0687
  531DPPI   C1B 8377  13.881   6.732  10.156  0.1615  0.0583  0.1413
  531DPPI   C2B 8378  13.834   6.817   9.704  0.1646  0.1358  0.0677
  531DPPI   C3B 8379  13.818   6.798   9.304  0.1319  0.1038 -0.0926
  531DPPI   C4B 8380  13.819   6.830   8.848 -0.2591  0.4060 -0.1095
  532DPPI    C1 8381   3.838  13.007  11.032 -0.1764  0.3206 -0.0575
  532DPPI    C2 8382   3.524  12.981  11.278 -0.0203  0.0156  0.1164
  532DPPI    C3 8383   3.881  13.090  11.421  0.0185  0.0754 -0.0239
  532DPPI   PO4 8384   3.768  13.076  10.787 -0.0776  0.0593 -0.1400
  532DPPI   GL1 8385   3.789  12.942  10.430  0.0934 -0.0485  0.1898
  532DPPI   GL2 8386   3.991  12.871  10.247  0.2825  0.3650  0.1316
  532DPPI   C1A 8387   3.701  13.298  10.045  0.1778  0.1765  0.3666
  532DPPI   C2A 8388   3.815  13.338   9.628 -0.1362 -0.0041 -0.3159
  532DPPI   C3A 8389   4.005  13.156   9.340 -0.0810 -0.0922  0.1533
  532DPPI   C4A 8390   4.250  12.998   9.041  0.0686 -0.1936 -0.0096
  532DPPI   C1B 8391   3.967  12.882   9.827  0.3726 -0.0011 -0.2869
  532DPPI   C2B 8392   4.111  12.660   9.392  0.1221 -0.0214 -0.0441
  532DPPI   C3B 8393   4.062  12.520   8.913 -0.0234 -0.0190  0.0904
  532DPPI   C4B 8394   3.981  12.363   8.535  0.3289  0.0035  0.0501
  533DPPI    C1 8395  11.125   9.838  10.944 -0.1278 -0.0875 -0.0283
  533DPPI    C2 8396  11.156  10.013  11.303 -0.1137 -0.2639  0.0573
  533DPPI    C3 8397  11.408   9.719  11.201 -0.1704 -0.2708 -0.0650
  533DPPI   PO4 8398  11.101  10.031  10.796 -0.1903  0.0299  0.0300
  533DPPI   GL1 8399  11.220  10.339  10.483 -0.4446 -0.0985 -0.4687
  533DPPI   GL2 8400  11.123  10.037  10.322 -0.0066 -0.0523  0.2665
  533DPPI   C1A 8401  11.359  10.534  10.155  0.1798 -0.0140 -0.1271
  533DPPI   C2A 8402  11.344  10.448   9.696  0.0002 -0.0009  0.0633
  533DPPI   C3A 8403  11.368  10.477   9.226 -0.4606 -0.0407 -0.1850
  533DPPI   C4A 8404  11.365  10.529   8.826  0.4301  0.2138 -0.1637
  533DPPI   C1B 8405  11.159  10.046   9.909  0.1149  0.1846 -0.4061
  533DPPI   C2B 8406  11.152  10.039   9.401  0.1938  0.2297 -0.2312
  533DPPI   C3B 8407  11.176  10.039   8.989  0.0610  0.0361  0.4135
  533DPPI   C4B 8408  11.262  10.043   8.632 -0.2505  0.0061  0.0112
  534DPPI    C1 8409  16.102  17.182  10.383  0.1218  0.0085  0.0958
  534DPPI    C2 8410  16.087  17.367  10.737  0.4056  0.1156  0.0540
  534DPPI    C3 8411  16.354  17.075  10.675  0.1505 -0.1151  0.0263
  534DPPI   PO4 8412  16.053  17.289  10.225  0.3959  0.2278 -0.0125
  534DPPI   GL1 8413  15.886  17.069   9.801  0.0193  0.1937 -0.3114
  534DPPI   GL2 8414  15.646  16.951   9.814 -0.1978 -0.1267  0.2380
  534DPPI   C1A 8415  15.934  17.077   9.295  0.1717 -0.3505 -0.1217
  534DPPI   C2A 8416  15.988  16.830   9.016 -0.0397 -0.3523  0.1902
  534DPPI   C3A 8417  15.839  16.650   8.701 -0.1961  0.2901 -0.0358
  534DPPI   C4A 8418  15.690  16.543   8.281 -0.1719  0.2018 -0.1985
  534DPPI   C1B 8419  15.536  16.699   9.426  0.2834  0.2924 -0.0979
  534DPPI   C2B 8420  15.626  16.365   9.191  0.1211 -0.0028 -0.0352
  534DPPI   C3B 8421  15.734  16.136   8.691 -0.0797 -0.2252 -0.2349
  534DPPI   C4B 8422  15.904  16.049   8.311  0.0057 -0.1259  0.2744
  535DPPI    C1 8423   8.004  17.967  10.320  0.1746  0.1516 -0.0849
  535DPPI    C2 8424   8.106  17.995  10.706 -0.0273  0.1279 -0.0290
  535DPPI    C3 8425   8.298  17.739  10.466 -0.0264  0.0073  0.0993
  535DPPI   PO4 8426   8.024  18.234  10.187 -0.0055  0.1927 -0.1817
  535DPPI   GL1 8427   7.754  18.475  10.013 -0.3240 -0.0775 -0.2027
  535DPPI   GL2 8428   7.455  18.529   9.909 -0.0819  0.0561  0.2852
  535DPPI   C1A 8429   7.586  18.332   9.515 -0.1961  0.1031 -0.0561
  535DPPI   C2A 8430   7.503  18.420   9.026 -0.2818  0.0542  0.1047
  535DPPI   C3A 8431   7.522  18.779   8.729 -0.2438 -0.2376 -0.1821
  535DPPI   C4A 8432   7.485  18.819   8.278  0.0414 -0.2179  0.0452
  535DPPI   C1B 8433   7.405  18.758   9.431  0.0938  0.0624  0.2975
  535DPPI   C2B 8434   7.173  18.952   9.099  0.0974  0.5589 -0.0690
  535DPPI   C3B 8435   7.019  18.699   8.712  0.4807 -0.1397  0.0742
  535DPPI   C4B 8436   6.588  18.447   8.677 -0.1064 -0.0840 -0.1643
  536DPPI    C1 8437   1.905  11.351  10.787  0.0464  0.0596  0.0080
  536DPPI    C2 8438   1.710  11.532  11.085  0.0218  0.1660 -0.0718
  536DPPI    C3 8439   2.101  11.457  11.118 -0.0429 -0.1046  0.1149
  536DPPI   PO4 8440   1.802  11.248  10.660 -0.0248  0.1977  0.2609
  536DPPI   GL1 8441   1.686  11.183  10.282 -0.3235 -0.4302  0.0748
  536DPPI   GL2 8442   1.514  11.475  10.203 -0.0011  0.1751 -0.1270
  536DPPI   C1A 8443   1.903  11.345   9.897  0.1519 -0.1396 -0.3117
  536DPPI   C2A 8444   1.842  11.387   9.380  0.1260  0.1983 -0.3743
  536DPPI   C3A 8445   1.562  11.513   9.133 -0.0239  0.0273  0.1331
  536DPPI   C4A 8446   1.180  11.543   8.825  0.0520  0.1480 -0.2039
  536DPPI   C1B 8447   1.470  11.564   9.735 -0.1979  0.4307  0.1154
  536DPPI   C2B 8448   1.174  11.264   9.328  0.0263 -0.1224 -0.0421
  536DPPI   C3B 8449   0.943  11.099   8.991  0.1490  0.1026 -0.2650
  536DPPI   C4B 8450   0.848  10.896   8.627  0.0446  0.1206  0.3611
  537DPPI    C1 8451   7.842   6.551  10.866 -0.0567 -0.0358 -0.0645
  537DPPI    C2 8452   8.143   6.314  10.983 -0.0961 -0.1598 -0.2099
  537DPPI    C3 8453   7.859   6.421  11.244  0.1809  0.1258 -0.0172
  537DPPI   PO4 8454   7.898   6.575  10.573 -0.2762  0.0306 -0.1793
  537DPPI   GL1 8455   7.756   6.782  10.299  0.0091  0.0864  0.1565
  537DPPI   GL2 8456   8.059   6.923  10.216  0.0317 -0.1540 -0.1947
  537DPPI   C1A 8457   7.787   6.695   9.833  0.0187 -0.0832  0.0776
  537DPPI   C2A 8458   7.783   6.714   9.413  0.1474  0.0435  0.2685
  537DPPI   C3A 8459   7.957   6.948   9.025 -0.0838 -0.3744 -0.0188
  537DPPI   C4A 8460   7.881   6.924   8.609  0.2545  0.0738  0.0577
  537DPPI   C1B 8461   8.204   6.970   9.757  0.1822  0.0121 -0.1366
  537DPPI   C2B 8462   8.196   7.144   9.387  0.0494 -0.0043 -0.0036
  537DPPI   C3B 8463   8.035   7.484   9.049  0.0424  0.1834  0.0717
  537DPPI   C4B 8464   8.194   7.687   8.758  0.0068 -0.1918  0.2841
  538DPPI    C1 8465  17.566  15.989  10.657  0.1508 -0.0609 -0.0234
  538DPPI    C2 8466  17.232  16.140  10.818  0.2383  0.3998 -0.2545
  538DPPI    C3 8467  17.511  15.975  11.053 -0.1347  0.0283 -0.0574
  538DPPI   PO4 8468  17.546  16.044  10.444 -0.1361 -0.1344 -0.1664
  538DPPI   GL1 8469  17.547  16.047  10.104 -0.0246 -0.0044 -0.2371
  538DPPI   GL2 8470  17.611  16.293   9.943 -0.2203 -0.0816  0.1190
  538DPPI   C1A 8471  17.477  15.712   9.689  0.3118 -0.2589  0.0200
  538DPPI   C2A 8472  17.699  15.505   9.362  0.1442 -0.0937  0.0788
  538DPPI   C3A 8473  17.668  15.490   8.912 -0.1141 -0.0044 -0.3057
  538DPPI   C4A 8474  17.772  15.168   8.466 -0.1724 -0.1961  0.1170
  538DPPI   C1B 8475  17.688  16.157   9.571  0.3870 -0.0827  0.0639
  538DPPI   C2B 8476  17.779  16.037   9.099  0.1210  0.2990 -0.2414
  538DPPI   C3B 8477  17.809  15.991   8.715  0.1123  0.0590 -0.1180
  538DPPI   C4B 8478  17.827  15.638   8.403  0.2761 -0.1401 -0.0798
  539DPPI    C1 8479   5.241   7.380  10.910 -0.2233 -0.0365 -0.0184
  539DPPI    C2 8480   5.474   7.432  11.231 -0.0983 -0.0931 -0.0995
  539DPPI    C3 8481   5.142   7.651  11.188 -0.0048  0.0627 -0.0355
  539DPPI   PO4 8482   5.436   7.352  10.685  0.0984  0.1096  0.0289
  539DPPI   GL1 8483   5.670   6.969  10.461  0.0504 -0.0633 -0.0526
  539DPPI   GL2 8484   5.813   7.135  10.164  0.0549 -0.0482  0.1084
  539DPPI   C1A 8485   5.380   6.768  10.070  0.3420  0.3379  0.0427
  539DPPI   C2A 8486   5.332   6.702   9.671  0.1243 -0.2149 -0.2388
  539DPPI   C3A 8487   5.283   6.644   9.256  0.1501  0.0547  0.0119
  539DPPI   C4A 8488   5.319   6.674   8.872 -0.0610 -0.1241  0.1064
  539DPPI   C1B 8489   5.671   7.158   9.727 -0.1821 -0.2448 -0.1320
  539DPPI   C2B 8490   5.554   7.091   9.218 -0.1210 -0.1610  0.1795
  539DPPI   C3B 8491   5.707   7.031   8.802  0.4095 -0.0986  0.1958
  539DPPI   C4B 8492   5.587   6.927   8.396  0.2513  0.2864  0.0971
  540DPPI    C1 8493  17.171  14.254  10.866 -0.1224 -0.1638  0.0373
  540DPPI    C2 8494  16.816  14.370  10.725 -0.0342  0.3887  0.2452
  540DPPI    C3 8495  17.010  14.598  10.990  0.3868 -0.0050  0.2881
  540DPPI   PO4 8496  17.293  14.189  10.635 -0.2526  0.3359 -0.1629
  540DPPI   GL1 8497  17.499  14.154  10.266  0.1398 -0.0328 -0.2665
  540DPPI   GL2 8498  17.365  14.249  10.010 -0.1099  0.0919  0.0676
  540DPPI   C1A 8499  17.846  13.986  10.024  0.2744 -0.2040 -0.0262
  540DPPI   C2A 8500  18.101  13.751   9.876  0.0036  0.0273 -0.2691
  540DPPI   C3A 8501  18.235  13.654   9.424  0.2950 -0.0930 -0.2481
  540DPPI   C4A 8502  18.283  13.487   8.971 -0.0873  0.1210  0.1509
  540DPPI   C1B 8503  17.331  14.181   9.527  0.0056  0.0107 -0.0281
  540DPPI   C2B 8504  17.425  14.093   9.088  0.1248  0.2342  0.0612
  540DPPI   C3B 8505  17.494  13.988   8.692 -0.0186  0.1128 -0.1644
  540DPPI   C4B 8506  17.501  14.156   8.258 -0.0543  0.2722  0.3395
  541DPPI    C1 8507  17.603  13.145  10.767  0.0891 -0.0039 -0.0072
  541DPPI    C2 8508  17.525  13.358  11.097  0.6349 -0.0475  0.1613
  541DPPI    C3 8509  17.498  12.959  11.105 -0.2454 -0.0173 -0.1146
  541DPPI   PO4 8510  17.725  13.263  10.573 -0.2379 -0.3679  0.2016
  541DPPI   GL1 8511  17.593  13.441  10.227 -0.1497 -0.4831  0.0473
  541DPPI   GL2 8512  17.452  13.237  10.116  0.0911  0.1468 -0.2428
  541DPPI   C1A 8513  17.767  13.444   9.756 -0.0683  0.2917 -0.2796
  541DPPI   C2A 8514  17.747  13.288   9.395 -0.0118  0.0742  0.2315
  541DPPI   C3A 8515  17.779  13.259   9.003  0.0704 -0.0301  0.0651
  541DPPI   C4A 8516  17.751  13.511   8.590 -0.0815 -0.0150  0.0566
  541DPPI   C1B 8517  17.299  13.227   9.755  0.1468  0.4252  0.3582
  541DPPI   C2B 8518  17.328  13.024   9.438 -0.0376  0.0167  0.1078
  541DPPI   C3B 8519  17.324  12.970   8.965 -0.1079  0.3175 -0.0939
  541DPPI   C4B 8520  17.617  12.998   8.647 -0.0980  0.2618 -0.0715
  542DPPI    C1 8521   7.720  15.628  10.662 -0.1972 -0.0806  0.1045
  542DPPI    C2 8522   7.694  15.669  11.059 -0.0841  0.1697  0.0877
  542DPPI    C3 8523   7.743  15.306  10.898  0.0801  0.0891  0.3148
  542DPPI   PO4 8524   7.605  15.820  10.508 -0.1329 -0.1671 -0.1674
  542DPPI   GL1 8525   7.429  15.667  10.156  0.0935  0.0984 -0.0553
  542DPPI   GL2 8526   7.174  15.523  10.303 -0.1199  0.2694 -0.2859
  542DPPI   C1A 8527   7.334  15.675   9.737 -0.1341 -0.3798 -0.0325
  542DPPI   C2A 8528   7.403  15.817   9.322  0.1573  0.1565  0.1776
  542DPPI   C3A 8529   7.708  15.933   9.115 -0.0059 -0.0827 -0.1873
  542DPPI   C4A 8530   8.125  15.921   8.804 -0.1113 -0.2750  0.3404
  542DPPI   C1B 8531   7.008  15.365   9.948 -0.0838  0.3067  0.0359
  542DPPI   C2B 8532   6.957  15.377   9.331 -0.2809 -0.1558 -0.0763
  542DPPI   C3B 8533   7.096  15.487   8.911  0.0487 -0.3569 -0.0959
  542DPPI   C4B 8534   7.318  15.799   8.708 -0.0266  0.1881 -0.1499
  543DPPI    C1 8535   7.447  14.279  11.057 -0.0973  0.0657 -0.2046
  543DPPI    C2 8536   7.603  14.629  10.943 -0.0093  0.0526 -0.1252
  543DPPI    C3 8537   7.379  14.609  11.274  0.4376 -0.0635  0.1797
  543DPPI   PO4 8538   7.489  14.151  10.795  0.0016  0.0838  0.1105
  543DPPI   GL1 8539   7.288  14.093  10.452 -0.1818  0.2467 -0.0718
  543DPPI   GL2 8540   7.048  14.156  10.412  0.2767  0.1615 -0.5063
  543DPPI   C1A 8541   7.267  14.250  10.008 -0.0445  0.1311 -0.2022
  543DPPI   C2A 8542   7.098  14.355   9.610  0.0374 -0.0651  0.1872
  543DPPI   C3A 8543   7.066  14.353   9.212  0.0835  0.0974 -0.2401
  543DPPI   C4A 8544   6.789  14.629   9.002  0.0121  0.0790  0.5299
  543DPPI   C1B 8545   7.009  13.769  10.137 -0.3468  0.3534  0.0742
  543DPPI   C2B 8546   6.796  13.583   9.836  0.1265 -0.4086 -0.0983
  543DPPI   C3B 8547   6.931  13.446   9.492  0.3154  0.0861 -0.3761
  543DPPI   C4B 8548   7.201  13.384   9.135 -0.3357  0.3071 -0.2867
  544DPPI    C1 8549  14.488   9.222  11.448  0.0866  0.1142  0.0404
  544DPPI    C2 8550  14.382   9.573  11.289  0.1569  0.0833 -0.0765
  544DPPI    C3 8551  14.145   9.396  11.559 -0.0267  0.0750 -0.2408
  544DPPI   PO4 8552  14.650   9.135  11.183  0.0878  0.0475 -0.2353
  544DPPI   GL1 8553  14.591   8.983  10.785 -0.2988 -0.1401 -0.1823
  544DPPI   GL2 8554  14.507   8.711  10.705  0.3332 -0.1250 -0.0576
  544DPPI   C1A 8555  14.613   9.129  10.392 -0.1305  0.0235  0.0709
  544DPPI   C2A 8556  14.704   9.162  10.013  0.2536 -0.1911  0.0418
  544DPPI   C3A 8557  14.884   9.191   9.640  0.1068 -0.1044 -0.0325
  544DPPI   C4A 8558  14.717   9.144   9.339  0.2190  0.2766 -0.2222
  544DPPI   C1B 8559  14.260   8.645  10.273 -0.1875  0.0058  0.0755
  544DPPI   C2B 8560  14.106   8.675   9.803 -0.0210 -0.2272 -0.0821
  544DPPI   C3B 8561  14.016   8.702   9.335 -0.1216  0.6525 -0.1046
  544DPPI   C4B 8562  13.962   8.650   8.923 -0.1512 -0.1989 -0.3336
  545DPPI    C1 8563  16.670  13.049  10.671  0.2707  0.0493  0.2072
  545DPPI    C2 8564  16.536  13.302  10.392  0.1029 -0.1671  0.0887
  545DPPI    C3 8565  16.619  13.435  10.759  0.2969  0.1147 -0.0537
  545DPPI   PO4 8566  16.788  12.847  10.535  0.0903 -0.1143 -0.1563
  545DPPI   GL1 8567  16.760  12.459  10.246  0.0436 -0.0649  0.0890
  545DPPI   GL2 8568  17.020  12.401  10.173 -0.1189 -0.0518 -0.2957
  545DPPI   C1A 8569  16.469  12.359   9.992  0.0528 -0.1777  0.2163
  545DPPI   C2A 8570  16.370  12.516   9.635 -0.1614  0.1378  0.1457
  545DPPI   C3A 8571  16.276  12.417   9.171  0.0660 -0.0707  0.1184
  545DPPI   C4A 8572  16.238  12.176   8.739 -0.0487  0.1839 -0.1195
  545DPPI   C1B 8573  16.988  12.141   9.873 -0.0961  0.0775 -0.0270
  545DPPI   C2B 8574  16.648  12.072   9.611 -0.0306 -0.1660  0.1168
  545DPPI   C3B 8575  16.656  12.088   9.246 -0.2777 -0.2488  0.1484
  545DPPI   C4B 8576  16.630  11.850   8.787  0.0901  0.3109  0.2465
  546DPPI    C1 8577  15.320  11.111  11.268 -0.0502  0.2129  0.0965
  546DPPI    C2 8578  15.060  11.173  11.565 -0.1956 -0.1121  0.0419
  546DPPI    C3 8579  15.454  11.200  11.634 -0.2325 -0.0052  0.2185
  546DPPI   PO4 8580  15.200  11.234  11.098  0.0461 -0.1972 -0.3915
  546DPPI   GL1 8581  15.216  11.241  10.624  0.1505  0.0660 -0.5171
  546DPPI   GL2 8582  15.419  11.160  10.486 -0.0958  0.0977  0.1927
  546DPPI   C1A 8583  15.047  11.186  10.127  0.0603 -0.1062 -0.3936
  546DPPI   C2A 8584  14.959  11.060   9.719 -0.0571  0.2834 -0.0736
  546DPPI   C3A 8585  14.942  11.146   9.202 -0.1024  0.3200 -0.0888
  546DPPI   C4A 8586  14.924  11.139   8.830 -0.1024 -0.4286  0.2096
  546DPPI   C1B 8587  15.427  10.928  10.021  0.0525 -0.2908 -0.3438
  546DPPI   C2B 8588  15.785  10.968   9.709  0.4446  0.0291  0.2299
  546DPPI   C3B 8589  15.867  10.919   9.253  0.1224  0.1620  0.0935
  546DPPI   C4B 8590  15.756  10.877   8.893  0.0513  0.0175 -0.1689
  547DPPI    C1 8591   3.438  15.024  10.969  0.1341 -0.1413 -0.0945
  547DPPI    C2 8592   3.441  14.665  11.144  0.2202 -0.1174 -0.0464
  547DPPI    C3 8593   3.561  14.988  11.348  0.1078 -0.0556 -0.0774
  547DPPI   PO4 8594   3.484  14.961  10.724  0.0474  0.0841  0.0910
  547DPPI   GL1 8595   3.598  14.787  10.320  0.3876  0.0786 -0.1600
  547DPPI   GL2 8596   3.728  15.054  10.285 -0.1941 -0.1835 -0.1902
  547DPPI   C1A 8597   3.683  14.740   9.838  0.3100 -0.1657 -0.1921
  547DPPI   C2A 8598   3.648  14.528   9.512  0.0503 -0.1594  0.0031
  547DPPI   C3A 8599   3.638  14.512   9.116 -0.3442  0.0613  0.1434
  547DPPI   C4A 8600   3.604  14.491   8.632  0.2416  0.3377  0.0319
  547DPPI   C1B 8601   3.939  15.189   9.876 -0.1464  0.0550  0.2252
  547DPPI   C2B 8602   3.943  15.290   9.481 -0.0386 -0.2606  0.1317
  547DPPI   C3B 8603   4.212  15.222   9.154  0.0228 -0.2234  0.3065
  547DPPI   C4B 8604   4.355  14.930   8.926 -0.0805  0.2436  0.0736
  548DPPI    C1 8605   4.691   8.107  10.932 -0.0546 -0.0108 -0.1174
  548DPPI    C2 8606   4.957   8.118  11.231 -0.2375  0.0064  0.0471
  548DPPI    C3 8607   5.030   8.315  10.890  0.0090 -0.0790  0.0484
  548DPPI   PO4 8608   4.684   7.863  10.840 -0.0057 -0.0010  0.3152
  548DPPI   GL1 8609   4.368   7.695  10.600 -0.1629 -0.0607 -0.1188
  548DPPI   GL2 8610   4.311   8.045  10.524 -0.1961  0.0643 -0.3020
  548DPPI   C1A 8611   4.425   7.680  10.175 -0.4534 -0.1844  0.1382
  548DPPI   C2A 8612   4.364   7.681   9.762  0.0940 -0.0996 -0.0618
  548DPPI   C3A 8613   4.394   7.635   9.256 -0.0065  0.1792 -0.0026
  548DPPI   C4A 8614   4.240   7.692   8.878  0.0741  0.1400 -0.1234
  548DPPI   C1B 8615   4.200   8.113  10.089  0.0285 -0.2897 -0.0341
  548DPPI   C2B 8616   4.060   8.108   9.685 -0.2219 -0.2875  0.1903
  548DPPI   C3B 8617   4.148   8.057   9.290  0.2087 -0.3967 -0.0961
  548DPPI   C4B 8618   4.014   8.152   8.820 -0.1930  0.0312  0.0555
  549DPPI    C1 8619   4.151  17.384  10.895 -0.2332 -0.2184 -0.0819
  549DPPI    C2 8620   3.882  17.678  10.875 -0.1152 -0.1028  0.0122
  549DPPI    C3 8621   4.198  17.713  11.117 -0.0303 -0.2498 -0.0765
  549DPPI   PO4 8622   4.114  17.322  10.528 -0.3806  0.1188  0.1126
  549DPPI   GL1 8623   4.224  17.510  10.215  0.0560 -0.0159  0.0083
  549DPPI   GL2 8624   4.550  17.470  10.123  0.0059  0.0218 -0.0151
  549DPPI   C1A 8625   3.977  17.486   9.831 -0.1327  0.2317  0.0469
  549DPPI   C2A 8626   3.838  17.462   9.373 -0.0387 -0.2067  0.0421
  549DPPI   C3A 8627   3.908  17.444   8.952 -0.0114 -0.2040  0.1417
  549DPPI   C4A 8628   3.823  17.508   8.560  0.1466 -0.2033 -0.2173
  549DPPI   C1B 8629   4.495  17.482   9.681  0.3692 -0.3644  0.2563
  549DPPI   C2B 8630   4.477  17.448   9.217  0.0311  0.0622 -0.0139
  549DPPI   C3B 8631   4.413  17.292   8.831 -0.3680  0.0356 -0.3285
  549DPPI   C4B 8632   4.341  17.311   8.415  0.1283  0.0675  0.1365
  550DPPI    C1 8633  13.202  12.105  11.191  0.3164  0.1454  0.0227
  550DPPI    C2 8634  13.372  12.455  11.283  0.0587  0.2398  0.1490
  550DPPI    C3 8635  13.088  12.302  11.520 -0.0281  0.0816 -0.0544
  550DPPI   PO4 8636  13.241  12.143  10.914 -0.3350 -0.0785 -0.0416
  550DPPI   GL1 8637  13.062  12.429  10.503  0.0761 -0.1659 -0.1103
  550DPPI   GL2 8638  12.895  12.198  10.482  0.4142 -0.3312  0.3176
  550DPPI   C1A 8639  13.120  12.658  10.077 -0.3360  0.0065 -0.1508
  550DPPI   C2A 8640  13.080  12.676   9.690  0.1211 -0.0265  0.1151
  550DPPI   C3A 8641  13.014  12.631   9.213 -0.3148  0.2538 -0.0706
  550DPPI   C4A 8642  13.087  12.558   8.768  0.0921 -0.0756  0.1060
  550DPPI   C1B 8643  12.975  12.096  10.072  0.1571  0.1008  0.2215
  550DPPI   C2B 8644  12.907  12.122   9.548 -0.1197  0.0140 -0.2369
  550DPPI   C3B 8645  12.900  12.132   9.154  0.0819  0.0152 -0.2399
  550DPPI   C4B 8646  12.926  12.030   8.744 -0.1240 -0.0702  0.0941
  551DPPI    C1 8647  17.329  15.201  10.569 -0.0834 -0.3207  0.1431
  551DPPI    C2 8648  17.106  15.265  10.895  0.0131 -0.0460  0.1576
  551DPPI    C3 8649  17.447  15.468  10.842  0.0274 -0.1305 -0.0868
  551DPPI   PO4 8650  17.218  15.170  10.386  0.3521 -0.1869  0.2804
  551DPPI   GL1 8651  17.200  15.348  10.008 -0.1856 -0.1828  0.1305
  551DPPI   GL2 8652  16.942  15.065   9.949 -0.1251 -0.0395 -0.0576
  551DPPI   C1A 8653  17.270  15.306   9.521  0.4142 -0.0867 -0.1112
  551DPPI   C2A 8654  17.253  15.255   9.105 -0.1615 -0.0939  0.1985
  551DPPI   C3A 8655  17.212  15.226   8.705 -0.0332  0.2051 -0.0277
  551DPPI   C4A 8656  16.894  15.323   8.421  0.0685  0.1560  0.1955
  551DPPI   C1B 8657  16.862  15.031   9.620 -0.0889  0.0166  0.1640
  551DPPI   C2B 8658  16.885  14.989   9.272 -0.2816  0.0718 -0.0630
  551DPPI   C3B 8659  17.044  14.763   8.864 -0.1140 -0.3810 -0.0143
  551DPPI   C4B 8660  16.972  14.806   8.461 -0.2058 -0.0829  0.2593
  552DPPI    C1 8661  15.267  13.298  10.756  0.1536  0.1931 -0.0447
  552DPPI    C2 8662  15.659  13.298  10.835  0.1234 -0.0119  0.1151
  552DPPI    C3 8663  15.421  13.026  11.005 -0.0806  0.0760 -0.0252
  552DPPI   PO4 8664  15.221  13.296  10.505 -0.2159  0.0481  0.2311
  552DPPI   GL1 8665  15.076  13.051  10.107 -0.2104  0.1053 -0.2335
  552DPPI   GL2 8666  15.401  13.007  10.171  0.0325 -0.0367  0.1215
  552DPPI   C1A 8667  15.150  13.047   9.644  0.0204  0.1102 -0.1676
  552DPPI   C2A 8668  15.101  12.988   9.235 -0.1092  0.1881 -0.0217
  552DPPI   C3A 8669  15.100  12.925   8.770 -0.1593 -0.1556  0.4424
  552DPPI   C4A 8670  14.925  12.695   8.476  0.1044  0.0020  0.1034
  552DPPI   C1B 8671  15.481  12.722   9.912 -0.1512  0.1294 -0.0966
  552DPPI   C2B 8672  15.460  12.752   9.397  0.1364 -0.0780  0.2202
  552DPPI   C3B 8673  15.456  12.617   8.997  0.1009 -0.3735  0.2383
  552DPPI   C4B 8674  15.383  12.481   8.555  0.0597 -0.0313  0.0735
  553DPPI    C1 8675   1.787   5.591  10.744  0.0913 -0.1086 -0.3159
  553DPPI    C2 8676   2.065   5.327  10.628  0.2671 -0.0579 -0.0198
  553DPPI    C3 8677   2.149   5.594  10.915  0.0382  0.2162 -0.2020
  553DPPI   PO4 8678   1.644   5.709  10.519 -0.2673  0.0327 -0.1834
  553DPPI   GL1 8679   1.798   5.739  10.071 -0.0300 -0.2177  0.2947
  553DPPI   GL2 8680   1.859   5.444  10.021 -0.1022 -0.2094  0.2266
  553DPPI   C1A 8681   1.688   6.031   9.719 -0.2688  0.0400  0.1839
  553DPPI   C2A 8682   1.695   6.354   9.373  0.1894 -0.2555  0.0894
  553DPPI   C3A 8683   1.519   6.659   9.065 -0.1700 -0.1093  0.0909
  553DPPI   C4A 8684   1.208   7.011   9.076  0.1512  0.1097 -0.0854
  553DPPI   C1B 8685   1.718   5.506   9.650 -0.4044  0.1407  0.0239
  553DPPI   C2B 8686   1.701   5.821   9.283  0.0420  0.0597 -0.0282
  553DPPI   C3B 8687   1.588   5.946   8.937  0.0896  0.2309 -0.1818
  553DPPI   C4B 8688   1.393   6.088   8.577 -0.0438 -0.1779 -0.1059
  554PYPI    C1 8689  16.529   6.489  11.162 -0.1270 -0.0156 -0.1181
  554PYPI    C2 8690  16.746   6.822  11.211 -0.2034  0.0207 -0.0247
  554PYPI    C3 8691  16.835   6.492  11.419 -0.1871  0.0111 -0.0468
  554PYPI   PO4 8692  16.402   6.592  10.905 -0.0288  0.1820  0.1260
  554PYPI   GL1 8693  16.312   6.907  10.641  0.0037  0.1544  0.4338
  554PYPI   GL2 8694  16.446   6.849  10.436 -0.1265 -0.0185 -0.0275
  554PYPI   C1A 8695  16.115   7.189  10.264 -0.1232 -0.1003  0.2193
  554PYPI   C2A 8696  16.130   7.275   9.843 -0.2209  0.1124 -0.2874
  554PYPI   D3A 8697  15.989   7.215   9.413  0.3427 -0.1096  0.0964
  554PYPI   C4A 8698  16.284   7.347   9.131 -0.1822  0.0341 -0.0527
  554PYPI   C1B 8699  16.289   6.792   9.934  0.0883  0.1749 -0.0573
  554PYPI   C2B 8700  16.159   6.690   9.495  0.0221 -0.1384  0.0472
  554PYPI   C3B 8701  16.281   6.279   9.146 -0.1361  0.2567 -0.0811
  554PYPI   C4B 8702  16.201   5.993   8.712 -0.0689 -0.2484 -0.3112
  555PYPI    C1 8703  10.554  12.229  11.338 -0.3066  0.0578 -0.0959
  555PYPI    C2 8704  10.349  11.892  11.271 -0.2356  0.0055 -0.0520
  555PYPI    C3 8705  10.385  12.034  11.643 -0.2020  0.0210 -0.0610
  555PYPI   PO4 8706  10.614  12.238  11.033 -0.1668  0.1904 -0.0583
  555PYPI   GL1 8707  10.460  12.375  10.640 -0.1076  0.1670  0.1634
  555PYPI   GL2 8708  10.697  12.640  10.445  0.0758 -0.1878  0.0027
  555PYPI   C1A 8709  10.548  12.166  10.228 -0.0520  0.0207 -0.5243
  555PYPI   C2A 8710  10.580  12.046   9.832 -0.0347  0.0420 -0.1100
  555PYPI   D3A 8711  10.324  11.739   9.623  0.0459 -0.0935  0.0548
  555PYPI   C4A 8712  10.277  11.795   9.238 -0.0685  0.1848  0.2643
  555PYPI   C1B 8713  10.780  12.591  10.034  0.0417 -0.3457 -0.1512
  555PYPI   C2B 8714  10.678  12.611   9.576  0.2073 -0.1325  0.0194
  555PYPI   C3B 8715  10.574  12.715   9.203  0.0350 -0.0848  0.0896
  555PYPI   C4B 8716  10.696  12.650   8.744 -0.4912 -0.2153 -0.1788
  556PYPI    C1 8717   5.331   6.869  10.881 -0.1091  0.1620 -0.0245
  556PYPI    C2 8718   5.689   7.007  10.994 -0.1482  0.2049  0.0479
  556PYPI    C3 8719   5.401   6.953  11.266 -0.2423  0.3063 -0.0309
  556PYPI   PO4 8720   5.417   6.597  10.709  0.2970 -0.0147 -0.2110
  556PYPI   GL1 8721   5.581   6.351  10.436 -0.1388 -0.2485  0.0284
  556PYPI   GL2 8722   5.825   6.575  10.239  0.1056  0.2143  0.1890
  556PYPI   C1A 8723   5.536   6.309   9.962 -0.0741  0.0428  0.0575
  556PYPI   C2A 8724   5.576   6.223   9.529 -0.2663  0.0734 -0.0912
  556PYPI   D3A 8725   5.635   6.266   9.071 -0.2019 -0.0209 -0.0653
  556PYPI   C4A 8726   5.504   6.269   8.573 -0.2906  0.0512 -0.1286
  556PYPI   C1B 8727   5.852   6.665   9.799 -0.1841  0.1380 -0.0873
  556PYPI   C2B 8728   5.774   6.706   9.408  0.0279 -0.0087 -0.0710
  556PYPI   C3B 8729   5.969   6.622   9.061 -0.3563  0.1737  0.1094
  556PYPI   C4B 8730   5.966   6.654   8.696  0.0004 -0.1842 -0.1859
  557PYPI    C1 8731   7.180   5.226  11.164  0.2914  0.0046 -0.1425
  557PYPI    C2 8732   7.463   5.502  11.104  0.2190  0.1447  0.1431
  557PYPI    C3 8733   7.519   5.215  11.377  0.2216 -0.0235 -0.0322
  557PYPI   PO4 8734   7.065   5.150  10.940  0.1405 -0.0005 -0.0948
  557PYPI   GL1 8735   6.852   5.058  10.596 -0.0144  0.0356  0.0657
  557PYPI   GL2 8736   7.145   4.953  10.502 -0.0778  0.0278 -0.1336
  557PYPI   C1A 8737   6.592   5.191  10.283  0.0678 -0.0205  0.2113
  557PYPI   C2A 8738   6.408   5.173   9.905 -0.1813 -0.0349  0.3647
  557PYPI   D3A 8739   6.139   4.875   9.665 -0.2475 -0.1516  0.1381
  557PYPI   C4A 8740   6.198   4.711   9.243  0.2618 -0.1779  0.1576
  557PYPI   C1B 8741   7.277   4.850  10.081 -0.1092  0.0848 -0.0310
  557PYPI   C2B 8742   7.253   4.803   9.672 -0.1154  0.0785 -0.0691
  557PYPI   C3B 8743   7.304   4.931   9.151  0.1091 -0.3093  0.1533
  557PYPI   C4B 8744   7.080   4.996   8.807  0.1439 -0.2449 -0.0300
  558PYPI    C1 8745  14.124   4.650  11.024 -0.2400 -0.4411 -0.0519
  558PYPI    C2 8746  13.796   4.837  11.156  0.1167  0.0865  0.1207
  558PYPI    C3 8747  14.050   4.669  11.416  0.1276 -0.0755  0.0073
  558PYPI   PO4 8748  13.940   4.664  10.673 -0.3431 -0.0793  0.3002
  558PYPI   GL1 8749  14.116   4.857  10.392 -0.3050 -0.0909 -0.4602
  558PYPI   GL2 8750  14.405   4.621  10.594  0.0153 -0.1094  0.0442
  558PYPI   C1A 8751  13.905   5.048  10.078  0.3143  0.2798 -0.0552
  558PYPI   C2A 8752  13.728   4.873   9.653 -0.0999 -0.1194 -0.2124
  558PYPI   D3A 8753  13.726   4.975   9.185 -0.0795  0.1789  0.3258
  558PYPI   C4A 8754  14.095   5.105   8.822  0.1098  0.1814  0.2576
  558PYPI   C1B 8755  14.574   4.836  10.161  0.0182  0.1034  0.2024
  558PYPI   C2B 8756  14.717   5.021   9.801 -0.1102  0.1283  0.0825
  558PYPI   C3B 8757  14.722   5.109   9.356 -0.0366 -0.2036 -0.0232
  558PYPI   C4B 8758  14.608   5.171   8.886  0.1007  0.1845 -0.1512
  559PYPI    C1 8759   5.008  15.029  10.542  0.1173  0.1293 -0.0989
  559PYPI    C2 8760   4.815  14.833  10.833  0.0543  0.1374 -0.1349
  559PYPI    C3 8761   5.175  14.992  10.904  0.0587  0.1007 -0.0745
  559PYPI   PO4 8762   4.856  14.899  10.294 -0.0430 -0.1661  0.0978
  559PYPI   GL1 8763   4.913  14.533  10.016 -0.2542 -0.1773 -0.0909
  559PYPI   GL2 8764   4.734  14.241  10.100  0.0547  0.0669 -0.0839
  559PYPI   C1A 8765   4.890  14.247   9.630  0.1816 -0.0068  0.1084
  559PYPI   C2A 8766   4.980  14.223   9.164  0.0909  0.0466 -0.0421
  559PYPI   D3A 8767   4.963  14.175   8.726 -0.0803 -0.0935 -0.0108
  559PYPI   C4A 8768   5.140  13.820   8.577 -0.3504 -0.0147  0.3457
  559PYPI   C1B 8769   4.342  14.435   9.960  0.0999  0.1614 -0.0351
  559PYPI   C2B 8770   4.017  14.259   9.639 -0.0375 -0.1297  0.3688
  559PYPI   C3B 8771   3.996  14.167   9.205  0.1654  0.0831 -0.1170
  559PYPI   C4B 8772   4.006  14.079   8.757 -0.0425 -0.1574  0.3241
  560PYPI    C1 8773   9.185  10.913  10.691 -0.1237 -0.0088 -0.1113
  560PYPI    C2 8774   9.257  10.807  11.070 -0.2486 -0.0288 -0.0926
  560PYPI    C3 8775   9.108  10.540  10.812  0.2431 -0.1416 -0.2722
  560PYPI   PO4 8776   9.357  11.085  10.635  0.1087  0.1734  0.1098
  560PYPI   GL1 8777   9.689  11.005  10.316  0.1455  0.1275  0.0294
  560PYPI   GL2 8778   9.509  10.929  10.167  0.0702  0.1781  0.1412
  560PYPI   C1A 8779  10.024  10.866   9.969 -0.1895  0.2435  0.1018
  560PYPI   C2A 8780  10.016  10.581   9.689  0.2957 -0.0627 -0.3326
  560PYPI   D3A 8781  10.133  10.767   9.190 -0.2520 -0.2443  0.1105
  560PYPI   C4A 8782  10.069  10.660   8.755 -0.0965  0.1393  0.0772
  560PYPI   C1B 8783   9.653  10.933   9.725 -0.1042 -0.3113 -0.2422
  560PYPI   C2B 8784   9.696  10.893   9.318 -0.0307  0.5682 -0.1462
  560PYPI   C3B 8785   9.675  11.103   8.987 -0.4918 -0.0315 -0.0455
  560PYPI   C4B 8786   9.696  11.068   8.620  0.0299  0.1350 -0.0985
  561PYPI    C1 8787  10.564   4.665  10.724  0.0990 -0.0416 -0.1217
  561PYPI    C2 8788  10.236   4.677  10.952 -0.0022 -0.0971 -0.2625
  561PYPI    C3 8789  10.371   5.011  10.780  0.1323 -0.0357 -0.0424
  561PYPI   PO4 8790  10.493   4.452  10.583 -0.0125 -0.0745  0.0434
  561PYPI   GL1 8791  10.648   4.555  10.189 -0.2569  0.1243 -0.0161
  561PYPI   GL2 8792  10.506   4.846  10.248  0.1091  0.0161  0.2368
  561PYPI   C1A 8793  10.935   4.437   9.944  0.0038 -0.1864 -0.0016
  561PYPI   C2A 8794  10.912   4.516   9.535  0.0647 -0.1762  0.0497
  561PYPI   D3A 8795  10.781   4.531   9.098 -0.2583  0.1013 -0.0276
  561PYPI   C4A 8796  10.972   4.165   8.831 -0.2034  0.1119 -0.3271
  561PYPI   C1B 8797  10.697   4.919   9.860 -0.2429  0.0406  0.0968
  561PYPI   C2B 8798  10.651   4.953   9.438  0.0852  0.1895  0.0470
  561PYPI   C3B 8799  10.551   5.027   8.977  0.1362 -0.0479 -0.1483
  561PYPI   C4B 8800  10.662   5.027   8.514 -0.0613  0.0657 -0.0525
  562PYPI    C1 8801   0.556   0.157  10.597  0.1703  0.0756  0.1082
  562PYPI    C2 8802   0.301  -0.100  10.426  0.1791  0.0757  0.0948
  562PYPI    C3 8803   0.562  -0.229  10.701  0.2166  0.0612  0.0525
  562PYPI   PO4 8804   0.686   0.236  10.334 -0.1991  0.1476 -0.0252
  562PYPI   GL1 8805   0.474   0.146   9.977  0.1588  0.1808 -0.0286
  562PYPI   GL2 8806   0.253   0.313   9.775  0.0249  0.2342 -0.0711
  562PYPI   C1A 8807   0.539  -0.103   9.605 -0.0173  0.2387 -0.7091
  562PYPI   C2A 8808   0.669  -0.382   9.238  0.1511  0.2022  0.0040
  562PYPI   D3A 8809   0.415  -0.526   8.963  0.1750  0.1763 -0.1742
  562PYPI   C4A 8810   0.583  -0.556   8.600  0.1982 -0.0989 -0.1340
  562PYPI   C1B 8811   0.275   0.332   9.400 -0.2729  0.0119  0.2506
  562PYPI   C2B 8812   0.147   0.487   9.095 -0.0567  0.1784  0.2618
  562PYPI   C3B 8813   0.247   0.648   8.671  0.2025  0.0053  0.0651
  562PYPI   C4B 8814   0.156   0.533   8.206  0.0962 -0.1505  0.0043
  563PYPI    C1 8815  13.082  15.915  10.362  0.0823 -0.1608 -0.1105
  563PYPI    C2 8816  12.877  15.611  10.522 -0.2237  0.0435 -0.1063
  563PYPI    C3 8817  13.223  15.727  10.686 -0.2835 -0.0724  0.1057
  563PYPI   PO4 8818  13.073  15.894  10.071  0.0773  0.1359  0.0095
  563PYPI   GL1 8819  13.080  15.724   9.692 -0.0315  0.1866 -0.0789
  563PYPI   GL2 8820  13.389  15.657   9.768  0.0156 -0.0492  0.1889
  563PYPI   C1A 8821  12.973  15.845   9.319 -0.0437 -0.1683 -0.0003
  563PYPI   C2A 8822  13.181  16.102   8.994 -0.1592 -0.2530 -0.0109
  563PYPI   D3A 8823  13.292  16.204   8.623 -0.0344  0.2246  0.0349
  563PYPI   C4A 8824  13.296  16.525   8.514  0.2150 -0.2836  0.1017
  563PYPI   C1B 8825  13.359  15.500   9.249  0.0818  0.0819 -0.1476
  563PYPI   C2B 8826  13.238  15.594   8.834  0.0178  0.3142 -0.1333
  563PYPI   C3B 8827  12.828  15.782   8.828 -0.2263  0.0692  0.2758
  563PYPI   C4B 8828  12.542  16.001   9.112 -0.2569  0.2517 -0.0262
  564PYPI    C1 8829   7.466   3.531  10.903 -0.1399 -0.4427  0.0903
  564PYPI    C2 8830   7.155   3.737  11.048  0.2599  0.1643  0.1180
  564PYPI    C3 8831   7.319   3.444  11.265 -0.1813 -0.0500  0.1722
  564PYPI   PO4 8832   7.473   3.646  10.668  0.2742 -0.2056 -0.0656
  564PYPI   GL1 8833   7.489   3.696  10.111  0.2109  0.0250 -0.1285
  564PYPI   GL2 8834   7.764   3.465  10.184  0.1904  0.0272 -0.2198
  564PYPI   C1A 8835   7.598   3.822   9.596 -0.3247  0.1897  0.0542
  564PYPI   C2A 8836   7.473   3.895   9.152  0.1011 -0.0910 -0.0982
  564PYPI   D3A 8837   7.503   3.938   8.730 -0.0165  0.1794 -0.1498
  564PYPI   C4A 8838   7.702   4.290   8.498 -0.0252 -0.2213 -0.1086
  564PYPI   C1B 8839   7.948   3.474   9.796 -0.1929 -0.0985 -0.0513
  564PYPI   C2B 8840   7.957   3.590   9.347 -0.2418 -0.2421  0.0154
  564PYPI   C3B 8841   7.937   3.852   9.025  0.0346  0.1135 -0.1739
  564PYPI   C4B 8842   8.015   3.911   8.674 -0.0194 -0.0471 -0.2099
  565PYPI    C1 8843  15.092   3.269  11.321  0.1243  0.1237  0.0859
  565PYPI    C2 8844  15.468   3.158  11.399  0.0987  0.0332  0.0818
  565PYPI    C3 8845  15.211   3.221  11.699  0.1847  0.3371  0.0954
  565PYPI   PO4 8846  15.050   3.172  10.990  0.0973 -0.0424  0.1460
  565PYPI   GL1 8847  14.863   3.078  10.581 -0.2409  0.1111  0.2384
  565PYPI   GL2 8848  15.174   2.964  10.464  0.0129  0.0064 -0.0870
  565PYPI   C1A 8849  14.766   2.961  10.163  0.0123  0.0272 -0.1329
  565PYPI   C2A 8850  14.709   2.927   9.685  0.0068 -0.3857 -0.1862
  565PYPI   D3A 8851  14.753   2.889   9.329 -0.2922 -0.1982 -0.0685
  565PYPI   C4A 8852  14.500   2.922   8.895 -0.1008  0.0858 -0.1468
  565PYPI   C1B 8853  15.207   3.215  10.222 -0.1205  0.0372  0.0265
  565PYPI   C2B 8854  15.063   3.337   9.820 -0.2065 -0.1736  0.1579
  565PYPI   C3B 8855  15.009   3.567   9.490  0.0162 -0.3729 -0.1618
  565PYPI   C4B 8856  15.028   3.542   8.943 -0.1276 -0.2357 -0.2676
  566PYPI    C1 8857  16.651   1.145  10.802  0.0669  0.1841  0.1384
  566PYPI    C2 8858  16.432   0.897  11.028 -0.0586 -0.0254 -0.2047
  566PYPI    C3 8859  16.799   1.004  11.146 -0.1470 -0.0770  0.1275
  566PYPI   PO4 8860  16.653   1.035  10.558  0.1599 -0.0629 -0.1950
  566PYPI   GL1 8861  16.686   1.032  10.057 -0.2100 -0.1907 -0.0584
  566PYPI   GL2 8862  17.056   0.897   9.953  0.1416 -0.0112 -0.3658
  566PYPI   C1A 8863  16.422   1.270   9.677 -0.0083 -0.0603  0.0693
  566PYPI   C2A 8864  16.399   1.376   9.229  0.4783  0.0317  0.1494
  566PYPI   D3A 8865  16.153   1.291   8.817 -0.1020  0.0363 -0.3991
  566PYPI   C4A 8866  16.056   1.556   8.538  0.0190  0.0755 -0.1927
  566PYPI   C1B 8867  17.283   0.684   9.663  0.0261  0.1850  0.0399
  566PYPI   C2B 8868  17.535   0.751   9.312 -0.0995 -0.1773 -0.1327
  566PYPI   C3B 8869  17.672   0.660   8.835 -0.0219 -0.0096 -0.0313
  566PYPI   C4B 8870  17.784   0.707   8.466 -0.1972  0.0993  0.2818
  567PYPI    C1 8871   8.690  12.108  10.908  0.0322 -0.0891 -0.0118
  567PYPI    C2 8872   8.873  12.117  11.263 -0.0095 -0.2003  0.0126
  567PYPI    C3 8873   8.859  11.776  11.053  0.0496 -0.1254 -0.1141
  567PYPI   PO4 8874   8.746  12.366  10.806  0.1937  0.3411 -0.0899
  567PYPI   GL1 8875   8.543  12.512  10.458  0.1255 -0.0885 -0.0019
  567PYPI   GL2 8876   8.310  12.670  10.265 -0.0060 -0.2635  0.0449
  567PYPI   C1A 8877   8.570  12.282  10.042 -0.1072  0.3641  0.0163
  567PYPI   C2A 8878   8.569  12.202   9.626  0.1963 -0.2648  0.4052
  567PYPI   D3A 8879   8.509  12.205   9.273 -0.0317 -0.1944 -0.0427
  567PYPI   C4A 8880   8.592  12.332   8.883 -0.0326  0.3459 -0.1022
  567PYPI   C1B 8881   8.277  12.671   9.818 -0.1294  0.0387  0.0171
  567PYPI   C2B 8882   8.319  12.699   9.400 -0.2378  0.1691  0.1043
  567PYPI   C3B 8883   8.303  12.730   8.917  0.0493  0.1155  0.1382
  567PYPI   C4B 8884   8.430  12.681   8.520  0.1989  0.2679  0.3751
  568PYPI    C1 8885  10.044  15.483  10.934 -0.0914  0.0137  0.0636
  568PYPI    C2 8886  10.368  15.459  11.167 -0.1656  0.0089  0.1671
  568PYPI    C3 8887  10.174  15.807  11.129 -0.2845 -0.0430  0.2910
  568PYPI   PO4 8888  10.121  15.519  10.651 -0.1936 -0.3251  0.1236
  568PYPI   GL1 8889  10.282  15.365  10.248  0.2329 -0.1542 -0.3388
  568PYPI   GL2 8890  10.280  15.038  10.156 -0.2897 -0.3739 -0.0363
  568PYPI   C1A 8891  10.240  15.400   9.797  0.1797  0.1208 -0.0125
  568PYPI   C2A 8892  10.101  15.148   9.536 -0.1323  0.0583 -0.0476
  568PYPI   D3A 8893  10.025  15.052   9.079 -0.0289  0.0696 -0.4213
  568PYPI   C4A 8894  10.211  14.818   8.772 -0.2095 -0.3144 -0.0941
  568PYPI   C1B 8895  10.463  14.935   9.814 -0.1034  0.3457  0.2365
  568PYPI   C2B 8896  10.788  14.972   9.497  0.2234  0.0045  0.1953
  568PYPI   C3B 8897  11.037  14.976   9.200  0.0249  0.0290 -0.2681
  568PYPI   C4B 8898  11.120  15.316   8.807 -0.2441  0.0025 -0.3472
  569PYPI    C1 8899   1.110   2.724  10.535 -0.3251 -0.1607  0.0203
  569PYPI    C2 8900   1.298   2.533  10.832  0.0493  0.2743  0.0745
  569PYPI    C3 8901   0.901   2.579  10.844 -0.0235 -0.2959  0.1660
  569PYPI   PO4 8902   1.217   2.992  10.373  0.1524 -0.1103  0.0573
  569PYPI   GL1 8903   1.280   3.166  10.009  0.0989 -0.4107  0.0992
  569PYPI   GL2 8904   1.155   3.459  10.009  0.1182  0.0402 -0.1260
  569PYPI   C1A 8905   1.486   3.274   9.601  0.2014  0.1186  0.0661
  569PYPI   C2A 8906   1.524   3.175   9.140 -0.0456 -0.3220  0.2522
  569PYPI   D3A 8907   1.815   2.883   8.951 -0.0685  0.0094  0.1073
  569PYPI   C4A 8908   2.157   2.829   9.146  0.2398 -0.1710  0.1705
  569PYPI   C1B 8909   1.155   3.633   9.642  0.2649 -0.1671  0.0637
  569PYPI   C2B 8910   1.078   3.728   9.211 -0.0856  0.1618 -0.3216
  569PYPI   C3B 8911   1.246   3.497   8.830  0.1163  0.1968 -0.1288
  569PYPI   C4B 8912   1.599   3.437   8.668  0.0546 -0.2267  0.3470
  570PYPI    C1 8913  17.717   4.107  10.486  0.0278  0.0927 -0.0225
  570PYPI    C2 8914  17.776   4.502  10.505  0.1017  0.0866 -0.1207
  570PYPI    C3 8915  17.861   4.271  10.821 -0.0660  0.1650 -0.0172
  570PYPI   PO4 8916  17.846   3.972  10.257  0.1662  0.2494  0.0957
  570PYPI   GL1 8917  18.056   4.118   9.948 -0.2138  0.0366 -0.1373
  570PYPI   GL2 8918  17.783   4.241   9.870 -0.1603  0.1662  0.1421
  570PYPI   C1A 8919  18.083   4.187   9.455  0.0165  0.1195 -0.1686
  570PYPI   C2A 8920  18.108   4.281   8.983  0.0181 -0.0390  0.0752
  570PYPI   D3A 8921  18.143   4.252   8.538  0.1161 -0.0049  0.2289
  570PYPI   C4A 8922  18.444   4.275   8.227 -0.0414 -0.1506  0.1570
  570PYPI   C1B 8923  17.642   4.440   9.570  0.2461 -0.1752 -0.0376
  570PYPI   C2B 8924  17.581   4.518   9.184  0.0985  0.1296  0.1323
  570PYPI   C3B 8925  17.635   4.300   8.766 -0.1475  0.1050  0.2444
  570PYPI   C4B 8926  17.722   4.048   8.405 -0.3855 -0.1808 -0.1158
  571PYPI    C1 8927  12.188  16.137  10.442 -0.3756  0.0264  0.2026
  571PYPI    C2 8928  12.583  16.076  10.420 -0.4374 -0.3656  0.0971
  571PYPI    C3 8929  12.420  16.213  10.759 -0.1794  0.0881  0.0460
  571PYPI   PO4 8930  12.166  16.098  10.215  0.3332  0.0254  0.1840
  571PYPI   GL1 8931  12.555  16.316   9.959  0.1011  0.1980 -0.0558
  571PYPI   GL2 8932  12.588  16.020   9.780  0.0689 -0.0669 -0.3264
  571PYPI   C1A 8933  12.385  16.477   9.595 -0.1583  0.0824 -0.3076
  571PYPI   C2A 8934  12.277  16.443   9.180 -0.0702  0.3063  0.2671
  571PYPI   D3A 8935  12.369  16.350   8.746 -0.1137 -0.0772  0.1853
  571PYPI   C4A 8936  12.540  16.668   8.522  0.0754  0.1059  0.2473
  571PYPI   C1B 8937  12.488  15.671   9.543  0.1024  0.1204  0.1527
  571PYPI   C2B 8938  12.442  15.521   9.100  0.0134  0.2512 -0.0215
  571PYPI   C3B 8939  12.450  15.457   8.638  0.1664 -0.3283 -0.0652
  571PYPI   C4B 8940  12.494  15.879   8.501 -0.1018 -0.0425 -0.0837
  572PYPI    C1 8941  13.239   5.154  10.817 -0.0211 -0.1363  0.1154
  572PYPI    C2 8942  13.074   5.080  11.174 -0.0322 -0.1694  0.1035
  572PYPI    C3 8943  13.124   5.457  11.051 -0.1857 -0.1602  0.0671
  572PYPI   PO4 8944  13.385   4.938  10.820 -0.1287 -0.0910 -0.0075
  572PYPI   GL1 8945  13.397   4.855  10.392 -0.0735  0.1244 -0.3240
  572PYPI   GL2 8946  13.633   4.622  10.342 -0.1463 -0.0638 -0.0699
  572PYPI   C1A 8947  13.388   5.219  10.175  0.0839 -0.0498  0.1277
  572PYPI   C2A 8948  13.621   5.414  10.010  0.0955  0.0585  0.0652
  572PYPI   D3A 8949  13.923   5.616  10.127 -0.2576  0.4161  0.2267
  572PYPI   C4A 8950  14.195   5.445  10.490 -0.0400  0.0551 -0.1239
  572PYPI   C1B 8951  13.394   4.748   9.953 -0.1611 -0.0788 -0.1121
  572PYPI   C2B 8952  13.319   5.137   9.721 -0.0388  0.1421  0.1008
  572PYPI   C3B 8953  13.201   5.188   9.301  0.1547  0.0970 -0.0067
  572PYPI   C4B 8954  13.128   4.961   8.812 -0.0709 -0.2328 -0.0018
  573PYPI    C1 8955  15.546   4.616  11.279  0.1035 -0.1219  0.1125
  573PYPI    C2 8956  15.250   4.789  11.486  0.1020 -0.0456  0.0468
  573PYPI    C3 8957  15.618   4.768  11.642  0.1279  0.1160  0.0097
  573PYPI   PO4 8958  15.412   4.452  11.159 -0.1859 -0.2509  0.0104
  573PYPI   GL1 8959  15.446   4.353  10.699 -0.0456  0.1523 -0.0349
  573PYPI   GL2 8960  15.523   3.997  10.619  0.1165 -0.0172  0.1198
  573PYPI   C1A 8961  15.208   4.539  10.455  0.1560  0.3229 -0.0477
  573PYPI   C2A 8962  14.879   4.462  10.203  0.2031 -0.0832  0.2705
  573PYPI   D3A 8963  14.670   4.348   9.777  0.0202 -0.2199 -0.1831
  573PYPI   C4A 8964  14.455   4.407   9.606  0.2667 -0.0260 -0.0610
  573PYPI   C1B 8965  15.528   4.186  10.185 -0.3357  0.2500  0.0641
  573PYPI   C2B 8966  15.588   4.184   9.702 -0.0806  0.1247  0.0309
  573PYPI   C3B 8967  15.576   4.324   9.348 -0.0341  0.1640 -0.1936
  573PYPI   C4B 8968  15.316   4.502   9.044 -0.2091  0.0472  0.0021
  574ERGO   ROH 8969  13.195  11.809  10.433 -0.0518  0.0142 -0.0017
  574ERGO    R1 8970  13.299  11.709  10.190 -0.1020 -0.1137  0.0288
  574ERGO    R2 8971  13.139  11.600   9.992 -0.1848  0.1152 -0.0314
  574ERGO    R3 8972  13.262  11.785   9.836  0.1223 -0.0400  0.0192
  574ERGO    R4 8973  13.181  11.574   9.650 -0.0449  0.0464 -0.0099
  574ERGO    R5 8974  13.381  11.656   9.673  0.0484 -0.1960  0.0860
  574ERGO    C1 8975  13.321  11.731   9.304  0.3248 -0.1393  0.0501
  574ERGO    C2 8976  13.318  11.770   8.962  0.0897  0.2409  0.0562
  575ERGO   ROH 8977   3.505  14.245  10.236  0.0396 -0.0887 -0.0593
  575ERGO    R1 8978   3.593  14.226   9.968  0.0532 -0.0628 -0.0572
  575ERGO    R2 8979   3.675  13.987   9.855  0.1712 -0.0328 -0.0423
  575ERGO    R3 8980   3.489  14.050   9.667  0.1416 -0.1331 -0.0462
  575ERGO    R4 8981   3.584  13.783   9.592  0.2833 -0.0788 -0.0456
  575ERGO    R5 8982   3.577  13.959   9.464  0.1915 -0.0844 -0.0440
  575ERGO    C1 8983   3.356  13.723   9.262  0.3208 -0.1997 -0.0513
  575ERGO    C2 8984   3.129  13.744   8.962 -0.2644  0.1922 -0.0150
  576ERGO   ROH 8985  16.441   3.418   9.953 -0.3475  0.0230 -0.0981
  576ERGO    R1 8986  16.347   3.497   9.697 -0.1882  0.3196 -0.0685
  576ERGO    R2 8987  16.411   3.741   9.584  0.3978  0.2045 -0.0081
  576ERGO    R3 8988  16.496   3.587   9.378  0.0032  0.0437 -0.0624
  576ERGO    R4 8989  16.334   3.796   9.252  0.3684  0.4115  0.0307
  576ERGO    R5 8990  16.311   3.581   9.227 -0.0855  0.4466  0.0110
  576ERGO    C1 8991  16.370   3.683   8.864 -0.0190  0.3812  0.0023
  576ERGO    C2 8992  16.306   3.865   8.620 -0.1935  0.0399  0.0148
  577ERGO   ROH 8993   2.036   8.891  10.412 -0.2852  0.0664  0.0903
  577ERGO    R1 8994   2.035   9.041  10.172 -0.2361 -0.0409  0.0234
  577ERGO    R2 8995   2.232   9.015   9.979 -0.1121 -0.0127  0.1502
  577ERGO    R3 8996   2.021   8.969   9.815  0.0085 -0.2070  0.0436
  577ERGO    R4 8997   2.234   9.060   9.637 -0.0183  0.1228  0.1667
  577ERGO    R5 8998   2.033   9.142   9.651 -0.1301 -0.1235  0.1169
  577ERGO    C1 8999   2.035   9.043   9.283  0.1495  0.0194  0.0764
  577ERGO    C2 9000   1.978   9.144   8.909 -0.1883  0.0339 -0.0786
  578ERGO   ROH 9001   9.290   4.815  10.263 -0.1040  0.0129 -0.0590
  578ERGO    R1 9002   9.312   4.716   9.999 -0.0541  0.1008 -0.0876
  578ERGO    R2 9003   9.092   4.679   9.835 -0.0318  0.0610 -0.1045
  578ERGO    R3 9004   9.234   4.836   9.664 -0.0900  0.1684 -0.0558
  578ERGO    R4 9005   9.020   4.724   9.500  0.0299  0.0270 -0.1229
  578ERGO    R5 9006   9.234   4.716   9.458  0.0503  0.1755 -0.0631
  578ERGO    C1 9007   9.112   4.897   9.145  0.0110  0.1080 -0.0878
  578ERGO    C2 9008   9.124   4.843   8.843  0.0522  0.1010 -0.0796
  579ERGO   ROH 9009  12.112   5.626  10.387  0.2403  0.1497  0.1119
  579ERGO    R1 9010  11.965   5.716  10.163  0.1112  0.1110  0.1791
  579ERGO    R2 9011  11.991   5.972  10.060  0.1275  0.0645  0.0573
  579ERGO    R3 9012  12.041   5.838   9.829 -0.0809 -0.0480  0.0757
  579ERGO    R4 9013  12.017   6.119   9.748  0.2132 -0.0397  0.0157
  579ERGO    R5 9014  11.907   5.950   9.665  0.0030  0.0625  0.0842
  579ERGO    C1 9015  12.079   6.079   9.350  0.0676 -0.2060  0.0086
  579ERGO    C2 9016  12.265   6.054   9.061  0.0336  0.1064 -0.2738
  580ERGO   ROH 9017  16.859   4.402  10.122 -0.1794 -0.0431 -0.0847
  580ERGO    R1 9018  16.965   4.506   9.882 -0.1471  0.0048 -0.0495
  580ERGO    R2 9019  17.122   4.355   9.711  0.0208  0.0907  0.0283
  580ERGO    R3 9020  16.938   4.432   9.526  0.0473 -0.0441 -0.0557
  580ERGO    R4 9021  17.146   4.294   9.372  0.2254  0.1133  0.0370
  580ERGO    R5 9022  17.068   4.494   9.335  0.0910  0.0575  0.0056
  580ERGO    C1 9023  16.986   4.330   9.001  0.3695 -0.0001 -0.0371
  580ERGO    C2 9024  17.106   4.241   8.753  0.0638 -0.0034 -0.2366
  581ERGO   ROH 9025   5.898   2.425  10.355  0.0142  0.2727 -0.0305
  581ERGO    R1 9026   5.779   2.354  10.108  0.1110 -0.0018 -0.0019
  581ERGO    R2 9027   5.678   2.542   9.932 -0.2989 -0.2195 -0.0130
  581ERGO    R3 9028   5.844   2.418   9.756 -0.0715  0.0837 -0.0207
  581ERGO    R4 9029   5.700   2.616   9.595 -0.4139 -0.1471 -0.0047
  581ERGO    R5 9030   5.715   2.403   9.554 -0.0401 -0.1203 -0.0264
  581ERGO    C1 9031   5.867   2.543   9.233 -0.2675  0.1795 -0.0071
  581ERGO    C2 9032   5.930   2.500   8.943 -0.0324  0.0868 -0.1814
  582ERGO   ROH 9033   7.807  17.107   9.718 -0.1069 -0.0594 -0.0046
  582ERGO    R1 9034   7.833  17.123   9.437 -0.0530 -0.1594 -0.0061
  582ERGO    R2 9035   7.750  16.921   9.268 -0.2934 -0.0954  0.0317
  582ERGO    R3 9036   7.610  17.122   9.150 -0.0241  0.0593 -0.0308
  582ERGO    R4 9037   7.676  16.939   8.930 -0.2867 -0.1161  0.0298
  582ERGO    R5 9038   7.717  17.153   8.938  0.0103 -0.1656 -0.0483
  582ERGO    C1 9039   7.502  17.137   8.623 -0.0299  0.0171 -0.0301
  582ERGO    C2 9040   7.501  17.059   8.349 -0.1609  0.1517  0.0381
  583ERGO   ROH 9041   8.206   9.753  10.318  0.0736 -0.1720 -0.0345
  583ERGO    R1 9042   8.192   9.649  10.055  0.1719 -0.0665 -0.0829
  583ERGO    R2 9043   7.956   9.636   9.912  0.1677 -0.2812 -0.0659
  583ERGO    R3 9044   8.099   9.774   9.726 -0.0103 -0.0194 -0.0140
  583ERGO    R4 9045   7.921   9.602   9.570  0.3597 -0.3544 -0.0784
  583ERGO    R5 9046   8.138   9.615   9.551  0.3479  0.0431  0.0028
  583ERGO    C1 9047   8.036   9.711   9.196  0.3044 -0.1513 -0.0370
  583ERGO    C2 9048   8.048   9.767   8.863  0.1506  0.0210  0.1351
  584ERGO   ROH 9049   2.701   2.697   9.873 -0.1348  0.1622 -0.0543
  584ERGO    R1 9050   2.690   2.660   9.593 -0.0884  0.0216 -0.0391
  584ERGO    R2 9051   2.591   2.852   9.421 -0.1949 -0.1176 -0.1422
  584ERGO    R3 9052   2.831   2.820   9.298 -0.1625 -0.0278 -0.1009
  584ERGO    R4 9053   2.634   2.795   9.083 -0.1112 -0.1275 -0.1294
  584ERGO    R5 9054   2.792   2.653   9.132 -0.0621 -0.0558 -0.0934
  584ERGO    C1 9055   2.885   2.733   8.771 -0.0321 -0.0490 -0.0830
  584ERGO    C2 9056   2.786   2.755   8.427  0.2462  0.1143 -0.1682
  585ERGO   ROH 9057   9.847   1.052   9.620 -0.0117 -0.1989  0.0166
  585ERGO    R1 9058   9.880   0.906   9.380 -0.0719 -0.0441 -0.0874
  585ERGO    R2 9059   9.706   0.929   9.166 -0.1286  0.0901 -0.0257
  585ERGO    R3 9060   9.935   0.983   9.029 -0.1669  0.1824 -0.0542
  585ERGO    R4 9061   9.750   0.880   8.827 -0.0686 -0.1484  0.0148
  585ERGO    R5 9062   9.951   0.807   8.868 -0.0028  0.0617  0.0885
  585ERGO    C1 9063   9.990   0.902   8.500 -0.0695 -0.2006  0.0116
  585ERGO    C2 9064  10.123   0.751   8.234  0.0843 -0.2395  0.2517
  586ERGO   ROH 9065  10.719  17.391   9.921  0.0114 -0.1732  0.0083
  586ERGO    R1 9066  10.646  17.271   9.676 -0.0742 -0.3725  0.1303
  586ERGO    R2 9067  10.796  17.301   9.445 -0.3965 -0.1741 -0.0556
  586ERGO    R3 9068  10.793  17.029   9.446  0.0784 -0.1889  0.0300
  586ERGO    R4 9069  10.833  17.101   9.165 -0.4019 -0.1855 -0.0498
  586ERGO    R5 9070  10.679  16.970   9.244 -0.0815 -0.4409  0.1864
  586ERGO    C1 9071  10.852  16.730   9.004  0.0406 -0.2059  0.0343
  586ERGO    C2 9072  11.009  16.646   8.662  0.1380 -0.1863 -0.1319
  587ERGO   ROH 9073   4.868  17.881  10.135  0.0924  0.1197  0.0298
  587ERGO    R1 9074   4.727  17.844   9.893  0.1656  0.0685 -0.0043
  587ERGO    R2 9075   4.635  18.054   9.740  0.0202  0.0322  0.0377
  587ERGO    R3 9076   4.776  17.931   9.543  0.1542  0.2002  0.0256
  587ERGO    R4 9077   4.572  18.089   9.402 -0.2792 -0.2956  0.0531
  587ERGO    R5 9078   4.611  17.876   9.378  0.1497 -0.2436  0.1629
  587ERGO    C1 9079   4.668  17.994   9.020 -0.3277 -0.3289  0.0508
  587ERGO    C2 9080   4.854  18.160   8.669  0.0440 -0.1015 -0.0575
  588ERGO   ROH 9081  12.065  16.007   9.710 -0.3406  0.0689  0.1462
  588ERGO    R1 9082  12.135  15.987   9.436 -0.1799  0.1786  0.1776
  588ERGO    R2 9083  12.065  15.770   9.280  0.0152  0.1839  0.0777
  588ERGO    R3 9084  11.957  15.961   9.120  0.0055  0.1743  0.0731
  588ERGO    R4 9085  12.053  15.755   8.935 -0.3076  0.0085  0.0927
  588ERGO    R5 9086  12.102  15.968   8.929 -0.1619 -0.0287 -0.0632
  588ERGO    C1 9087  11.945  15.926   8.584 -0.5045 -0.1027  0.0970
  588ERGO    C2 9088  11.990  15.932   8.254 -0.1152  0.0145 -0.1822
  589ERGO   ROH 9089   9.940   8.521  10.424 -0.1582  0.0948 -0.0875
  589ERGO    R1 9090   9.951   8.448  10.151 -0.0592  0.0474 -0.0708
  589ERGO    R2 9091   9.774   8.547   9.963  0.0070  0.0084 -0.1486
  589ERGO    R3 9092  10.002   8.619   9.833  0.0490 -0.0091 -0.0861
  589ERGO    R4 9093   9.815   8.544   9.620  0.0315  0.1668 -0.1480
  589ERGO    R5 9094  10.016   8.466   9.650  0.0050  0.0735 -0.1651
  589ERGO    C1 9095  10.053   8.609   9.298  0.0852  0.2426 -0.0889
  589ERGO    C2 9096  10.079   8.670   8.930  0.1430 -0.0657  0.3015
  590ERGO   ROH 9097   8.802  13.269   9.968 -0.4046  0.3022  0.1209
  590ERGO    R1 9098   8.793  13.196   9.695 -0.2082  0.1288  0.1574
  590ERGO    R2 9099   8.558  13.129   9.566 -0.1135 -0.0039  0.0395
  590ERGO    R3 9100   8.636  13.323   9.392 -0.0395 -0.0919 -0.0249
  590ERGO    R4 9101   8.459  13.149   9.235 -0.2201  0.0166  0.0725
  590ERGO    R5 9102   8.663  13.208   9.184 -0.2012 -0.1413 -0.0148
  590ERGO    C1 9103   8.476  13.343   8.880 -0.2129 -0.0540  0.0312
  590ERGO    C2 9104   8.416  13.221   8.577 -0.0107 -0.1691  0.2447
  591ERGO   ROH 9105   6.573   0.958  10.192 -0.0633 -0.0130 -0.0376
  591ERGO    R1 9106   6.494   1.074   9.946 -0.2955  0.0814  0.0777
  591ERGO    R2 9107   6.477   0.928   9.712  0.0165  0.2760 -0.0718
  591ERGO    R3 9108   6.224   1.028   9.706 -0.2023 -0.2366  0.0271
  591ERGO    R4 9109   6.284   0.953   9.427  0.0492  0.3247 -0.0898
  591ERGO    R5 9110   6.215   1.148   9.498 -0.3853  0.0829  0.2096
  591ERGO    C1 9111   5.934   1.061   9.254 -0.1373 -0.1281 -0.0074
  591ERGO    C2 9112   5.927   1.076   8.984 -0.0426  0.1105  0.2118
  592ERGO   ROH 9113   0.701   0.606  10.006  0.1644 -0.1038  0.0125
  592ERGO    R1 9114   0.836   0.525   9.771  0.0441 -0.1227 -0.0524
  592ERGO    R2 9115   0.739   0.325   9.605 -0.1322 -0.0216 -0.0857
  592ERGO    R3 9116   0.764   0.517   9.415 -0.0730  0.0238 -0.0307
  592ERGO    R4 9117   0.695   0.273   9.267 -0.2092  0.1152 -0.0963
  592ERGO    R5 9118   0.865   0.404   9.230 -0.1595  0.0416 -0.0822
  592ERGO    C1 9119   0.693   0.423   8.890 -0.1984  0.2376 -0.0508
  592ERGO    C2 9120   0.608   0.379   8.477  0.1446  0.0342  0.0512
  593ERGO   ROH 9121   5.665  12.523  10.259 -0.1225  0.1086 -0.0532
  593ERGO    R1 9122   5.583  12.557   9.990 -0.3175  0.3360  0.0339
  593ERGO    R2 9123   5.546  12.805   9.876  0.3313  0.4553  0.0681
  593ERGO    R3 9124   5.719  12.710   9.689 -0.1537 -0.1088 -0.1311
  593ERGO    R4 9125   5.545  12.897   9.543  0.4542  0.7581  0.1455
  593ERGO    R5 9126   5.585  12.689   9.491 -0.4164  0.5927 -0.0671
  593ERGO    C1 9127   5.707  12.862   9.173  0.0705  0.4049  0.0038
  593ERGO    C2 9128   5.681  13.102   8.859 -0.1942  0.0794  0.0642
  594ERGO   ROH 9129  15.366   7.870  10.914 -0.0407 -0.1202  0.0169
  594ERGO    R1 9130  15.480   7.898  10.657 -0.0455 -0.1705  0.0085
  594ERGO    R2 9131  15.418   7.730  10.447 -0.2260 -0.0715 -0.0222
  594ERGO    R3 9132  15.361   7.963  10.320 -0.0299  0.0108  0.0372
  594ERGO    R4 9133  15.417   7.771  10.104 -0.1180  0.0389 -0.0093
  594ERGO    R5 9134  15.511   7.966  10.133  0.0151 -0.0370  0.0735
  594ERGO    C1 9135  15.363   8.014   9.785  0.1289  0.1804  0.0541
  594ERGO    C2 9136  15.242   7.953   9.451 -0.1487  0.1154  0.1856
  595ERGO   ROH 9137  13.426   9.026  10.557 -0.0767 -0.1705  0.0730
  595ERGO    R1 9138  13.331   8.904  10.320 -0.0811 -0.0560  0.0146
  595ERGO    R2 9139  13.150   9.026  10.152 -0.0947  0.0215  0.0820
  595ERGO    R3 9140  13.339   8.976   9.963 -0.0984  0.1249  0.0507
  595ERGO    R4 9141  13.096   9.040   9.811 -0.1168  0.1282  0.0895
  595ERGO    R5 9142  13.220   8.861   9.789 -0.0841  0.1623  0.0186
  595ERGO    C1 9143  13.242   9.001   9.435 -0.1333  0.2875  0.0645
  595ERGO    C2 9144  13.144   8.994   9.034  0.0781 -0.0789  0.0642
  596ERGO   ROH 9145  12.413   0.299  10.077  0.0790  0.0925  0.1009
  596ERGO    R1 9146  12.424   0.392   9.810  0.0889 -0.0255  0.0597
  596ERGO    R2 9147  12.653   0.376   9.656  0.0838 -0.1302  0.0606
  596ERGO    R3 9148  12.489   0.247   9.482  0.0584 -0.1797  0.1210
  596ERGO    R4 9149  12.736   0.295   9.331 -0.0061 -0.1226  0.0355
  596ERGO    R5 9150  12.534   0.351   9.271 -0.0403 -0.1776  0.1013
  596ERGO    C1 9151  12.630   0.126   8.978 -0.0823 -0.1647  0.0776
  596ERGO    C2 9152  12.548   0.054   8.623 -0.0527  0.0864  0.0113
  597ERGO   ROH 9153  17.574   3.736   9.903  0.2021 -0.2304 -0.0317
  597ERGO    R1 9154  17.448   3.851   9.677  0.0116 -0.2635  0.0558
  597ERGO    R2 9155  17.589   3.959   9.467 -0.1624  0.0719  0.1033
  597ERGO    R3 9156  17.438   3.788   9.319  0.0593 -0.0521  0.0159
  597ERGO    R4 9157  17.549   3.978   9.124 -0.0799  0.1141  0.0960
  597ERGO    R5 9158  17.338   3.927   9.151 -0.0376 -0.1142  0.0211
  597ERGO    C1 9159  17.384   3.829   8.785  0.1761  0.0222  0.0096
  597ERGO    C2 9160  17.263   3.879   8.430  0.1078  0.1048 -0.0928
  598ERGO   ROH 9161   3.988   3.598  10.318 -0.0384 -0.1670 -0.0059
  598ERGO    R1 9162   3.970   3.502  10.053 -0.0791 -0.0856 -0.0337
  598ERGO    R2 9163   3.742   3.533   9.898 -0.0831  0.0140 -0.0119
  598ERGO    R3 9164   3.916   3.645   9.723 -0.0671  0.0241  0.0117
  598ERGO    R4 9165   3.698   3.544   9.556 -0.1570  0.2236  0.0039
  598ERGO    R5 9166   3.910   3.501   9.532 -0.1830  0.1310 -0.0667
  598ERGO    C1 9167   3.836   3.656   9.191 -0.1849  0.3550  0.0353
  598ERGO    C2 9168   3.729   3.721   8.907  0.2675  0.3621  0.2559
  599ERGO   ROH 9169   3.700  15.549  10.153 -0.1315 -0.2260 -0.0823
  599ERGO    R1 9170   3.591  15.690   9.934 -0.1283 -0.1481 -0.0335
  599ERGO    R2 9171   3.736  15.743   9.704 -0.1127 -0.0308  0.0057
  599ERGO    R3 9172   3.525  15.623   9.582 -0.0832 -0.0070 -0.0705
  599ERGO    R4 9173   3.692  15.721   9.362 -0.0260  0.0415 -0.0109
  599ERGO    R5 9174   3.480  15.761   9.392 -0.0361  0.0350 -0.0540
  599ERGO    C1 9175   3.468  15.595   9.048  0.0521  0.1059 -0.0922
  599ERGO    C2 9176   3.518  15.502   8.748 -0.0175 -0.1856 -0.1641
  600ERGO   ROH 9177   0.013  13.220  10.178  0.0728  0.1887  0.1271
  600ERGO    R1 9178   0.142  13.205   9.927  0.0004  0.1523  0.0926
  600ERGO    R2 9179   0.227  12.966   9.817 -0.0439  0.1385  0.0991
  600ERGO    R3 9180   0.077  13.047   9.605 -0.0966  0.1181  0.1273
  600ERGO    R4 9181   0.299  12.899   9.485 -0.1233  0.0949  0.0897
  600ERGO    R5 9182   0.237  13.102   9.436 -0.1324  0.0950  0.0812
  600ERGO    C1 9183   0.201  12.937   9.094 -0.2191  0.0504  0.1106
  600ERGO    C2 9184   0.254  12.738   8.811  0.1770  0.0094 -0.1299
  601ERGO   ROH 9185  13.091   2.556  10.098 -0.0918 -0.1714 -0.0615
  601ERGO    R1 9186  13.016   2.649   9.841 -0.0659 -0.2388 -0.0935
  601ERGO    R2 9187  13.165   2.834   9.700 -0.1618 -0.1160 -0.0342
  601ERGO    R3 9188  13.157   2.643   9.506  0.0758 -0.1270 -0.0374
  601ERGO    R4 9189  13.298   2.868   9.382 -0.2427  0.0771 -0.0488
  601ERGO    R5 9190  13.123   2.766   9.303 -0.1170 -0.1637 -0.0309
  601ERGO    C1 9191  13.367   2.709   9.015 -0.0667  0.1791 -0.0603
  601ERGO    C2 9192  13.390   2.734   8.609  0.0501  0.3425  0.0957
  602ERGO   ROH 9193   1.856   8.176  10.233 -0.0786 -0.1063 -0.0178
  602ERGO    R1 9194   1.918   8.080   9.974  0.1446 -0.0099 -0.0017
  602ERGO    R2 9195   1.754   8.122   9.757  0.0763 -0.3647 -0.0218
  602ERGO    R3 9196   1.980   8.225   9.646 -0.1138  0.0856 -0.0113
  602ERGO    R4 9197   1.808   8.159   9.417  0.1504 -0.6168 -0.0391
  602ERGO    R5 9198   2.014   8.094   9.449  0.3161 -0.0682  0.1502
  602ERGO    C1 9199   2.051   8.277   9.116  0.0150 -0.3408 -0.0392
  602ERGO    C2 9200   1.900   8.254   8.728  0.1843 -0.2741  0.0619
  603ERGO   ROH 9201  14.796  15.502   9.684 -0.2224  0.2876 -0.0811
  603ERGO    R1 9202  14.818  15.558   9.407 -0.1429  0.1211 -0.1103
  603ERGO    R2 9203  15.060  15.567   9.275 -0.0911  0.1904 -0.0145
  603ERGO    R3 9204  14.941  15.386   9.111  0.0931  0.0053  0.0524
  603ERGO    R4 9205  15.133  15.525   8.940 -0.3065  0.4055 -0.0904
  603ERGO    R5 9206  14.920  15.499   8.902 -0.3016  0.0227  0.0933
  603ERGO    C1 9207  15.064  15.331   8.591 -0.2590  0.3570 -0.0719
  603ERGO    C2 9208  15.313  15.320   8.274 -0.2120 -0.0727 -0.1064
  604ERGO   ROH 9209  17.791   9.189  10.246 -0.1459  0.1291 -0.0285
  604ERGO    R1 9210  17.686   9.099  10.000  0.0319  0.1859 -0.1256
  604ERGO    R2 9211  17.797   9.169   9.756  0.3101  0.1034 -0.0216
  604ERGO    R3 9212  17.804   8.900   9.719  0.1717  0.0957 -0.0060
  604ERGO    R4 9213  17.753   9.011   9.452  0.3397  0.1206 -0.0357
  604ERGO    R5 9214  17.635   8.859   9.554  0.2092  0.1887 -0.0732
  604ERGO    C1 9215  17.735   8.667   9.239  0.2270  0.1235 -0.0294
  604ERGO    C2 9216  17.779   8.682   8.899  0.3527  0.3233 -0.2543
  605ERGO   ROH 9217  12.820  12.963  10.286 -0.1047 -0.2613  0.0099
  605ERGO    R1 9218  12.703  12.968  10.028 -0.1323 -0.1864  0.0234
  605ERGO    R2 9219  12.675  13.201   9.882 -0.1121 -0.1488  0.0767
  605ERGO    R3 9220  12.808  13.059   9.692 -0.1540 -0.1286  0.0324
  605ERGO    R4 9221  12.584  13.183   9.549 -0.0887  0.0190  0.0606
  605ERGO    R5 9222  12.636  12.971   9.552 -0.1766 -0.0023 -0.0186
  605ERGO    C1 9223  12.656  13.039   9.177 -0.1144  0.1358  0.0097
  605ERGO    C2 9224  12.748  13.121   8.950 -0.1046  0.1240  0.0156
  606ERGO   ROH 9225   9.072  12.431  10.463  0.1677  0.1541  0.1630
  606ERGO    R1 9226   9.165  12.376  10.201  0.0858  0.0788  0.1499
  606ERGO    R2 9227   9.059  12.175  10.044  0.0161  0.0562  0.2313
  606ERGO    R3 9228   9.025  12.377   9.865 -0.0084  0.0146  0.1877
  606ERGO    R4 9229   9.061  12.137   9.701  0.0225 -0.0223  0.2394
  606ERGO    R5 9230   9.174  12.323   9.686  0.0015 -0.0087  0.1997
  606ERGO    C1 9231   9.032  12.304   9.333  0.0031 -0.1072  0.2031
  606ERGO    C2 9232   9.123  12.409   8.933  0.1500 -0.1823 -0.0888
  607ERGO   ROH 9233   2.336   6.397  10.447 -0.0919 -0.1467  0.0042
  607ERGO    R1 9234   2.527   6.277  10.276  0.0005  0.0203 -0.0117
  607ERGO    R2 9235   2.467   6.062  10.114  0.2015 -0.1004  0.0728
  607ERGO    R3 9236   2.565   6.223   9.918 -0.0378 -0.0461 -0.0065
  607ERGO    R4 9237   2.499   5.973   9.781  0.0532 -0.1116  0.0606
  607ERGO    R5 9238   2.691   6.076   9.777 -0.0202  0.0278 -0.0713
  607ERGO    C1 9239   2.610   6.072   9.404 -0.2579 -0.0672 -0.0208
  607ERGO    C2 9240   2.549   5.983   9.068 -0.3504 -0.3481 -0.0732
  608ERGO   ROH 9241  11.411   0.077   9.880 -0.1391  0.1638  0.0123
  608ERGO    R1 9242  11.554  -0.023   9.656  0.0879  0.2985  0.0937
  608ERGO    R2 9243  11.435  -0.179   9.462  0.4183 -0.0848  0.1860
  608ERGO    R3 9244  11.535   0.011   9.295  0.0461  0.0139  0.0670
  608ERGO    R4 9245  11.534  -0.235   9.135  0.3849 -0.0606  0.1716
  608ERGO    R5 9246  11.704  -0.103   9.169  0.1876  0.2348  0.0511
  608ERGO    C1 9247  11.684  -0.089   8.788  0.0161  0.0462  0.0515
  608ERGO    C2 9248  11.479   0.047   8.351 -0.0447 -0.0897 -0.2025
  609ERGO   ROH 9249   3.417  12.100  10.145  0.0484 -0.0598  0.0527
  609ERGO    R1 9250   3.282  12.115   9.896  0.0039  0.0680  0.0838
  609ERGO    R2 9251   3.142  12.340   9.817  0.1051  0.1621  0.1640
  609ERGO    R3 9252   3.301  12.323   9.598  0.0515  0.1266  0.1277
  609ERGO    R4 9253   3.068  12.475   9.507  0.0830  0.2106  0.1904
  609ERGO    R5 9254   3.149  12.295   9.415  0.0032  0.1915  0.1585
  609ERGO    C1 9255   3.175  12.537   9.122  0.0198  0.2054  0.1718
  609ERGO    C2 9256   3.244  12.798   8.871  0.0233  0.1633  0.0605
  610ERGO   ROH 9257   8.695  14.521  10.006  0.1444 -0.1127  0.1698
  610ERGO    R1 9258   8.853  14.456   9.780  0.0494  0.1698  0.0191
  610ERGO    R2 9259   8.817  14.224   9.634  0.3218  0.1050  0.0634
  610ERGO    R3 9260   8.796  14.398   9.426 -0.1820  0.0692  0.0684
  610ERGO    R4 9261   8.881  14.146   9.304  0.4067  0.2450  0.0446
  610ERGO    R5 9262   8.977  14.339   9.281 -0.0683  0.5050  0.0079
  610ERGO    C1 9263   8.899  14.263   8.916 -0.0168  0.2930  0.0383
  610ERGO    C2 9264   8.941  14.203   8.604 -0.1495  0.1023  0.1891
  611ERGO   ROH 9265   8.067   0.270   9.652  0.0268  0.2432  0.0352
  611ERGO    R1 9266   8.125   0.119   9.420 -0.0639  0.0865  0.1127
  611ERGO    R2 9267   7.927   0.032   9.247 -0.1081  0.2316  0.0883
  611ERGO    R3 9268   8.079   0.159   9.061  0.0909 -0.0052  0.0820
  611ERGO    R4 9269   7.853   0.049   8.910 -0.0845  0.3383  0.0880
  611ERGO    R5 9270   8.064   0.020   8.866 -0.1263  0.0090  0.0864
  611ERGO    C1 9271   7.951   0.180   8.539  0.1160  0.1780  0.0822
  611ERGO    C2 9272   7.782   0.331   8.359 -0.0374 -0.0063 -0.1400
  612ERGO   ROH 9273   7.311   5.937  10.291  0.3563 -0.0423  0.0194
  612ERGO    R1 9274   7.415   5.767  10.090  0.2343 -0.0868 -0.0086
  612ERGO    R2 9275   7.273   5.702   9.861  0.1182 -0.0846  0.0549
  612ERGO    R3 9276   7.496   5.795   9.736  0.0838 -0.1384 -0.0458
  612ERGO    R4 9277   7.322   5.704   9.519 -0.1117  0.1007  0.0209
  612ERGO    R5 9278   7.529   5.645   9.553 -0.1266 -0.0393 -0.1621
  612ERGO    C1 9279   7.560   5.792   9.203 -0.2778  0.1581 -0.0935
  612ERGO    C2 9280   7.474   5.998   8.884 -0.1962  0.0976 -0.1642
  613ERGO   ROH 9281  17.023   6.857  10.033 -0.1339 -0.0923  0.0505
  613ERGO    R1 9282  17.132   6.893   9.775  0.0052 -0.0797  0.1105
  613ERGO    R2 9283  17.117   6.699   9.578  0.0452 -0.0412  0.0696
  613ERGO    R3 9284  17.006   6.901   9.433  0.1766  0.0166  0.0484
  613ERGO    R4 9285  17.104   6.711   9.233 -0.1071 -0.1573  0.0700
  613ERGO    R5 9286  17.150   6.923   9.243  0.1105 -0.1971 -0.0300
  613ERGO    C1 9287  16.993   6.907   8.896 -0.0726 -0.1706  0.0501
  613ERGO    C2 9288  16.874   6.943   8.517  0.1910 -0.2511 -0.2045
  614ERGO   ROH 9289   4.933  11.760  10.219 -0.0359  0.2384  0.0504
  614ERGO    R1 9290   4.860  11.888   9.977 -0.1103  0.1986  0.0522
  614ERGO    R2 9291   4.993  11.844   9.739 -0.1353  0.2196  0.0387
  614ERGO    R3 9292   4.743  11.786   9.648 -0.1320  0.1418  0.0762
  614ERGO    R4 9293   4.903  11.825   9.406 -0.1591  0.1366  0.0490
  614ERGO    R5 9294   4.716  11.926   9.455 -0.1821  0.1030  0.0508
  614ERGO    C1 9295   4.617  11.760   9.126 -0.1699  0.0152  0.0903
  614ERGO    C2 9296   4.505  11.566   8.920 -0.0928 -0.0559  0.2459
  615ERGO   ROH 9297   6.377   7.686   9.839  0.1076 -0.0652  0.0668
  615ERGO    R1 9298   6.295   7.693   9.568  0.0574 -0.0446  0.0822
  615ERGO    R2 9299   6.170   7.912   9.456  0.0503 -0.0290  0.1168
  615ERGO    R3 9300   6.370   7.893   9.273  0.0159 -0.0325  0.0800
  615ERGO    R4 9301   6.129   7.938   9.114 -0.0049  0.0134  0.1269
  615ERGO    R5 9302   6.272   7.775   9.089 -0.0288  0.0000  0.0842
  615ERGO    C1 9303   6.293   7.934   8.743 -0.0692  0.0347  0.0982
  615ERGO    C2 9304   6.302   8.225   8.527 -0.2955 -0.2504  0.3259
  616ERGO   ROH 9305  17.685   2.744  10.007 -0.0592 -0.0644 -0.0531
  616ERGO    R1 9306  17.743   2.712   9.731 -0.0452 -0.0753 -0.0493
  616ERGO    R2 9307  17.644   2.884   9.538  0.0008 -0.0555 -0.0581
  616ERGO    R3 9308  17.906   2.907   9.471  0.0106 -0.1056 -0.0363
  616ERGO    R4 9309  17.763   2.918   9.216  0.0341 -0.0346 -0.0433
  616ERGO    R5 9310  17.927   2.784   9.268 -0.0016 -0.0786 -0.0523
  616ERGO    C1 9311  18.079   2.960   8.965  0.0627 -0.0695 -0.0142
  616ERGO    C2 9312  18.315   2.881   8.694 -0.1672  0.3025 -0.0368
  617ERGO   ROH 9313  15.965   6.548  10.558  0.0554  0.1749  0.0364
  617ERGO    R1 9314  15.969   6.659  10.297  0.0359  0.0196 -0.0304
  617ERGO    R2 9315  15.822   6.553  10.089  0.0033 -0.0904  0.0509
  617ERGO    R3 9316  15.728   6.808  10.069  0.0249 -0.0920 -0.0934
  617ERGO    R4 9317  15.674   6.689   9.807 -0.0628 -0.2693 -0.0020
  617ERGO    R5 9318  15.781   6.874   9.846 -0.0301 -0.2509 -0.1576
  617ERGO    C1 9319  15.499   7.006   9.625 -0.0810 -0.3748 -0.1684
  617ERGO    C2 9320  15.359   7.056   9.393 -0.0780 -0.0424 -0.1762
  618ERGO   ROH 9321   6.102   8.128   9.891 -0.1610  0.0642 -0.0965
  618ERGO    R1 9322   5.974   8.291   9.699 -0.2769 -0.1256 -0.1819
  618ERGO    R2 9323   6.106   8.490   9.560 -0.4826  0.0861 -0.0690
  618ERGO    R3 9324   6.009   8.358   9.343 -0.1214 -0.0526 -0.1558
  618ERGO    R4 9325   6.128   8.602   9.234 -0.3663  0.1369 -0.0449
  618ERGO    R5 9326   5.925   8.531   9.200 -0.2520 -0.1547 -0.2155
  618ERGO    C1 9327   6.050   8.544   8.840  0.0406  0.0362 -0.1123
  618ERGO    C2 9328   6.007   8.665   8.573 -0.0980 -0.2398 -0.0187
  619ERGO   ROH 9329   7.283   9.132  10.350 -0.1217 -0.0764 -0.1914
  619ERGO    R1 9330   7.305   9.075  10.073 -0.0167 -0.1542 -0.1669
  619ERGO    R2 9331   7.420   8.842   9.979 -0.1035 -0.2429 -0.0535
  619ERGO    R3 9332   7.184   8.818   9.846 -0.0523 -0.1379 -0.1669
  619ERGO    R4 9333   7.357   8.614   9.727 -0.1537 -0.3686  0.0711
  619ERGO    R5 9334   7.247   8.769   9.620  0.0335 -0.3486 -0.0996
  619ERGO    C1 9335   7.099   8.458   9.456 -0.1348 -0.3432  0.0372
  619ERGO    C2 9336   7.002   8.302   9.163 -0.2046 -0.1249 -0.2035
  620ERGO   ROH 9337  10.180   4.430  10.118 -0.2188 -0.0729  0.1155
  620ERGO    R1 9338  10.222   4.581   9.883 -0.2319 -0.0129  0.1525
  620ERGO    R2 9339  10.337   4.474   9.655 -0.1425  0.0764  0.1598
  620ERGO    R3 9340  10.111   4.568   9.537 -0.1543  0.0076  0.1254
  620ERGO    R4 9341  10.319   4.597   9.333 -0.1596 -0.0857  0.0974
  620ERGO    R5 9342  10.185   4.753   9.404 -0.1651 -0.0525  0.0288
  620ERGO    C1 9343  10.096   4.756   9.034 -0.1808 -0.2447  0.0288
  620ERGO    C2 9344  10.111   4.736   8.683  0.1604 -0.0542 -0.1134
  621ERGO   ROH 9345  13.064   5.611  10.528  0.3079  0.0316 -0.1187
  621ERGO    R1 9346  13.022   5.574  10.250  0.2651  0.0479 -0.1133
  621ERGO    R2 9347  12.843   5.727  10.105  0.1948  0.0075 -0.0598
  621ERGO    R3 9348  13.060   5.773   9.948  0.1470  0.0882 -0.1041
  621ERGO    R4 9349  12.834   5.757   9.761  0.0900  0.0917 -0.0509
  621ERGO    R5 9350  13.019   5.642   9.751  0.1144  0.1254 -0.1278
  621ERGO    C1 9351  13.032   5.818   9.413 -0.0159  0.2164 -0.0874
  621ERGO    C2 9352  13.008   5.685   9.095 -0.1165  0.0631  0.0537
  622ERGO   ROH 9353  14.137   8.309  10.638  0.0322 -0.1785  0.1417
  622ERGO    R1 9354  14.104   8.149  10.406 -0.1630 -0.0188  0.0565
  622ERGO    R2 9355  13.868   8.141  10.263 -0.1215  0.4832 -0.0547
  622ERGO    R3 9356  14.030   8.205  10.055  0.0944  0.2786  0.0442
  622ERGO    R4 9357  13.776   8.127   9.930  0.0951  0.5145 -0.1181
  622ERGO    R5 9358  13.973   8.046   9.884  0.0496  0.3015  0.0355
  622ERGO    C1 9359  13.874   8.179   9.541  0.4238  0.3408 -0.0623
  622ERGO    C2 9360  13.903   8.167   9.154  0.2070 -0.0086 -0.4518
  623ERGO   ROH 9361   9.735  11.641  10.255 -0.2037 -0.1889  0.0801
  623ERGO    R1 9362   9.821  11.575   9.994 -0.1262 -0.1305  0.0907
  623ERGO    R2 9363   9.669  11.421   9.821 -0.1146 -0.0169 -0.0201
  623ERGO    R3 9364   9.704  11.633   9.654  0.0264  0.0273  0.0630
  623ERGO    R4 9365   9.701  11.399   9.478 -0.2258  0.0998 -0.0389
  623ERGO    R5 9366   9.855  11.553   9.487 -0.0861 -0.0365 -0.0113
  623ERGO    C1 9367   9.752  11.584   9.121 -0.1579  0.2093  0.0282
  623ERGO    C2 9368   9.868  11.708   8.826 -0.2487  0.0936  0.2206
  624ERGO   ROH 9369   2.243  12.030  10.320 -0.2968  0.0143  0.0555
  624ERGO    R1 9370   2.365  11.982  10.069 -0.1957  0.1413  0.0795
  624ERGO    R2 9371   2.333  11.745   9.931  0.1140  0.0903  0.0922
  624ERGO    R3 9372   2.252  11.909   9.730 -0.0524 -0.0212  0.0653
  624ERGO    R4 9373   2.363  11.675   9.594  0.0750  0.0126  0.1044
  624ERGO    R5 9374   2.419  11.883   9.561 -0.0760  0.0444  0.0299
  624ERGO    C1 9375   2.305  11.789   9.209 -0.1039 -0.1375  0.0863
  624ERGO    C2 9376   2.204  11.624   8.910 -0.0518  0.1607  0.1283
  625ERGO   ROH 9377   9.649   6.638  10.248  0.0180 -0.2158 -0.1099
  625ERGO    R1 9378   9.784   6.689  10.004  0.1231 -0.3317 -0.0766
  625ERGO    R2 9379   9.827   6.493   9.814 -0.2902 -0.3024 -0.2070
  625ERGO    R3 9380   9.705   6.671   9.649  0.0738  0.0713 -0.0919
  625ERGO    R4 9381   9.870   6.506   9.472 -0.4083 -0.3081 -0.2224
  625ERGO    R5 9382   9.871   6.724   9.485  0.1475 -0.2961 -0.1489
  625ERGO    C1 9383   9.780   6.681   9.117 -0.1354  0.0395 -0.1234
  625ERGO    C2 9384   9.855   6.669   8.901  0.2444 -0.4248  0.1403
  626ERGO   ROH 9385   6.395   6.538  10.319 -0.2488  0.1963 -0.0941
  626ERGO    R1 9386   6.301   6.525  10.052 -0.1555 -0.0946 -0.1164
  626ERGO    R2 9387   6.346   6.727   9.869 -0.5000 -0.0718 -0.1803
  626ERGO    R3 9388   6.448   6.524   9.719 -0.0584  0.0624 -0.0759
  626ERGO    R4 9389   6.367   6.726   9.524 -0.6297 -0.2487 -0.1893
  626ERGO    R5 9390   6.308   6.516   9.525 -0.1251 -0.4060 -0.0239
  626ERGO    C1 9391   6.475   6.535   9.183 -0.2906 -0.2257 -0.0965
  626ERGO    C2 9392   6.439   6.595   8.902 -0.1233  0.0565  0.2812
  627ERGO   ROH 9393  12.503   2.831  10.239 -0.1949  0.0699 -0.0064
  627ERGO    R1 9394  12.606   2.743   9.991 -0.2508 -0.1412  0.0437
  627ERGO    R2 9395  12.445   2.698   9.771 -0.2436  0.1875 -0.0273
  627ERGO    R3 9396  12.617   2.870   9.650  0.1727 -0.1576  0.0441
  627ERGO    R4 9397  12.517   2.699   9.433 -0.3557  0.2298 -0.0523
  627ERGO    R5 9398  12.726   2.738   9.483 -0.2199 -0.3411 -0.0862
  627ERGO    C1 9399  12.720   2.862   9.122 -0.0300 -0.0695  0.0002
  627ERGO    C2 9400  12.843   2.781   8.831 -0.1384 -0.5222 -0.1581
  628ERGO   ROH 9401   3.467   8.585  10.411  0.2159 -0.0890  0.0504
  628ERGO    R1 9402   3.397   8.508  10.148  0.3224 -0.1782  0.0495
  628ERGO    R2 9403   3.239   8.664   9.985  0.0328 -0.4329  0.0932
  628ERGO    R3 9404   3.448   8.638   9.812  0.0599 -0.0465  0.0554
  628ERGO    R4 9405   3.213   8.684   9.641 -0.1452 -0.7654  0.0823
  628ERGO    R5 9406   3.355   8.518   9.626  0.2821 -0.4397  0.1755
  628ERGO    C1 9407   3.393   8.670   9.278 -0.2234 -0.5963  0.0405
  628ERGO    C2 9408   3.278   8.649   8.922  0.2293  0.0900 -0.4117
  629ERGO   ROH 9409   8.643   3.974  10.125 -0.0541  0.1325  0.1724
  629ERGO    R1 9410   8.406   3.959   9.971 -0.0497  0.1948  0.1590
  629ERGO    R2 9411   8.207   4.150   9.983  0.0396  0.2952  0.0809
  629ERGO    R3 9412   8.245   4.160   9.714  0.0672  0.1890  0.0805
  629ERGO    R4 9413   7.954   4.175   9.749  0.0610  0.1309  0.0391
  629ERGO    R5 9414   8.063   4.033   9.624  0.1103  0.1049  0.1127
  629ERGO    C1 9415   7.842   4.199   9.360  0.0993 -0.0644  0.0144
  629ERGO    C2 9416   7.750   4.309   9.047  0.1744 -0.1076  0.0392
  630ERGO   ROH 9417   2.539  14.811  10.100  0.2130 -0.1531 -0.1565
  630ERGO    R1 9418   2.645  14.675   9.876  0.1266 -0.1101 -0.2241
  630ERGO    R2 9419   2.486  14.579   9.671  0.0566  0.0213 -0.2349
  630ERGO    R3 9420   2.653  14.727   9.515  0.0843  0.0191 -0.2067
  630ERGO    R4 9421   2.523  14.541   9.330  0.1916 -0.0474 -0.2128
  630ERGO    R5 9422   2.738  14.571   9.355  0.1754  0.0010 -0.1405
  630ERGO    C1 9423   2.702  14.657   8.985  0.2961 -0.0896 -0.1734
  630ERGO    C2 9424   2.769  14.703   8.701  0.0693  0.1135  0.0298
  631ERGO   ROH 9425   4.886   8.070  10.406 -0.0802 -0.0379  0.0781
  631ERGO    R1 9426   4.707   8.128  10.194 -0.0351  0.0172  0.0549
  631ERGO    R2 9427   4.775   8.290   9.981  0.0511 -0.0233  0.0523
  631ERGO    R3 9428   4.698   8.075   9.834 -0.0163 -0.0031  0.0571
  631ERGO    R4 9429   4.741   8.289   9.637  0.1900 -0.0590  0.0378
  631ERGO    R5 9430   4.561   8.168   9.661  0.1078  0.0504 -0.0145
  631ERGO    C1 9431   4.649   8.086   9.299  0.2077 -0.0607  0.0340
  631ERGO    C2 9432   4.482   8.162   8.952 -0.0662 -0.0675  0.2281
  632ERGO   ROH 9433   3.834   5.270  10.358  0.0392 -0.0336 -0.1721
  632ERGO    R1 9434   3.758   5.383  10.110 -0.1144 -0.0670 -0.1425
  632ERGO    R2 9435   3.937   5.515   9.946 -0.2777  0.1752 -0.1354
  632ERGO    R3 9436   3.849   5.337   9.761 -0.0918  0.1077 -0.1599
  632ERGO    R4 9437   3.964   5.555   9.604 -0.3976  0.2948 -0.1309
  632ERGO    R5 9438   3.764   5.472   9.583 -0.2998  0.0467 -0.1088
  632ERGO    C1 9439   3.897   5.410   9.231 -0.2930  0.3011 -0.1514
  632ERGO    C2 9440   3.932   5.457   8.807  0.2067  0.0097  0.0280
  633ERGO   ROH 9441   3.998   4.848  10.248  0.1054 -0.3282  0.0325
  633ERGO    R1 9442   3.970   4.958   9.989  0.1426 -0.0506  0.1437
  633ERGO    R2 9443   4.184   5.061   9.847  0.2208 -0.2117  0.1528
  633ERGO    R3 9444   4.099   4.887   9.656 -0.0971  0.0785  0.0186
  633ERGO    R4 9445   4.201   5.117   9.506  0.3590  0.0142  0.1948
  633ERGO    R5 9446   4.004   5.027   9.486  0.1762  0.3947  0.1090
  633ERGO    C1 9447   4.131   4.987   9.129  0.1411  0.4182  0.0931
  633ERGO    C2 9448   4.207   4.974   8.893  0.1049 -0.2502  0.0806
  634ERGO   ROH 9449   1.218  17.479   9.678  0.0530 -0.1841  0.0647
  634ERGO    R1 9450   1.114  17.532   9.421 -0.0584 -0.0941  0.1271
  634ERGO    R2 9451   1.267  17.512   9.191 -0.1215  0.1108  0.0632
  634ERGO    R3 9452   1.067  17.346   9.111 -0.0630  0.0516  0.0402
  634ERGO    R4 9453   1.203  17.421   8.864 -0.2537  0.3409  0.0226
  634ERGO    R5 9454   0.990  17.439   8.905 -0.2409  0.1746  0.1605
  634ERGO    C1 9455   0.979  17.212   8.598 -0.2758  0.4194 -0.0226
  634ERGO    C2 9456   0.972  17.043   8.188  0.2123 -0.1661  0.0945
  635ERGO   ROH 9457   3.405   6.547  10.327  0.2246  0.2439 -0.0421
  635ERGO    R1 9458   3.556   6.490  10.095  0.2117  0.0168  0.0030
  635ERGO    R2 9459   3.482   6.295   9.914  0.0796 -0.0093  0.0792
  635ERGO    R3 9460   3.502   6.499   9.735  0.2661 -0.1024 -0.0078
  635ERGO    R4 9461   3.431   6.264   9.573 -0.2341 -0.0500  0.1273
  635ERGO    R5 9462   3.600   6.398   9.541 -0.0431 -0.3291 -0.0516
  635ERGO    C1 9463   3.420   6.437   9.207 -0.2417 -0.1610  0.0737
  635ERGO    C2 9464   3.469   6.406   8.804  0.1911  0.0932  0.0762
  636ERGO   ROH 9465   7.875   5.681  10.227  0.1095  0.2748 -0.0052
  636ERGO    R1 9466   8.016   5.667   9.982  0.2783  0.5959  0.0663
  636ERGO    R2 9467   7.938   5.502   9.774  1.0043  0.0395  0.1823
  636ERGO    R3 9468   7.944   5.734   9.632  0.1192 -0.0330 -0.0293
  636ERGO    R4 9469   7.989   5.523   9.433  0.7525 -0.0519  0.1377
  636ERGO    R5 9470   8.115   5.698   9.467  0.1690  0.4311 -0.0809
  636ERGO    C1 9471   8.025   5.752   9.101 -0.2251 -0.1732 -0.0869
  636ERGO    C2 9472   7.909   5.665   8.798  0.1101 -0.0678 -0.0667
  637ERGO   ROH 9473   8.163   2.817  10.225  0.1524 -0.0466  0.1044
  637ERGO    R1 9474   8.288   2.961  10.016 -0.0279  0.1558  0.1328
  637ERGO    R2 9475   8.361   2.843   9.777  0.3208  0.2389  0.1947
  637ERGO    R3 9476   8.212   3.044   9.670 -0.0292 -0.0723  0.0761
  637ERGO    R4 9477   8.368   2.940   9.445  0.4395  0.2898  0.2116
  637ERGO    R5 9478   8.357   3.148   9.510 -0.0884  0.2713  0.2329
  637ERGO    C1 9479   8.233   3.185   9.152  0.1802  0.0272  0.1101
  637ERGO    C2 9480   8.127   3.343   8.839 -0.2454 -0.1697 -0.0069
  638ERGO   ROH 9481   5.827  13.134  10.312  0.2436 -0.0414  0.0461
  638ERGO    R1 9482   5.816  13.032  10.048 -0.0293  0.0643  0.0112
  638ERGO    R2 9483   5.729  13.183   9.833  0.0522  0.2591  0.1068
  638ERGO    R3 9484   5.969  13.111   9.728 -0.0914 -0.0182 -0.0386
  638ERGO    R4 9485   5.826  13.239   9.506 -0.0205  0.2992  0.0940
  638ERGO    R5 9486   5.918  13.042   9.505 -0.2917  0.1702 -0.0530
  638ERGO    C1 9487   6.107  13.205   9.217 -0.1977  0.0623 -0.0501
  638ERGO    C2 9488   6.154  13.333   8.918  0.1280 -0.2644  0.0978
  639ERGO   ROH 9489   7.122   2.591  10.220  0.1232  0.0699 -0.0331
  639ERGO    R1 9490   7.252   2.730  10.010  0.0309  0.0404 -0.1111
  639ERGO    R2 9491   7.435   2.610   9.842 -0.0560  0.0114 -0.1884
  639ERGO    R3 9492   7.270   2.704   9.648 -0.1457 -0.0001 -0.1179
  639ERGO    R4 9493   7.519   2.643   9.508 -0.2204 -0.0321 -0.2347
  639ERGO    R5 9494   7.413   2.832   9.505 -0.2091 -0.0265 -0.2036
  639ERGO    C1 9495   7.413   2.751   9.132 -0.4003 -0.0683 -0.1955
  639ERGO    C2 9496   7.340   2.967   8.875 -0.0480 -0.1875  0.1070
  640ERGO   ROH 9497   5.949  13.569  10.375  0.1276  0.0149 -0.0786
  640ERGO    R1 9498   5.999  13.478  10.112  0.0126  0.1307 -0.1400
  640ERGO    R2 9499   5.965  13.640   9.890  0.2335  0.3347 -0.0239
  640ERGO    R3 9500   6.223  13.570   9.839  0.1457  0.0220 -0.0709
  640ERGO    R4 9501   6.108  13.630   9.576  0.2225  0.4000 -0.0323
  640ERGO    R5 9502   6.212  13.447   9.634 -0.0245  0.2014 -0.1775
  640ERGO    C1 9503   6.434  13.559   9.345  0.1338  0.1443 -0.0814
  640ERGO    C2 9504   6.613  13.381   9.072 -0.2048 -0.2836 -0.0642
  641ERGO   ROH 9505  11.561   4.304  10.255  0.2299 -0.0946 -0.0989
  641ERGO    R1 9506  11.532   4.465  10.024  0.1603 -0.0530 -0.0607
  641ERGO    R2 9507  11.656   4.405   9.784  0.0355 -0.0443 -0.1234
  641ERGO    R3 9508  11.403   4.422   9.686 -0.0049  0.0304 -0.0097
  641ERGO    R4 9509  11.575   4.449   9.451 -0.1002 -0.1609 -0.1083
  641ERGO    R5 9510  11.417   4.586   9.512 -0.0075 -0.0549 -0.0941
  641ERGO    C1 9511  11.291   4.492   9.165 -0.2173 -0.1587  0.0074
  641ERGO    C2 9512  11.335   4.522   8.893 -0.1078 -0.2695  0.0247
  642ERGO   ROH 9513   0.126   1.890  10.014  0.0414 -0.1808 -0.0383
  642ERGO    R1 9514   0.167   1.977   9.748 -0.0237 -0.0350 -0.0026
  642ERGO    R2 9515   0.308   1.827   9.563  0.0983  0.1512 -0.0675
  642ERGO    R3 9516   0.082   1.858   9.415  0.0727  0.0357 -0.0523
  642ERGO    R4 9517   0.301   1.887   9.223  0.0418  0.1606 -0.0641
  642ERGO    R5 9518   0.138   2.027   9.255 -0.0303  0.0706 -0.0493
  642ERGO    C1 9519   0.085   1.951   8.886 -0.0151  0.0577 -0.0478
  642ERGO    C2 9520   0.134   1.831   8.532 -0.1834 -0.1070 -0.4131
  643ERGO   ROH 9521   7.148   7.588  10.329 -0.1698  0.1745 -0.2151
  643ERGO    R1 9522   7.236   7.520  10.068 -0.0907  0.1436 -0.1815
  643ERGO    R2 9523   7.138   7.301   9.930  0.2002 -0.0773 -0.0532
  643ERGO    R3 9524   7.085   7.486   9.739 -0.0686 -0.2554 -0.1544
  643ERGO    R4 9525   7.162   7.246   9.590  0.4367 -0.1821 -0.0212
  643ERGO    R5 9526   7.248   7.445   9.569  0.0784 -0.0281 -0.0705
  643ERGO    C1 9527   7.125   7.387   9.212  0.3220 -0.4102 -0.0975
  643ERGO    C2 9528   7.096   7.249   8.896  0.0722 -0.0290 -0.2252
  644ERGO   ROH 9529  10.926   3.130  10.345 -0.0703  0.0293  0.0587
  644ERGO    R1 9530  10.931   3.027  10.082 -0.0335 -0.0875  0.1056
  644ERGO    R2 9531  10.775   3.131   9.879 -0.0113 -0.1881  0.0457
  644ERGO    R3 9532  11.014   3.152   9.750 -0.0007 -0.2345  0.0551
  644ERGO    R4 9533  10.813   3.173   9.538 -0.0094 -0.0224  0.0648
  644ERGO    R5 9534  10.981   3.034   9.544 -0.0698 -0.1135 -0.0109
  644ERGO    C1 9535  11.059   3.217   9.219  0.0018  0.0305  0.0847
  644ERGO    C2 9536  11.028   3.195   8.891 -0.0044  0.1300  0.0899
  645ERGO   ROH 9537  16.917  12.961  10.080  0.0375  0.0446 -0.0457
  645ERGO    R1 9538  16.988  12.865   9.823  0.0540  0.0012 -0.0255
  645ERGO    R2 9539  16.905  12.619   9.728  0.0185  0.0037 -0.0098
  645ERGO    R3 9540  16.812  12.768   9.520  0.0747  0.0011 -0.0363
  645ERGO    R4 9541  16.826  12.494   9.415 -0.1144 -0.0317  0.0375
  645ERGO    R5 9542  16.917  12.671   9.327 -0.0208 -0.1155 -0.0276
  645ERGO    C1 9543  16.694  12.560   9.038 -0.1390 -0.0548  0.0401
  645ERGO    C2 9544  16.721  12.392   8.737 -0.0170 -0.0586 -0.0495
  646ERGO   ROH 9545   6.387  16.069   9.608  0.0177  0.0575 -0.0233
  646ERGO    R1 9546   6.372  16.183   9.350 -0.0433  0.0764 -0.0109
  646ERGO    R2 9547   6.421  16.038   9.120 -0.0356  0.1107 -0.0264
  646ERGO    R3 9548   6.175  16.130   9.048 -0.0667  0.0553  0.0063
  646ERGO    R4 9549   6.309  16.072   8.794  0.0102  0.3038 -0.0236
  646ERGO    R5 9550   6.215  16.260   8.851 -0.0857  0.2250  0.1071
  646ERGO    C1 9551   6.014  16.178   8.538  0.0076  0.3645  0.0088
  646ERGO    C2 9552   6.018  16.178   8.157  0.0379 -0.0525  0.0480
  647ERGO   ROH 9553  16.838   7.196  10.316 -0.1654 -0.2165 -0.1163
  647ERGO    R1 9554  16.666   7.129  10.101 -0.1123 -0.2890 -0.1359
  647ERGO    R2 9555  16.632   7.291   9.880 -0.2260 -0.2588 -0.0953
  647ERGO    R3 9556  16.701   7.066   9.744 -0.0599 -0.1768 -0.1511
  647ERGO    R4 9557  16.590   7.245   9.541  0.0134 -0.1238 -0.1465
  647ERGO    R5 9558  16.527   7.040   9.581  0.0546 -0.1642 -0.2777
  647ERGO    C1 9559  16.629   7.007   9.215  0.3086  0.0318 -0.2287
  647ERGO    C2 9560  16.493   6.883   8.916 -0.0807 -0.1257 -0.1746
  648ERGO   ROH 9561   9.233   5.292  10.298 -0.0786 -0.3006  0.0830
  648ERGO    R1 9562   9.235   5.196  10.032 -0.0948 -0.1735  0.0359
  648ERGO    R2 9563   9.014   5.211   9.866 -0.0691  0.0160  0.0146
  648ERGO    R3 9564   9.189   5.337   9.699  0.0140  0.0115  0.0979
  648ERGO    R4 9565   8.965   5.259   9.527  0.0666  0.0782  0.0031
  648ERGO    R5 9566   9.176   5.213   9.495  0.0692  0.0472  0.0740
  648ERGO    C1 9567   9.100   5.404   9.174  0.2236  0.1101  0.0747
  648ERGO    C2 9568   8.950   5.451   8.877  0.0987  0.0806  0.0947
  649ERGO   ROH 9569   8.353  15.372  10.015  0.0869  0.1875 -0.0094
  649ERGO    R1 9570   8.423  15.412   9.743  0.0376  0.1620 -0.0258
  649ERGO    R2 9571   8.684  15.416   9.656  0.0244  0.2069 -0.0656
  649ERGO    R3 9572   8.596  15.224   9.485  0.0407  0.1613 -0.0229
  649ERGO    R4 9573   8.800  15.371   9.333  0.2348 -0.0393  0.0407
  649ERGO    R5 9574   8.595  15.331   9.271  0.2574  0.0430 -0.0860
  649ERGO    C1 9575   8.785  15.164   8.985  0.3727 -0.2254  0.1426
  649ERGO    C2 9576   8.745  15.124   8.546 -0.0211 -0.1667 -0.1759
  650ERGO   ROH 9577   2.358   5.640  10.048  0.3746  0.1445  0.1203
  650ERGO    R1 9578   2.295   5.529   9.796  0.2980  0.1413  0.1406
  650ERGO    R2 9579   2.165   5.673   9.598  0.1804  0.1207  0.1987
  650ERGO    R3 9580   2.379   5.598   9.448  0.1400  0.1805  0.1105
  650ERGO    R4 9581   2.163   5.638   9.254 -0.0266 -0.1721  0.2252
  650ERGO    R5 9582   2.286   5.460   9.277  0.1415 -0.0456  0.2910
  650ERGO    C1 9583   2.363   5.548   8.913 -0.1851 -0.2864  0.1579
  650ERGO    C2 9584   2.345   5.731   8.615  0.2833  0.2233  0.0177
  651ERGO   ROH 9585  15.089   8.915  10.644  0.0899  0.0367  0.1256
  651ERGO    R1 9586  15.189   8.989  10.390  0.0409  0.0782  0.1168
  651ERGO    R2 9587  15.306   8.807  10.218  0.2036  0.1423  0.1489
  651ERGO    R3 9588  15.120   8.901  10.043  0.1266 -0.0413  0.1311
  651ERGO    R4 9589  15.314   8.757   9.876  0.2997  0.1885  0.1451
  651ERGO    R5 9590  15.247   8.964   9.850  0.0817  0.1155  0.1562
  651ERGO    C1 9591  15.145   8.817   9.513  0.2834  0.0430  0.1261
  651ERGO    C2 9592  15.077   8.860   9.219  0.1574 -0.2240  0.0445
  652ERGO   ROH 9593  12.208   1.232   9.976  0.0446  0.0978  0.0831
  652ERGO    R1 9594  12.392   1.206   9.762 -0.0157  0.0405  0.0372
  652ERGO    R2 9595  12.316   1.127   9.508 -0.1081  0.0893  0.0470
  652ERGO    R3 9596  12.440   1.358   9.435 -0.0347  0.0470  0.0383
  652ERGO    R4 9597  12.471   1.181   9.204  0.0580 -0.0229  0.1105
  652ERGO    R5 9598  12.630   1.286   9.309  0.0186 -0.0174  0.1579
  652ERGO    C1 9599  12.677   1.429   8.958  0.2238 -0.1280  0.1392
  652ERGO    C2 9600  12.745   1.446   8.648 -0.2403  0.3149 -0.1841
  653ERGO   ROH 9601  10.210  13.821  10.001 -0.1003  0.1347 -0.1661
  653ERGO    R1 9602  10.318  13.997   9.807  0.1276  0.0381 -0.1305
  653ERGO    R2 9603  10.573  13.968   9.705  0.0763 -0.3014 -0.1735
  653ERGO    R3 9604  10.443  13.970   9.467  0.0431 -0.0465 -0.1553
  653ERGO    R4 9605  10.727  13.986   9.396  0.0409 -0.1135 -0.1812
  653ERGO    R5 9606  10.569  14.122   9.331  0.0908  0.0110 -0.0478
  653ERGO    C1 9607  10.694  13.999   8.992 -0.0109  0.2352 -0.1684
  653ERGO    C2 9608  10.768  14.074   8.649  0.0284 -0.0322 -0.0030
  654ERGO   ROH 9609   4.095   2.559  10.314  0.1720  0.1169  0.0600
  654ERGO    R1 9610   4.245   2.645  10.091  0.1838  0.0273  0.0328
  654ERGO    R2 9611   4.296   2.482   9.873  0.1152 -0.0297  0.0578
  654ERGO    R3 9612   4.188   2.690   9.734  0.1710 -0.0197  0.0294
  654ERGO    R4 9613   4.341   2.539   9.535 -0.0059 -0.1801  0.0152
  654ERGO    R5 9614   4.358   2.752   9.578  0.1354 -0.1742 -0.0718
  654ERGO    C1 9615   4.266   2.767   9.208 -0.0240 -0.2582 -0.0363
  654ERGO    C2 9616   4.498   2.933   8.851 -0.4982  0.0857 -0.1383
  655ERGO   ROH 9617  15.552   4.938  10.439 -0.0014  0.1600 -0.0217
  655ERGO    R1 9618  15.505   4.899  10.163  0.0446  0.0805 -0.0193
  655ERGO    R2 9619  15.456   4.650  10.053  0.0297  0.0512  0.0476
  655ERGO    R3 9620  15.234   4.773   9.956  0.0652  0.0539 -0.0287
  655ERGO    R4 9621  15.285   4.552   9.769  0.0134 -0.0601  0.0957
  655ERGO    R5 9622  15.260   4.763   9.718  0.0693 -0.0838 -0.0214
  655ERGO    C1 9623  14.978   4.611   9.512  0.0371 -0.1224  0.0521
  655ERGO    C2 9624  14.786   4.581   9.306 -0.3972  0.2579  0.0010
  656ERGO   ROH 9625   1.332  14.933   9.748 -0.0321 -0.3169  0.0788
  656ERGO    R1 9626   1.305  14.753   9.531 -0.1189 -0.2516  0.0341
  656ERGO    R2 9627   1.085  14.753   9.365 -0.1093 -0.0874  0.0156
  656ERGO    R3 9628   1.272  14.778   9.170 -0.0787 -0.1463  0.0379
  656ERGO    R4 9629   1.016  14.762   9.027 -0.0610 -0.0873  0.0062
  656ERGO    R5 9630   1.192  14.638   8.993 -0.0906 -0.1333  0.0352
  656ERGO    C1 9631   1.152  14.791   8.646 -0.0041 -0.1426  0.0218
  656ERGO    C2 9632   0.969  14.799   8.348  0.0359 -0.1746  0.1110
  657ERGO   ROH 9633   1.317   5.526  10.055  0.3294 -0.0346  0.0092
  657ERGO    R1 9634   1.192   5.518   9.801  0.1912 -0.1099  0.0792
  657ERGO    R2 9635   1.219   5.721   9.616 -0.0130 -0.1075  0.0543
  657ERGO    R3 9636   1.299   5.518   9.453 -0.0042 -0.0750  0.0167
  657ERGO    R4 9637   1.215   5.731   9.270  0.1733  0.0372  0.0541
  657ERGO    R5 9638   1.145   5.525   9.270  0.0919  0.0599 -0.0646
  657ERGO    C1 9639   1.287   5.547   8.917  0.2901  0.1520  0.0187
  657ERGO    C2 9640   1.351   5.521   8.605  0.0297  0.0590  0.2591
  658ERGO   ROH 9641   2.247  16.635   9.935 -0.1684  0.1560 -0.1338
  658ERGO    R1 9642   2.414  16.650   9.707 -0.1322  0.4046 -0.0940
  658ERGO    R2 9643   2.374  16.493   9.483  0.3078  0.1451 -0.0010
  658ERGO    R3 9644   2.373  16.733   9.355 -0.2385  0.0702 -0.1647
  658ERGO    R4 9645   2.458  16.540   9.151  0.3471  0.1206  0.0055
  658ERGO    R5 9646   2.562  16.722   9.208 -0.1309  0.4383 -0.0659
  658ERGO    C1 9647   2.506  16.792   8.837 -0.1428  0.0362 -0.1443
  658ERGO    C2 9648   2.646  16.822   8.545  0.0155  0.1471  0.0919
  659ERGO   ROH 9649   8.378  11.320  10.316  0.0589 -0.2354  0.0110
  659ERGO    R1 9650   8.456  11.407  10.057 -0.1128 -0.1780 -0.0226
  659ERGO    R2 9651   8.701  11.341   9.946 -0.1128 -0.0019 -0.1262
  659ERGO    R3 9652   8.546  11.249   9.742 -0.1334 -0.1122 -0.0621
  659ERGO    R4 9653   8.790  11.344   9.612 -0.1173 -0.2391 -0.1318
  659ERGO    R5 9654   8.586  11.402   9.563 -0.1100 -0.2365 -0.1658
  659ERGO    C1 9655   8.697  11.260   9.227 -0.1391 -0.4806 -0.0749
  659ERGO    C2 9656   8.809  11.320   8.829 -0.0674 -0.3840  0.0440
  660ERGO   ROH 9657   8.052   1.151   9.965 -0.0166  0.2063  0.0090
  660ERGO    R1 9658   8.165   1.202   9.710  0.0316  0.0414 -0.0041
  660ERGO    R2 9659   8.361   1.042   9.599 -0.0334 -0.1017  0.0831
  660ERGO    R3 9660   8.186   1.028   9.391 -0.0214 -0.1097  0.0738
  660ERGO    R4 9661   8.450   1.029   9.265 -0.0163 -0.1119  0.0881
  660ERGO    R5 9662   8.285   1.164   9.220 -0.0140 -0.1152  0.0746
  660ERGO    C1 9663   8.338   1.009   8.876  0.0047 -0.1254  0.0822
  660ERGO    C2 9664   8.431   0.887   8.560  0.2479 -0.1060 -0.0824
  661ERGO   ROH 9665  17.640   7.999  10.116 -0.0246  0.0416  0.0662
  661ERGO    R1 9666  17.563   7.834   9.899 -0.1229 -0.0086  0.1384
  661ERGO    R2 9667  17.319   7.859   9.772 -0.0152  0.2442 -0.0264
  661ERGO    R3 9668  17.474   7.881   9.549  0.1566 -0.1298  0.0480
  661ERGO    R4 9669  17.200   7.853   9.447  0.1624  0.2651 -0.0934
  661ERGO    R5 9670  17.373   7.732   9.392  0.0015 -0.0526  0.0723
  661ERGO    C1 9671  17.276   7.871   9.050  0.4274 -0.0736 -0.0625
  661ERGO    C2 9672  17.287   7.940   8.750  0.1202  0.1513 -0.0556
  662ERGO   ROH 9673  17.279   0.168   9.741  0.0125 -0.3280  0.0897
  662ERGO    R1 9674  17.459   0.237   9.534 -0.1169 -0.1414  0.0366
  662ERGO    R2 9675  17.683   0.086   9.476  0.0944  0.1582  0.0578
  662ERGO    R3 9676  17.578   0.084   9.226  0.0546 -0.0848  0.0735
  662ERGO    R4 9677  17.868   0.097   9.184  0.0381  0.2429  0.0244
  662ERGO    R5 9678  17.719   0.232   9.101 -0.1398  0.0285 -0.0175
  662ERGO    C1 9679  17.877   0.101   8.779 -0.0324  0.0640  0.0195
  662ERGO    C2 9680  18.101   0.175   8.520 -0.1466  0.2352  0.0359
  663ERGO   ROH 9681   9.486  13.215  10.113 -0.0371 -0.0305 -0.1928
  663ERGO    R1 9682   9.464  13.257   9.834 -0.0605 -0.1350 -0.2069
  663ERGO    R2 9683   9.684  13.293   9.670 -0.0858  0.0871 -0.1929
  663ERGO    R3 9684   9.574  13.087   9.531  0.1774 -0.0879 -0.1493
  663ERGO    R4 9685   9.794  13.183   9.362 -0.0757  0.3132 -0.2721
  663ERGO    R5 9686   9.586  13.158   9.302 -0.0772 -0.0341 -0.1504
  663ERGO    C1 9687   9.755  12.925   9.052  0.1772  0.2806 -0.2772
  663ERGO    C2 9688   9.868  12.969   8.747  0.0856 -0.1751  0.0897
  664ERGO   ROH 9689  13.170  15.065   9.795 -0.0781 -0.2333  0.1330
  664ERGO    R1 9690  13.286  15.114   9.541 -0.2144  0.0353  0.1179
  664ERGO    R2 9691  13.472  14.944   9.428  0.1724  0.4499  0.0939
  664ERGO    R3 9692  13.298  14.946   9.219  0.1313  0.0520  0.1189
  664ERGO    R4 9693  13.563  14.916   9.095  0.1888  0.6483  0.0815
  664ERGO    R5 9694  13.412  15.067   9.047 -0.1655  0.3130  0.0995
  664ERGO    C1 9695  13.452  14.902   8.706  0.1600  0.3905  0.0977
  664ERGO    C2 9696  13.504  14.884   8.447 -0.1288 -0.3159 -0.0177
  665ERGO   ROH 9697  10.893   6.243  10.046  0.0080  0.3240  0.0386
  665ERGO    R1 9698  10.833   6.221   9.770  0.0716  0.2150  0.0319
  665ERGO    R2 9699  10.619   6.351   9.654 -0.0406 -0.0103 -0.0283
  665ERGO    R3 9700  10.810   6.447   9.486 -0.1023  0.1440 -0.0102
  665ERGO    R4 9701  10.606   6.333   9.309  0.1523 -0.2977 -0.0228
  665ERGO    R5 9702  10.819   6.287   9.308  0.2227  0.0183  0.1165
  665ERGO    C1 9703  10.777   6.412   8.950  0.2068 -0.3201 -0.0027
  665ERGO    C2 9704  10.771   6.431   8.564 -0.0406 -0.1256 -0.1316
  666ERGO   ROH 9705  10.113  10.017  10.395  0.1953  0.1026  0.0732
  666ERGO    R1 9706  10.043   9.952  10.129  0.0363  0.1563  0.1026
  666ERGO    R2 9707  10.049  10.137   9.925  0.3739  0.0850  0.0503
  666ERGO    R3 9708  10.207   9.951   9.804  0.0016 -0.2662  0.0787
  666ERGO    R4 9709  10.068  10.086   9.583  0.6291  0.3593  0.0180
  666ERGO    R5 9710  10.075   9.871   9.621 -0.0303  0.2789 -0.1620
  666ERGO    C1 9711  10.227   9.882   9.271  0.4283  0.1894  0.0257
  666ERGO    C2 9712  10.291   9.793   8.907  0.1084 -0.2852 -0.1270
  667ERGO   ROH 9713   5.837  10.228   8.754 -0.1858  0.0174  0.0064
  667ERGO    R1 9714   5.917  10.137   8.498 -0.0366  0.1872 -0.0091
  667ERGO    R2 9715   5.771   9.953   8.353  0.2915 -0.0830 -0.0088
  667ERGO    R3 9716   5.781  10.144   8.160 -0.0883 -0.0400  0.0053
  667ERGO    R4 9717   5.659   9.912   8.028  0.2835 -0.2476  0.0135
  667ERGO    R5 9718   5.833  10.024   7.960  0.0775  0.0677 -0.0180
  667ERGO    C1 9719   5.604  10.068   7.659 -0.0778 -0.3031  0.0397
  667ERGO    C2 9720   5.405   9.940   7.336 -0.4021 -0.2163 -0.1045
  668ERGO   ROH 9721   6.295  10.070  10.058 -0.2270 -0.0605 -0.1272
  668ERGO    R1 9722   6.460  10.082   9.828 -0.1384  0.0062 -0.0617
  668ERGO    R2 9723   6.372  10.003   9.578  0.0161 -0.0986 -0.0864
  668ERGO    R3 9724   6.453  10.252   9.507 -0.1199 -0.0561 -0.0947
  668ERGO    R4 9725   6.547  10.078   9.290  0.1802 -0.0466  0.0254
  668ERGO    R5 9726   6.668  10.218   9.405 -0.0148  0.0797  0.0787
  668ERGO    C1 9727   6.725  10.356   9.054  0.1481  0.0236  0.0827
  668ERGO    C2 9728   6.718  10.395   8.613 -0.2011  0.0845 -0.0915
  669ERGO   ROH 9729   2.275   5.154  10.188  0.2287  0.0109 -0.0168
  669ERGO    R1 9730   2.471   5.195   9.988  0.1050  0.1936 -0.1013
  669ERGO    R2 9731   2.531   5.003   9.797  0.2983  0.1931 -0.0330
  669ERGO    R3 9732   2.478   5.207   9.624 -0.0355  0.0484 -0.1121
  669ERGO    R4 9733   2.566   4.986   9.453  0.1989  0.0653 -0.0383
  669ERGO    R5 9734   2.647   5.188   9.456 -0.0618  0.1855 -0.1637
  669ERGO    C1 9735   2.536   5.166   9.092 -0.1724 -0.1450 -0.1157
  669ERGO    C2 9736   2.664   5.132   8.825  0.0716  0.1769 -0.1243
  670ERGO   ROH 9737   8.148  10.920  10.274  0.0866  0.1116  0.0798
  670ERGO    R1 9738   8.272  10.949  10.021 -0.0358  0.3045  0.0400
  670ERGO    R2 9739   8.325  10.734   9.856  0.2408  0.3839  0.0243
  670ERGO    R3 9740   8.185  10.880   9.675 -0.0424  0.1741  0.0661
  670ERGO    R4 9741   8.374  10.725   9.514  0.2222  0.5253  0.0170
  670ERGO    R5 9742   8.347  10.941   9.509 -0.1592  0.4879  0.0566
  670ERGO    C1 9743   8.272  10.857   9.145 -0.0545  0.4107  0.0521
  670ERGO    C2 9744   8.213  10.732   8.868 -0.2763 -0.0785 -0.0432
  671ERGO   ROH 9745   5.401   9.806  10.326  0.0477  0.0594  0.0542
  671ERGO    R1 9746   5.621   9.882  10.164  0.3065 -0.1324  0.3056
  671ERGO    R2 9747   5.847   9.725  10.137 -0.0838 -0.6822  0.0343
  671ERGO    R3 9748   5.792   9.748   9.872  0.0468  0.0776  0.0511
  671ERGO    R4 9749   6.069   9.655   9.882 -0.2311 -0.8679 -0.0459
  671ERGO    R5 9750   5.995   9.830   9.776  0.3609 -0.3667  0.2973
  671ERGO    C1 9751   6.147   9.637   9.484 -0.1941 -0.2631 -0.0769
  671ERGO    C2 9752   6.198   9.707   9.101  0.0455  0.0557  0.1132
  672ERGO   ROH 9753   0.494   4.331  10.055  0.1365 -0.0254 -0.0194
  672ERGO    R1 9754   0.436   4.442   9.801  0.0852 -0.0724 -0.0304
  672ERGO    R2 9755   0.631   4.552   9.637  0.0437 -0.0173 -0.0572
  672ERGO    R3 9756   0.531   4.376   9.456  0.0963 -0.0786 -0.0238
  672ERGO    R4 9757   0.677   4.571   9.295  0.1031 -0.1239 -0.0538
  672ERGO    R5 9758   0.470   4.511   9.268  0.1210 -0.1489 -0.0756
  672ERGO    C1 9759   0.610   4.417   8.926  0.1871 -0.2435 -0.0206
  672ERGO    C2 9760   0.522   4.521   8.688  0.0180 -0.1764 -0.1043
  673ERGO   ROH 9761   6.359   3.456  10.316  0.0986 -0.1138  0.0631
  673ERGO    R1 9762   6.369   3.562  10.053  0.0825 -0.0843  0.0741
  673ERGO    R2 9763   6.554   3.479   9.866  0.0638 -0.0728  0.0483
  673ERGO    R3 9764   6.333   3.432   9.715  0.0484 -0.0449  0.0628
  673ERGO    R4 9765   6.547   3.471   9.520  0.0111  0.0642  0.0460
  673ERGO    R5 9766   6.358   3.577   9.526 -0.0025  0.0335  0.1169
  673ERGO    C1 9767   6.335   3.423   9.178 -0.0341  0.1702  0.0584
  673ERGO    C2 9768   6.298   3.405   8.776 -0.1122 -0.0067 -0.2444
  674ERGO   ROH 9769   8.762   6.142  10.236  0.0201 -0.0794  0.1039
  674ERGO    R1 9770   8.850   6.278  10.004  0.0398 -0.1361  0.0802
  674ERGO    R2 9771   8.933   6.145   9.776 -0.1343 -0.1866  0.0548
  674ERGO    R3 9772   8.747   6.302   9.656 -0.0574 -0.0459  0.1125
  674ERGO    R4 9773   8.928   6.224   9.440 -0.3575 -0.4722 -0.0148
  674ERGO    R5 9774   8.870   6.427   9.493 -0.0447 -0.3397 -0.1205
  674ERGO    C1 9775   8.750   6.418   9.131 -0.4153 -0.5065 -0.0010
  674ERGO    C2 9776   8.769   6.431   8.841 -0.0788 -0.0574 -0.1819
  675loPI    C1 9777   0.830  13.530   5.209 -0.1844  0.1846 -0.0012
  675loPI    C2 9778   1.037  13.474   5.547 -0.2264 -0.1110 -0.0220
  675loPI    C3 9779   1.197  13.686   5.248 -0.1261  0.0201  0.1228
  675loPI   PO4 9780   0.586  13.623   5.326 -0.1245 -0.1108  0.0743
  675loPI   GL1 9781   0.335  13.623   5.736 -0.0480 -0.0280 -0.0034
  675loPI   GL2 9782   0.134  13.509   5.880  0.2148  0.0473  0.1092
  675loPI   C1A 9783   0.376  13.993   5.957  0.1679 -0.1153 -0.3237
  675loPI   C2A 9784   0.639  14.115   6.212  0.0006  0.1209  0.1028
  675loPI   C3A 9785   0.578  14.245   6.693  0.1492 -0.1129  0.2034
  675loPI   C4A 9786   0.586  14.258   7.106  0.0162  0.2222  0.0998
  675loPI   C5A 9787   0.543  14.297   7.584 -0.0736 -0.1569 -0.1179
  675loPI   C6A 9788   0.455  14.015   7.864  0.2630  0.4641 -0.0009
  675loPI   C1B 9789   0.371  13.592   6.393 -0.1957 -0.1212  0.1934
  675loPI   C2B 9790   0.549  13.746   6.650  0.1029 -0.0002 -0.1280
  675loPI   C3B 9791   0.488  13.730   7.094  0.1538 -0.0597 -0.0988
  675loPI   C4B 9792   0.477  13.586   7.564 -0.2456  0.0182  0.0903
  676loPI    C1 9793  15.769   7.228   5.990  0.1506  0.0902 -0.1635
  676loPI    C2 9794  15.906   7.038   5.666 -0.1476  0.0379 -0.2621
  676loPI    C3 9795  15.552   7.223   5.654 -0.0756  0.1955 -0.0214
  676loPI   PO4 9796  15.785   7.160   6.262 -0.4559  0.0103  0.2399
  676loPI   GL1 9797  15.496   7.000   6.573 -0.4911  0.2610 -0.0135
  676loPI   GL2 9798  15.323   6.795   6.711  0.1356 -0.5282  0.2032
  676loPI   C1A 9799  15.683   7.211   6.908  0.0950 -0.0753  0.0121
  676loPI   C2A 9800  15.600   7.496   7.251  0.1780 -0.1161  0.2228
  676loPI   C3A 9801  15.500   7.790   7.471 -0.0407 -0.1631  0.0282
  676loPI   C4A 9802  15.295   7.817   7.878  0.0661 -0.0047 -0.2259
  676loPI   C5A 9803  15.205   7.578   8.210  0.0863 -0.1209  0.1044
  676loPI   C6A 9804  14.887   7.636   8.511  0.1970  0.0866  0.0676
  676loPI   C1B 9805  15.511   6.601   7.125  0.1824  0.0621 -0.0851
  676loPI   C2B 9806  15.319   6.445   7.422 -0.0765  0.1215  0.0275
  676loPI   C3B 9807  15.076   6.426   7.779  0.1142  0.0986  0.0219
  676loPI   C4B 9808  14.971   6.154   8.210 -0.0689  0.0111  0.1922
  677loPI    C1 9809   2.585  15.856   5.352 -0.0920 -0.1099  0.1922
  677loPI    C2 9810   2.775  15.933   5.009 -0.1631 -0.1164  0.1509
  677loPI    C3 9811   2.844  15.590   5.203  0.0263 -0.0257  0.2467
  677loPI   PO4 9812   2.614  16.110   5.456 -0.3608 -0.0639 -0.2325
  677loPI   GL1 9813   2.875  16.340   5.674 -0.0285  0.1650  0.0875
  677loPI   GL2 9814   2.804  16.037   5.883 -0.4083  0.1743  0.1528
  677loPI   C1A 9815   2.728  16.551   6.065  0.0682 -0.0488  0.1001
  677loPI   C2A 9816   2.762  16.669   6.490  0.2283 -0.0692  0.4803
  677loPI   C3A 9817   2.633  16.616   6.896 -0.0608  0.0491 -0.2359
  677loPI   C4A 9818   2.525  16.775   7.261 -0.1295  0.0487 -0.0105
  677loPI   C5A 9819   2.400  16.789   7.677 -0.2296  0.1524  0.1853
  677loPI   C6A 9820   2.551  16.501   8.082  0.2783  0.0960 -0.1779
  677loPI   C1B 9821   2.554  16.107   6.181  0.2571 -0.0131 -0.1215
  677loPI   C2B 9822   2.588  16.125   6.628 -0.0072  0.0450 -0.4005
  677loPI   C3B 9823   2.494  16.195   7.139  0.3138 -0.0651 -0.4821
  677loPI   C4B 9824   2.492  16.287   7.596  0.0452  0.1334  0.3860
  678loPI    C1 9825  13.502  10.304   5.833  0.1682  0.1493 -0.0637
  678loPI    C2 9826  13.474  10.024   5.549 -0.1415  0.1120 -0.0007
  678loPI    C3 9827  13.695   9.956   5.876 -0.1210 -0.0118 -0.0395
  678loPI   PO4 9828  13.485  10.532   5.763  0.1430 -0.0615 -0.1011
  678loPI   GL1 9829  13.415  10.862   5.963  0.1720 -0.0891 -0.0474
  678loPI   GL2 9830  13.262  11.166   5.909 -0.0539  0.0946  0.1267
  678loPI   C1A 9831  13.498  10.820   6.402 -0.0257 -0.0197  0.0701
  678loPI   C2A 9832  13.504  10.821   6.800 -0.4576  0.0450  0.2017
  678loPI   C3A 9833  13.410  10.907   7.152 -0.0386  0.2562 -0.1628
  678loPI   C4A 9834  13.460  10.920   7.663  0.1994  0.0375 -0.2833
  678loPI   C5A 9835  13.250  10.802   8.057  0.2084  0.0415  0.4554
  678loPI   C6A 9836  12.968  11.084   8.342  0.1176  0.1318 -0.2331
  678loPI   C1B 9837  13.019  11.058   6.208 -0.1807  0.0922  0.2446
  678loPI   C2B 9838  13.073  11.057   6.640  0.1379 -0.1100 -0.0752
  678loPI   C3B 9839  13.000  11.141   7.072 -0.2762  0.1639 -0.2510
  678loPI   C4B 9840  13.040  11.221   7.562  0.0051  0.1894  0.1378
  679loPI    C1 9841  10.824   0.097   5.775 -0.0043  0.0743 -0.1363
  679loPI    C2 9842  11.039   0.379   5.590 -0.0835  0.3479  0.1797
  679loPI    C3 9843  11.212   0.142   5.862 -0.0110  0.0692 -0.1039
  679loPI   PO4 9844  10.600   0.230   5.815  0.0619 -0.0383 -0.0805
  679loPI   GL1 9845  10.417   0.272   6.276 -0.0154  0.1992 -0.0286
  679loPI   GL2 9846  10.045   0.081   6.378 -0.1230  0.0468 -0.0949
  679loPI   C1A 9847  10.527   0.449   6.646 -0.1320  0.1692 -0.2014
  679loPI   C2A 9848  10.383   0.432   7.011  0.0546 -0.1678 -0.0429
  679loPI   C3A 9849  10.495   0.556   7.453  0.0142  0.4088 -0.0763
  679loPI   C4A 9850  10.514   0.776   7.914  0.0528  0.1080 -0.2466
  679loPI   C5A 9851  10.806   1.091   7.952  0.2319  0.0754  0.2036
  679loPI   C6A 9852  11.005   1.458   8.009 -0.2018 -0.3957  0.3427
  679loPI   C1B 9853  10.158  -0.037   6.828  0.0499  0.0172 -0.1928
  679loPI   C2B 9854   9.954   0.166   7.114 -0.2161 -0.1143  0.2377
  679loPI   C3B 9855   9.976   0.449   7.395 -0.0254 -0.1360  0.2130
  679loPI   C4B 9856  10.077   0.449   7.823  0.0269  0.1864 -0.0329
  680loPI    C1 9857  10.268  11.815   5.611  0.0064  0.0728 -0.0488
  680loPI    C2 9858  10.375  11.558   5.324  0.1832 -0.0479  0.1221
  680loPI    C3 9859  10.578  11.899   5.373 -0.0378  0.1180 -0.0908
  680loPI   PO4 9860  10.195  11.729   5.761 -0.1374  0.0817  0.0155
  680loPI   GL1 9861  10.344  11.568   6.137 -0.2190  0.2115 -0.0926
  680loPI   GL2 9862  10.012  11.697   6.222  0.2863  0.2775  0.0353
  680loPI   C1A 9863  10.632  11.802   6.338  0.3077  0.0542 -0.2726
  680loPI   C2A 9864  10.815  12.028   6.693  0.1546 -0.0571 -0.1139
  680loPI   C3A 9865  10.865  12.117   7.124  0.2622  0.2830  0.0380
  680loPI   C4A 9866  10.846  12.065   7.488 -0.2574 -0.3386  0.0350
  680loPI   C5A 9867  10.720  12.014   7.955 -0.4264  0.0327  0.1827
  680loPI   C6A 9868  10.638  11.591   8.021 -0.0388  0.0005 -0.1868
  680loPI   C1B 9869  10.140  11.791   6.582  0.0386 -0.0478  0.1822
  680loPI   C2B 9870  10.388  11.793   6.882 -0.1270 -0.2831 -0.1073
  680loPI   C3B 9871  10.388  11.918   7.230  0.0986  0.3432 -0.2581
  680loPI   C4B 9872  10.359  11.948   7.653  0.1175  0.0939 -0.0604
  681loPI    C1 9873  13.772   5.116   5.822 -0.1769 -0.2123 -0.0946
  681loPI    C2 9874  13.813   5.354   5.503 -0.1918 -0.0822 -0.0005
  681loPI    C3 9875  13.491   5.389   5.739 -0.0760 -0.0290  0.1511
  681loPI   PO4 9876  14.047   5.162   5.907  0.2589 -0.1927  0.2143
  681loPI   GL1 9877  14.071   5.247   6.383 -0.2145 -0.0924 -0.0460
  681loPI   GL2 9878  14.036   4.930   6.344 -0.1403 -0.0081 -0.2897
  681loPI   C1A 9879  14.220   5.417   6.741 -0.0255  0.1913  0.1351
  681loPI   C2A 9880  14.272   5.536   7.122  0.1802 -0.0632 -0.1012
  681loPI   C3A 9881  14.194   5.354   7.491  0.1280 -0.1765  0.0853
  681loPI   C4A 9882  14.180   5.083   7.973 -0.0004 -0.1729 -0.1885
  681loPI   C5A 9883  13.862   4.986   8.244  0.1945 -0.0889 -0.2359
  681loPI   C6A 9884  13.643   4.895   8.674 -0.1010 -0.0150 -0.0957
  681loPI   C1B 9885  14.233   4.903   6.722 -0.1467 -0.1705  0.4523
  681loPI   C2B 9886  14.295   4.783   7.114 -0.3744 -0.3485  0.0636
  681loPI   C3B 9887  14.215   4.736   7.592 -0.0670  0.0293  0.0519
  681loPI   C4B 9888  13.929   4.598   7.901  0.2183  0.1156 -0.0324
  682loPI    C1 9889   3.678   9.404   5.749 -0.0157 -0.1439 -0.0395
  682loPI    C2 9890   3.393   9.579   5.530 -0.0904 -0.1484  0.0536
  682loPI    C3 9891   3.559   9.238   5.405  0.0554 -0.0129 -0.1284
  682loPI   PO4 9892   3.569   9.328   5.952 -0.1505 -0.3592 -0.0489
  682loPI   GL1 9893   3.332   9.192   6.197  0.0954  0.0334  0.3268
  682loPI   GL2 9894   3.037   8.978   6.160 -0.1146  0.0071 -0.2026
  682loPI   C1A 9895   3.295   9.291   6.718  0.0522  0.2705 -0.4642
  682loPI   C2A 9896   3.390   9.281   7.106 -0.1683 -0.1451 -0.0366
  682loPI   C3A 9897   3.691   9.305   7.358  0.1646  0.2475  0.1008
  682loPI   C4A 9898   3.947   9.224   7.672  0.0158 -0.0567  0.2968
  682loPI   C5A 9899   4.189   9.311   7.983 -0.1722 -0.0277 -0.1367
  682loPI   C6A 9900   4.243   9.595   8.352 -0.1056 -0.0023  0.3727
  682loPI   C1B 9901   3.149   8.847   6.581  0.1081  0.1104 -0.2106
  682loPI   C2B 9902   3.168   8.745   6.985  0.0612  0.0083 -0.1991
  682loPI   C3B 9903   3.279   8.461   7.254 -0.1453  0.0194 -0.0515
  682loPI   C4B 9904   3.397   8.510   7.778  0.0089  0.2038 -0.3655
  683loPI    C1 9905   2.757  14.457   5.146 -0.0716  0.0748  0.0093
  683loPI    C2 9906   3.146  14.457   5.052 -0.1039  0.0941 -0.1253
  683loPI    C3 9907   2.881  14.276   4.812 -0.1930  0.1866 -0.0973
  683loPI   PO4 9908   2.755  14.519   5.433  0.1622  0.0409 -0.1059
  683loPI   GL1 9909   2.670  14.806   5.779  0.1861  0.0111  0.0621
  683loPI   GL2 9910   2.381  14.680   5.797  0.0135 -0.1206  0.1524
  683loPI   C1A 9911   2.882  14.799   6.139 -0.2424 -0.4001 -0.1574
  683loPI   C2A 9912   2.879  14.796   6.583  0.1492  0.1336  0.1525
  683loPI   C3A 9913   2.866  14.888   7.049  0.0808  0.3299 -0.1544
  683loPI   C4A 9914   2.966  14.917   7.457 -0.0063 -0.1311 -0.0249
  683loPI   C5A 9915   3.037  14.702   7.817 -0.0800  0.1528 -0.0425
  683loPI   C6A 9916   3.082  14.247   7.975 -0.2710 -0.0984  0.0167
  683loPI   C1B 9917   2.455  14.597   6.271  0.0786  0.1595  0.3481
  683loPI   C2B 9918   2.431  14.527   6.687  0.1894  0.0861  0.0726
  683loPI   C3B 9919   2.374  14.624   7.175 -0.0800 -0.1208 -0.0560
  683loPI   C4B 9920   2.333  14.720   7.606  0.1856  0.0995  0.0738
  684loPI    C1 9921   7.482  15.002   5.523  0.1436 -0.0417 -0.1536
  684loPI    C2 9922   7.124  15.124   5.391  0.0610 -0.1432 -0.0262
  684loPI    C3 9923   7.457  15.304   5.262 -0.0384 -0.0189 -0.1116
  684loPI   PO4 9924   7.391  14.889   5.734  0.1246  0.0752  0.0836
  684loPI   GL1 9925   7.325  15.030   6.190  0.0876 -0.3414  0.1320
  684loPI   GL2 9926   7.512  15.236   6.304 -0.0652  0.0335  0.1435
  684loPI   C1A 9927   7.147  15.000   6.553 -0.0677 -0.1137 -0.1662
  684loPI   C2A 9928   7.094  14.748   7.014  0.0147 -0.1071  0.0504
  684loPI   C3A 9929   7.331  14.654   7.397  0.2551  0.0024  0.0704
  684loPI   C4A 9930   7.323  14.669   7.873 -0.3340  0.2622 -0.1957
  684loPI   C5A 9931   6.982  14.731   8.184 -0.1325 -0.1011  0.1091
  684loPI   C6A 9932   6.828  14.558   8.434 -0.1266  0.0578 -0.1375
  684loPI   C1B 9933   7.623  15.077   6.761  0.1568 -0.1257 -0.4325
  684loPI   C2B 9934   7.497  15.073   7.208 -0.1552 -0.0134  0.0865
  684loPI   C3B 9935   7.421  15.187   7.596 -0.1830  0.0753  0.0505
  684loPI   C4B 9936   7.370  15.184   7.994  0.1328 -0.3554  0.1583
  685loPI    C1 9937  10.364   4.804   5.687  0.0723  0.0094  0.0370
  685loPI    C2 9938  10.641   4.677   5.429  0.0788  0.3609 -0.1355
  685loPI    C3 9939  10.253   4.637   5.341  0.0746  0.0955 -0.0057
  685loPI   PO4 9940  10.497   5.028   5.756  0.0469  0.1032  0.1391
  685loPI   GL1 9941  10.311   5.210   6.091 -0.1448  0.1462  0.2426
  685loPI   GL2 9942  10.079   5.035   6.098 -0.3439 -0.3871 -0.2407
  685loPI   C1A 9943  10.265   5.415   6.416 -0.0310 -0.3355 -0.0036
  685loPI   C2A 9944  10.304   5.382   6.796 -0.0571 -0.1808  0.1401
  685loPI   C3A 9945  10.163   5.259   7.188 -0.2493 -0.0750  0.0332
  685loPI   C4A 9946  10.074   5.152   7.637 -0.0661  0.0411  0.2796
  685loPI   C5A 9947  10.040   5.004   8.090  0.2535  0.0381  0.0777
  685loPI   C6A 9948   9.942   4.636   8.260  0.0694 -0.1478 -0.2032
  685loPI   C1B 9949  10.202   4.905   6.491  0.1189  0.0093  0.0303
  685loPI   C2B 9950  10.449   4.894   6.901  0.2527 -0.1725 -0.3232
  685loPI   C3B 9951  10.451   4.866   7.402  0.2470  0.3719  0.0051
  685loPI   C4B 9952  10.426   4.805   7.805  0.0695  0.0329  0.1109
  686loPI    C1 9953   1.683  10.983   5.257  0.0340  0.1157 -0.0108
  686loPI    C2 9954   1.486  10.742   5.005 -0.0358  0.0219  0.1323
  686loPI    C3 9955   1.807  10.945   4.879  0.0035 -0.1201  0.0016
  686loPI   PO4 9956   1.699  10.835   5.492 -0.0360 -0.2769  0.1208
  686loPI   GL1 9957   1.524  10.924   5.870 -0.3107 -0.1943 -0.3755
  686loPI   GL2 9958   1.231  11.001   5.991 -0.1621  0.0955  0.1581
  686loPI   C1A 9959   1.619  10.694   6.275  0.0463  0.0118  0.1381
  686loPI   C2A 9960   1.634  10.765   6.647 -0.2391 -0.1326 -0.0337
  686loPI   C3A 9961   1.596  10.737   7.017 -0.0845 -0.2439  0.0759
  686loPI   C4A 9962   1.674  10.777   7.373 -0.1059  0.0040 -0.0399
  686loPI   C5A 9963   1.904  10.731   7.606 -0.2042 -0.0452  0.4141
  686loPI   C6A 9964   1.902  10.800   8.077 -0.2938 -0.0304  0.4348
  686loPI   C1B 9965   1.215  11.010   6.435 -0.0292  0.2944  0.1195
  686loPI   C2B 9966   1.278  11.082   6.836 -0.1423  0.4529  0.1559
  686loPI   C3B 9967   1.248  11.047   7.295  0.2020 -0.2254 -0.2303
  686loPI   C4B 9968   1.255  10.953   7.744  0.0355  0.3960  0.2667
  687loPI    C1 9969  10.943   1.487   5.289  0.0020 -0.0506  0.0144
  687loPI    C2 9970  10.814   1.134   5.152  0.0994 -0.0616 -0.0500
  687loPI    C3 9971  11.026   1.376   4.914  0.3513 -0.1220  0.1092
  687loPI   PO4 9972  11.031   1.416   5.573  0.1759 -0.0501  0.1277
  687loPI   GL1 9973  11.030   1.628   5.927 -0.1742 -0.1127  0.1180
  687loPI   GL2 9974  10.606   1.610   5.949  0.0385  0.1018 -0.1239
  687loPI   C1A 9975  11.173   1.599   6.337  0.2016 -0.1154 -0.0821
  687loPI   C2A 9976  11.129   1.628   6.745 -0.0102  0.1116 -0.0117
  687loPI   C3A 9977  11.223   1.599   7.227 -0.1780  0.1186  0.0717
  687loPI   C4A 9978  11.357   1.784   7.609 -0.0223  0.1187 -0.0221
  687loPI   C5A 9979  11.082   2.014   7.900 -0.0106 -0.1053  0.1442
  687loPI   C6A 9980  10.767   1.803   8.258  0.3043 -0.0154  0.0632
  687loPI   C1B 9981  10.698   1.462   6.351 -0.0953 -0.1035 -0.0421
  687loPI   C2B 9982  10.671   1.394   6.777  0.0410  0.2083 -0.1148
  687loPI   C3B 9983  10.754   1.603   7.148 -0.1736  0.3477  0.0221
  687loPI   C4B 9984  10.825   1.675   7.615  0.0540 -0.5911 -0.0362
  688loPI    C1 9985   0.589  10.657   5.637  0.0183  0.0250 -0.0745
  688loPI    C2 9986   0.902  10.668   5.886  0.0213 -0.0598 -0.0743
  688loPI    C3 9987   0.888  10.395   5.593  0.1174  0.1728 -0.2995
  688loPI   PO4 9988   0.386  10.873   5.763 -0.0883 -0.0238 -0.1541
  688loPI   GL1 9989   0.347  10.747   6.155 -0.0684 -0.1471 -0.0690
  688loPI   GL2 9990   0.453  10.451   6.067  0.0025 -0.0001 -0.0145
  688loPI   C1A 9991   0.710  10.837   6.448 -0.1143  0.0031  0.1350
  688loPI   C2A 9992   0.780  10.880   6.889 -0.1711 -0.1489 -0.0964
  688loPI   C3A 9993   0.759  10.757   7.297 -0.3043 -0.2829  0.0460
  688loPI   C4A 9994   0.696  10.701   7.683  0.0146 -0.1704  0.1911
  688loPI   C5A 9995   0.510  10.554   8.079  0.0862 -0.2648 -0.0327
  688loPI   C6A 9996   0.080  10.542   8.193 -0.1687  0.0837  0.2738
  688loPI   C1B 9997   0.592  10.387   6.458 -0.2002  0.1200  0.1157
  688loPI   C2B 9998   0.678  10.375   6.898  0.0410 -0.1472 -0.0501
  688loPI   C3B 9999   0.612  10.297   7.338  0.1670 -0.1572 -0.2492
  688loPI   C4B10000   0.280  10.264   7.621 -0.0211  0.2239 -0.1679
  689loPI    C110001  10.104  10.276   5.468  0.0847 -0.1553  0.2088
  689loPI    C210002  10.120   9.995   5.184 -0.1965  0.0231  0.0120
  689loPI    C310003   9.789  10.215   5.229 -0.0495  0.1917  0.2920
  689loPI   PO410004  10.229  10.144   5.718  0.2643 -0.1554 -0.2831
  689loPI   GL110005  10.406  10.217   6.093 -0.0927 -0.0935  0.0435
  689loPI   GL210006  10.288  10.470   6.203 -0.4203  0.1218 -0.1223
  689loPI   C1A10007  10.359   9.904   6.427 -0.0008 -0.0748 -0.2089
  689loPI   C2A10008  10.472  10.023   6.885  0.1778 -0.0438 -0.1035
  689loPI   C3A10009  10.495  10.066   7.324 -0.0427  0.1434  0.4115
  689loPI   C4A10010  10.474   9.988   7.752  0.0414 -0.0277  0.0820
  689loPI   C5A10011  10.505   9.850   8.204  0.3534 -0.0645  0.1710
  689loPI   C6A10012  10.571   9.575   8.486  0.2655  0.0856  0.0116
  689loPI   C1B10013  10.462  10.524   6.698 -0.0254 -0.0833 -0.0250
  689loPI   C2B10014  10.632  10.595   7.169 -0.1991  0.1652 -0.3456
  689loPI   C3B10015  10.692  10.497   7.585  0.0947 -0.1667  0.0082
  689loPI   C4B10016  10.534  10.407   8.056  0.1650  0.3903 -0.0115
  690loPI    C110017  14.964   1.691   5.414 -0.0367 -0.1034  0.1092
  690loPI    C210018  14.861   1.308   5.362  0.4590 -0.2176 -0.0815
  690loPI    C310019  14.812   1.571   5.064  0.0661 -0.1137  0.0680
  690loPI   PO410020  14.899   1.790   5.585 -0.1391  0.2234 -0.3629
  690loPI   GL110021  15.049   2.105   5.949 -0.2559  0.2794  0.0872
  690loPI   GL210022  15.077   1.791   6.077  0.0483  0.0761  0.1050
  690loPI   C1A10023  14.960   2.205   6.420  0.3315  0.3228 -0.0513
  690loPI   C2A10024  15.011   2.083   6.920 -0.0361 -0.1812 -0.3133
  690loPI   C3A10025  15.063   1.907   7.302  0.1454 -0.2203  0.0257
  690loPI   C4A10026  14.907   1.937   7.715 -0.1202 -0.0311  0.1897
  690loPI   C5A10027  14.796   2.214   7.983  0.2315 -0.2098 -0.0544
  690loPI   C6A10028  14.538   2.554   8.158  0.0814  0.1989 -0.1752
  690loPI   C1B10029  15.171   1.752   6.526  0.4351  0.4048 -0.0013
  690loPI   C2B10030  15.217   1.609   6.866  0.0454  0.1874  0.0901
  690loPI   C3B10031  15.328   1.505   7.315 -0.1215  0.1563 -0.0465
  690loPI   C4B10032  15.662   1.281   7.629 -0.2592 -0.1382  0.1296
  691loPI    C110033   8.130   3.467   5.287 -0.0631 -0.0245 -0.0802
  691loPI    C210034   8.419   3.643   5.074 -0.1566  0.0683 -0.1312
  691loPI    C310035   8.354   3.250   5.036  0.0400  0.0250 -0.0311
  691loPI   PO410036   8.175   3.543   5.552  0.3553  0.0754 -0.1166
  691loPI   GL110037   8.443   3.474   5.829  0.4256 -0.0227  0.0844
  691loPI   GL210038   8.224   3.289   5.963  0.0857 -0.0002 -0.1786
  691loPI   C1A10039   8.509   3.593   6.243 -0.2788  0.2833  0.2367
  691loPI   C2A10040   8.518   3.611   6.712  0.0918 -0.0329  0.2694
  691loPI   C3A10041   8.474   3.616   7.172 -0.0836  0.1390 -0.1377
  691loPI   C4A10042   8.637   3.659   7.534 -0.2534  0.1218 -0.2290
  691loPI   C5A10043   8.585   3.354   7.975 -0.2604 -0.3434  0.3195
  691loPI   C6A10044   8.724   3.291   8.351 -0.0446  0.4293 -0.2614
  691loPI   C1B10045   8.210   3.202   6.420 -0.3407  0.0237 -0.0844
  691loPI   C2B10046   8.199   3.135   6.897 -0.1624  0.0590  0.0728
  691loPI   C3B10047   8.123   3.200   7.285  0.1509 -0.0408 -0.1777
  691loPI   C4B10048   8.169   3.046   7.724  0.1062 -0.0297  0.1436
  692loPI    C110049   1.519  14.564   5.373  0.0999 -0.0956  0.0163
  692loPI    C210050   1.812  14.473   5.116  0.1490 -0.2666  0.1308
  692loPI    C310051   1.518  14.210   5.185 -0.2014  0.0221 -0.2128
  692loPI   PO410052   1.511  14.852   5.307 -0.4275  0.0040  0.0641
  692loPI   GL110053   1.540  15.013   5.756 -0.3272  0.1375  0.0385
  692loPI   GL210054   1.432  14.637   5.830 -0.1397  0.0396 -0.0792
  692loPI   C1A10055   1.540  15.223   6.178 -0.2719  0.3623 -0.0387
  692loPI   C2A10056   1.530  15.270   6.534 -0.1975  0.3237 -0.0951
  692loPI   C3A10057   1.583  15.168   7.005  0.0930  0.2089  0.4159
  692loPI   C4A10058   1.571  15.217   7.471 -0.1884  0.0171  0.1884
  692loPI   C5A10059   1.554  15.338   7.910  0.0259  0.0708  0.2231
  692loPI   C6A10060   1.390  15.528   8.275  0.0538  0.1504  0.0649
  692loPI   C1B10061   1.415  14.729   6.203  0.1801 -0.2293  0.0641
  692loPI   C2B10062   1.427  14.757   6.619  0.3684 -0.1064  0.1568
  692loPI   C3B10063   1.539  14.705   7.065 -0.1948  0.0155 -0.0025
  692loPI   C4B10064   1.530  14.653   7.506 -0.1748  0.1189 -0.0145
  693loPI    C110065  12.213  15.831   5.355 -0.1078 -0.1018 -0.0883
  693loPI    C210066  12.235  16.229   5.393 -0.2622 -0.1021  0.0116
  693loPI    C310067  12.271  16.060   5.032 -0.0714 -0.0068 -0.0148
  693loPI   PO410068  12.341  15.667   5.436 -0.1778  0.0924 -0.0516
  693loPI   GL110069  12.446  15.460   5.728  0.0907  0.0424  0.2844
  693loPI   GL210070  12.362  15.171   5.725 -0.0512  0.0972 -0.0312
  693loPI   C1A10071  12.308  15.336   6.177 -0.2636 -0.1326 -0.1973
  693loPI   C2A10072  12.241  15.277   6.586  0.0978 -0.0177  0.1006
  693loPI   C3A10073  12.394  15.249   7.022  0.1212  0.1294 -0.0315
  693loPI   C4A10074  12.293  15.284   7.453  0.0238  0.1451  0.0926
  693loPI   C5A10075  12.338  15.227   7.888 -0.4130  0.1752  0.1243
  693loPI   C6A10076  12.626  15.161   8.258 -0.0465 -0.3937  0.1942
  693loPI   C1B10077  12.683  15.086   6.053  0.1593 -0.1778 -0.1960
  693loPI   C2B10078  12.749  15.002   6.446  0.0939  0.0479 -0.0827
  693loPI   C3B10079  12.868  15.056   6.901 -0.0688 -0.1538 -0.0760
  693loPI   C4B10080  12.891  15.083   7.213 -0.0723  0.0445  0.1232
  694loPI    C110081   6.033  17.344   5.767 -0.1033  0.0440 -0.0910
  694loPI    C210082   6.114  17.710   5.627  0.1260  0.0166 -0.0330
  694loPI    C310083   6.027  17.413   5.373  0.0888  0.0756 -0.0893
  694loPI   PO410084   5.912  17.360   5.921 -0.3114 -0.0850  0.1043
  694loPI   GL110085   5.697  17.466   6.215 -0.0885  0.0252 -0.0027
  694loPI   GL210086   5.573  17.664   6.126 -0.0506 -0.1921 -0.2652
  694loPI   C1A10087   5.800  17.629   6.626 -0.0143  0.0694  0.1016
  694loPI   C2A10088   5.678  17.391   6.967  0.0069 -0.0052 -0.2467
  694loPI   C3A10089   5.385  17.364   7.377  0.0444  0.1650 -0.2833
  694loPI   C4A10090   5.083  17.165   7.642  0.0531 -0.1321 -0.2852
  694loPI   C5A10091   4.920  17.152   8.076  0.0309  0.0690 -0.2119
  694loPI   C6A10092   4.756  17.490   8.115 -0.1441 -0.4146  0.0696
  694loPI   C1B10093   5.331  17.558   6.494  0.2978  0.0126  0.0567
  694loPI   C2B10094   5.226  17.612   6.915 -0.1570  0.3706  0.0084
  694loPI   C3B10095   4.959  17.618   7.326  0.0397 -0.2138  0.1988
  694loPI   C4B10096   5.133  17.699   7.677 -0.0045  0.2782  0.1354
  695loPI    C110097  13.537   7.202   5.836  0.1525 -0.0585 -0.0160
  695loPI    C210098  13.533   6.931   5.542 -0.1541 -0.0732 -0.0016
  695loPI    C310099  13.327   7.271   5.503  0.1995  0.1461 -0.0043
  695loPI   PO410100  13.471   7.058   6.041  0.2575  0.1414 -0.3570
  695loPI   GL110101  13.181   7.202   6.257  0.1596 -0.0369  0.1422
  695loPI   GL210102  13.181   7.563   6.409  0.1335  0.1634 -0.0277
  695loPI   C1A10103  13.303   7.216   6.800 -0.1483 -0.0865 -0.1866
  695loPI   C2A10104  13.412   7.063   7.260  0.3395  0.0181  0.3592
  695loPI   C3A10105  13.649   6.917   7.602 -0.0551  0.1275  0.1676
  695loPI   C4A10106  13.818   6.771   8.042 -0.0736  0.0074 -0.1623
  695loPI   C5A10107  13.675   6.934   8.310 -0.2341  0.0219 -0.0633
  695loPI   C6A10108  13.690   7.278   8.662  0.1869  0.1777  0.2145
  695loPI   C1B10109  13.251   7.733   6.745 -0.2096  0.0905  0.2267
  695loPI   C2B10110  13.256   7.637   7.225 -0.0429  0.3820 -0.0650
  695loPI   C3B10111  13.366   7.662   7.627  0.0393 -0.1234 -0.0438
  695loPI   C4B10112  13.487   7.764   8.054  0.0863 -0.2314 -0.1000
  696loPI    C110113  13.000  12.156   5.622 -0.0338 -0.1920  0.1408
  696loPI    C210114  13.016  11.911   5.307 -0.1491  0.0359 -0.0461
  696loPI    C310115  13.317  12.165   5.379 -0.1103 -0.0352  0.0450
  696loPI   PO410116  13.034  12.028   5.844 -0.0707  0.1960  0.5457
  696loPI   GL110117  13.065  12.042   6.202  0.1357  0.1344 -0.1574
  696loPI   GL210118  13.368  11.784   6.111  0.0524 -0.0439 -0.1840
  696loPI   C1A10119  12.688  11.874   6.389  0.0059  0.3495 -0.0678
  696loPI   C2A10120  12.537  11.838   6.843 -0.3177 -0.0335 -0.0151
  696loPI   C3A10121  12.511  11.980   7.218  0.1017 -0.2412 -0.0923
  696loPI   C4A10122  12.572  11.881   7.694 -0.1159 -0.2048  0.4192
  696loPI   C5A10123  12.811  11.961   8.090 -0.2268 -0.1230  0.2224
  696loPI   C6A10124  12.983  12.273   8.306  0.1454 -0.4263  0.1524
  696loPI   C1B10125  13.450  11.895   6.593 -0.1825 -0.0139 -0.1271
  696loPI   C2B10126  13.470  11.889   7.028 -0.2979 -0.0502  0.0907
  696loPI   C3B10127  13.553  11.887   7.527  0.3742  0.2176  0.1304
  696loPI   C4B10128  13.753  12.091   7.905  0.0533 -0.0453 -0.0367
  697loPI    C110129   3.831   2.853   5.104  0.0229  0.1356 -0.1336
  697loPI    C210130   4.222   2.808   5.030  0.0310 -0.1595  0.0708
  697loPI    C310131   3.952   2.647   4.784  0.0411 -0.1538  0.0560
  697loPI   PO410132   3.866   2.891   5.384  0.1717  0.0143  0.0144
  697loPI   GL110133   3.724   2.807   5.800 -0.1013  0.2227 -0.1676
  697loPI   GL210134   3.775   2.599   5.965 -0.2431  0.0420 -0.1843
  697loPI   C1A10135   3.433   2.987   6.104  0.2974 -0.2547  0.0219
  697loPI   C2A10136   3.333   3.037   6.436  0.2909  0.1331 -0.1788
  697loPI   C3A10137   3.295   2.979   6.881  0.0599  0.2463  0.0492
  697loPI   C4A10138   3.426   2.984   7.356  0.0248  0.1702  0.0833
  697loPI   C5A10139   3.322   2.997   7.839  0.3183  0.0049 -0.0837
  697loPI   C6A10140   3.296   2.918   8.272 -0.1388 -0.0853 -0.1364
  697loPI   C1B10141   3.610   2.581   6.377  0.1286  0.0218  0.2029
  697loPI   C2B10142   3.549   2.512   6.783  0.2426  0.2335  0.1891
  697loPI   C3B10143   3.630   2.507   7.217 -0.2251 -0.0268  0.1049
  697loPI   C4B10144   3.847   2.187   7.529 -0.3836 -0.0497  0.0200
  698loPI    C110145  12.438   8.422   5.545  0.0870  0.1742 -0.0473
  698loPI    C210146  12.042   8.373   5.575  0.0982  0.0571 -0.0877
  698loPI    C310147  12.231   8.281   5.234  0.1979 -0.1486  0.0206
  698loPI   PO410148  12.479   8.721   5.646  0.2044 -0.0058  0.1721
  698loPI   GL110149  12.527   8.915   6.040  0.2476  0.0257 -0.3243
  698loPI   GL210150  12.454   8.560   6.113  0.2564  0.0789  0.4629
  698loPI   C1A10151  12.485   8.866   6.482 -0.2317 -0.0755  0.1071
  698loPI   C2A10152  12.551   8.843   7.003 -0.0718 -0.1167 -0.0668
  698loPI   C3A10153  12.519   8.845   7.424 -0.0829  0.0637  0.0666
  698loPI   C4A10154  12.789   8.480   7.678  0.1440 -0.0689 -0.1313
  698loPI   C5A10155  12.898   8.451   8.128 -0.0490 -0.2056 -0.5014
  698loPI   C6A10156  12.909   8.654   8.465 -0.2105  0.0663 -0.0251
  698loPI   C1B10157  12.844   8.500   6.368 -0.0590  0.0788 -0.2629
  698loPI   C2B10158  12.821   8.444   6.796 -0.0963 -0.0393  0.0994
  698loPI   C3B10159  13.009   8.499   7.162 -0.1363  0.1690  0.0477
  698loPI   C4B10160  13.275   8.607   7.448  0.0516  0.0577  0.1166
  699loPI    C110161   5.466  12.837   5.022 -0.1768  0.1729  0.1110
  699loPI    C210162   5.843  12.777   4.902 -0.2835 -0.2109 -0.0482
  699loPI    C310163   5.648  13.107   4.790 -0.0288 -0.0567 -0.0453
  699loPI   PO410164   5.464  12.900   5.318 -0.0771 -0.0558 -0.0362
  699loPI   GL110165   5.691  12.981   5.733 -0.3141 -0.2129  0.0860
  699loPI   GL210166   5.419  12.881   5.848  0.0146  0.0639 -0.0438
  699loPI   C1A10167   5.973  13.266   5.832 -0.0994  0.0672  0.2166
  699loPI   C2A10168   6.020  13.522   6.215  0.1544  0.2108 -0.1620
  699loPI   C3A10169   6.006  13.659   6.683  0.0470  0.0025 -0.0756
  699loPI   C4A10170   6.035  13.777   7.093 -0.2264 -0.0594  0.1296
  699loPI   C5A10171   5.987  13.732   7.525 -0.1169  0.1673 -0.0134
  699loPI   C6A10172   6.320  13.650   7.828  0.3312 -0.3706  0.0762
  699loPI   C1B10173   5.562  12.818   6.266  0.0302 -0.3687 -0.2583
  699loPI   C2B10174   5.606  12.930   6.702 -0.0137  0.1380  0.1037
  699loPI   C3B10175   5.460  13.059   7.215  0.1703 -0.1594  0.1210
  699loPI   C4B10176   5.347  13.146   7.648  0.0236 -0.1016  0.1157
  700loPI    C110177   7.973  17.693   5.273  0.3087  0.2067 -0.1466
  700loPI    C210178   7.671  17.944   5.199  0.1760  0.0049 -0.3009
  700loPI    C310179   7.772  17.667   4.929  0.1716 -0.2578 -0.0387
  700loPI   PO410180   7.946  17.800   5.597  0.2766 -0.0063 -0.1511
  700loPI   GL110181   7.819  18.058   5.949  0.0707  0.0236  0.1501
  700loPI   GL210182   8.156  18.233   5.876 -0.0531 -0.0379  0.0941
  700loPI   C1A10183   7.585  18.041   6.334 -0.4673  0.0065 -0.0654
  700loPI   C2A10184   7.466  18.156   6.849  0.0245 -0.3855 -0.2571
  700loPI   C3A10185   7.198  17.954   7.053  0.2714 -0.1006 -0.0834
  700loPI   C4A10186   7.033  17.771   7.411 -0.1479  0.0574 -0.0683
  700loPI   C5A10187   6.838  17.488   7.678 -0.1745  0.0805 -0.2586
  700loPI   C6A10188   6.445  17.327   7.549 -0.1096  0.0955  0.0791
  700loPI   C1B10189   7.974  18.419   6.257 -0.0675  0.0846 -0.1795
  700loPI   C2B10190   7.771  18.492   6.601  0.0270  0.2984  0.0575
  700loPI   C3B10191   7.700  18.575   7.075  0.0943  0.0191  0.0054
  700loPI   C4B10192   7.658  18.565   7.508 -0.0625  0.2111  0.2693
  701loPI    C110193   4.579   2.728   5.389  0.1338  0.0251 -0.1904
  701loPI    C210194   4.319   2.998   5.527  0.1666 -0.0403  0.0032
  701loPI    C310195   4.641   3.117   5.322  0.1158  0.0581 -0.0205
  701loPI   PO410196   4.637   2.600   5.620  0.2533  0.1737  0.1833
  701loPI   GL110197   4.598   2.723   5.951 -0.0269  0.0611  0.0534
  701loPI   GL210198   4.288   2.795   6.032  0.0902  0.1146 -0.0361
  701loPI   C1A10199   4.566   2.643   6.428  0.0188 -0.0828 -0.2143
  701loPI   C2A10200   4.585   2.409   6.845  0.3212 -0.0068  0.1780
  701loPI   C3A10201   4.649   2.310   7.377 -0.0849  0.0006  0.2006
  701loPI   C4A10202   4.517   2.332   7.759  0.0965 -0.2581  0.0680
  701loPI   C5A10203   4.731   2.610   8.020 -0.1931  0.2705 -0.1806
  701loPI   C6A10204   4.993   2.666   8.354 -0.0987  0.0742  0.0019
  701loPI   C1B10205   4.090   2.554   6.397  0.1972  0.0381  0.2030
  701loPI   C2B10206   4.070   2.502   6.863  0.0122  0.0212 -0.2443
  701loPI   C3B10207   4.120   2.517   7.306 -0.0938  0.1104  0.1257
  701loPI   C4B10208   3.855   2.689   7.653 -0.2073  0.3934 -0.2144
  702loPI    C110209   5.068  15.629   5.338 -0.0172 -0.1291 -0.3088
  702loPI    C210210   5.463  15.674   5.293  0.0149 -0.1202 -0.0370
  702loPI    C310211   5.272  15.380   5.101  0.1536 -0.1266 -0.1669
  702loPI   PO410212   5.079  15.706   5.634  0.0263 -0.1537  0.2206
  702loPI   GL110213   4.959  15.536   5.938 -0.0090  0.1644 -0.1802
  702loPI   GL210214   4.684  15.687   6.026  0.0528  0.0016 -0.0640
  702loPI   C1A10215   5.124  15.661   6.324 -0.0336 -0.0721 -0.0337
  702loPI   C2A10216   5.331  15.992   6.453  0.0130  0.0545 -0.0774
  702loPI   C3A10217   5.360  16.066   6.859  0.1942  0.4533 -0.0767
  702loPI   C4A10218   5.178  16.060   7.172 -0.0669 -0.0308  0.0870
  702loPI   C5A10219   5.154  16.082   7.593 -0.1034  0.0352 -0.1576
  702loPI   C6A10220   5.040  16.303   7.984  0.0218 -0.1571 -0.1537
  702loPI   C1B10221   4.624  15.714   6.467  0.0122 -0.2040 -0.2521
  702loPI   C2B10222   4.357  15.606   6.780 -0.1241 -0.1436  0.0285
  702loPI   C3B10223   4.251  15.532   7.229  0.0411 -0.1090  0.1876
  702loPI   C4B10224   4.259  15.637   7.604  0.4058  0.0284 -0.1105
  703loPI    C110225   4.479   9.357   5.692  0.2754 -0.0202  0.0538
  703loPI    C210226   4.785   9.215   5.476  0.2949  0.1521 -0.0331
  703loPI    C310227   4.410   9.109   5.386  0.2915  0.3373 -0.2466
  703loPI   PO410228   4.539   9.362   5.892  0.1207  0.1283  0.1005
  703loPI   GL110229   4.517   9.379   6.321 -0.1767  0.0313  0.0170
  703loPI   GL210230   4.744   9.000   6.268  0.0106 -0.2909  0.0355
  703loPI   C1A10231   4.461   9.400   6.718 -0.0860  0.1401 -0.0904
  703loPI   C2A10232   4.331   9.747   6.903  0.1227  0.1009  0.0373
  703loPI   C3A10233   4.177  10.004   7.236 -0.2938 -0.0920  0.2357
  703loPI   C4A10234   4.226  10.082   7.684 -0.0591 -0.0324  0.0144
  703loPI   C5A10235   4.439   9.818   7.930 -0.0296  0.3570 -0.1221
  703loPI   C6A10236   4.781   9.674   8.198  0.1187 -0.1542 -0.0255
  703loPI   C1B10237   4.912   9.179   6.615 -0.3133 -0.2901 -0.0573
  703loPI   C2B10238   4.842   9.447   7.005 -0.0645  0.0249  0.0717
  703loPI   C3B10239   4.707   9.759   7.218 -0.1345  0.0984  0.1448
  703loPI   C4B10240   4.755   9.895   7.518  0.2323  0.1989  0.1983
  704loPI    C110241   6.957   0.060   5.488  0.0296 -0.0535  0.0290
  704loPI    C210242   7.271   0.146   5.256 -0.1793 -0.0335 -0.2514
  704loPI    C310243   7.149   0.408   5.533  0.1049 -0.0808 -0.0774
  704loPI   PO410244   6.922  -0.125   5.638  0.1845 -0.2379  0.0760
  704loPI   GL110245   6.803  -0.258   6.110  0.1159 -0.1437  0.0073
  704loPI   GL210246   7.053  -0.045   6.159  0.1666  0.3058 -0.0034
  704loPI   C1A10247   6.716  -0.299   6.517  0.0430 -0.0696  0.2455
  704loPI   C2A10248   6.726  -0.277   6.948  0.0092  0.3182 -0.3106
  704loPI   C3A10249   6.512  -0.288   7.319 -0.1154  0.1649  0.0603
  704loPI   C4A10250   6.617  -0.102   7.706 -0.0462 -0.4524 -0.0150
  704loPI   C5A10251   6.955  -0.092   7.890  0.2090 -0.2322  0.0522
  704loPI   C6A10252   7.064  -0.227   8.254 -0.5273 -0.1953 -0.1610
  704loPI   C1B10253   6.918   0.098   6.594  0.2170  0.1197  0.1549
  704loPI   C2B10254   6.790   0.207   6.979  0.0771  0.0621 -0.1680
  704loPI   C3B10255   6.923   0.217   7.377 -0.1248  0.1141 -0.0322
  704loPI   C4B10256   7.349   0.126   7.522 -0.0237 -0.0025  0.1880
  705loPI    C110257   9.406   5.084   5.496  0.3099  0.0465  0.1474
  705loPI    C210258   9.350   4.701   5.596  0.5302 -0.0105  0.0584
  705loPI    C310259   9.323   4.813   5.213  0.0702  0.1376  0.1278
  705loPI   PO410260   9.241   5.215   5.669 -0.1705  0.1359  0.0543
  705loPI   GL110261   9.061   4.942   6.072 -0.1882 -0.0901  0.0225
  705loPI   GL210262   9.437   4.913   6.087  0.1886 -0.0504  0.1301
  705loPI   C1A10263   9.142   5.164   6.412 -0.0488 -0.0151 -0.0135
  705loPI   C2A10264   9.235   5.106   6.890 -0.3908 -0.1230  0.0937
  705loPI   C3A10265   9.160   5.260   7.244  0.1576 -0.1398  0.1710
  705loPI   C4A10266   9.070   5.310   7.667 -0.0526 -0.2169  0.3246
  705loPI   C5A10267   8.913   5.484   8.080 -0.0468  0.1668  0.0667
  705loPI   C6A10268   8.518   5.881   8.137 -0.2477 -0.0366  0.0303
  705loPI   C1B10269   9.485   4.854   6.540  0.0741  0.0427  0.0567
  705loPI   C2B10270   9.385   4.626   6.935 -0.3966 -0.5357  0.1628
  705loPI   C3B10271   9.102   4.675   7.311 -0.2589 -0.1532 -0.0089
  705loPI   C4B10272   8.824   4.525   7.520  0.1858  0.0437  0.1101
  706loPI    C110273  14.184  14.706   5.198 -0.1059  0.0680 -0.1278
  706loPI    C210274  13.961  14.541   4.909 -0.0429 -0.1394 -0.0598
  706loPI    C310275  14.354  14.591   4.854 -0.0912  0.1563 -0.1502
  706loPI   PO410276  14.010  14.534   5.414  0.0201 -0.5695 -0.1453
  706loPI   GL110277  14.188  14.440   5.660  0.1273  0.1670  0.2191
  706loPI   GL210278  14.490  14.222   5.673 -0.2401 -0.0475 -0.2245
  706loPI   C1A10279  14.002  14.439   6.082  0.2533  0.0251 -0.1326
  706loPI   C2A10280  14.137  14.434   6.529  0.0086  0.0537  0.0903
  706loPI   C3A10281  14.072  14.464   6.992 -0.1648  0.2459  0.0131
  706loPI   C4A10282  13.943  14.439   7.409 -0.1605  0.1173  0.0749
  706loPI   C5A10283  14.181  14.011   7.582 -0.0019  0.0202 -0.0743
  706loPI   C6A10284  14.536  13.741   7.700 -0.0793  0.0731  0.0172
  706loPI   C1B10285  14.500  14.252   6.135  0.3149 -0.1343 -0.1710
  706loPI   C2B10286  14.625  14.266   6.529 -0.0743  0.0875  0.0944
  706loPI   C3B10287  14.555  14.414   6.953  0.4076  0.0828 -0.0826
  706loPI   C4B10288  14.584  14.214   7.354  0.0321  0.0811  0.2048
  707loPI    C110289   4.539   9.804   5.571  0.0651 -0.0230  0.0557
  707loPI    C210290   4.807   9.873   5.281  0.1047  0.0751  0.1153
  707loPI    C310291   4.491   9.638   5.210  0.0921  0.1323 -0.0200
  707loPI   PO410292   4.609  10.121   5.720 -0.0762  0.0118  0.2122
  707loPI   GL110293   4.748  10.298   6.122  0.0981  0.4478  0.0433
  707loPI   GL210294   5.063  10.330   6.329 -0.1412  0.4506 -0.1175
  707loPI   C1A10295   4.493  10.148   6.497  0.0217 -0.0782  0.0054
  707loPI   C2A10296   4.567  10.235   7.029  0.0522  0.2151  0.0479
  707loPI   C3A10297   4.660  10.342   7.391 -0.2344  0.1091 -0.1347
  707loPI   C4A10298   4.675  10.230   7.888  0.0687  0.1173  0.1378
  707loPI   C5A10299   4.427  10.441   8.201 -0.3102 -0.2320 -0.0528
  707loPI   C6A10300   4.373  10.183   8.568 -0.1068  0.2676 -0.1522
  707loPI   C1B10301   4.853  10.438   6.653 -0.1650 -0.0964  0.2658
  707loPI   C2B10302   4.877  10.689   7.050 -0.1269  0.1084  0.1074
  707loPI   C3B10303   4.731  10.848   7.393 -0.2103 -0.1875  0.0528
  707loPI   C4B10304   4.907  10.619   7.740 -0.0673 -0.1561 -0.1496
  708loPI    C110305  17.319  16.196   5.478  0.0113 -0.0470 -0.0211
  708loPI    C210306  17.424  16.582   5.474 -0.2651  0.0299 -0.0519
  708loPI    C310307  17.305  16.404   5.136 -0.0993 -0.0947 -0.0459
  708loPI   PO410308  17.159  16.178   5.665 -0.1462  0.1866 -0.2209
  708loPI   GL110309  17.317  15.874   5.964  0.5956  0.1969 -0.2384
  708loPI   GL210310  17.382  16.121   6.110 -0.0036 -0.3645  0.1309
  708loPI   C1A10311  17.399  15.639   6.238 -0.0941 -0.2300 -0.0582
  708loPI   C2A10312  17.394  15.610   6.674  0.0361  0.0401  0.0868
  708loPI   C3A10313  17.327  15.650   7.108 -0.0253 -0.2822  0.0464
  708loPI   C4A10314  17.437  15.519   7.451  0.1813  0.0093 -0.0540
  708loPI   C5A10315  17.522  15.697   7.834  0.0333 -0.3783 -0.1197
  708loPI   C6A10316  17.571  16.038   8.148  0.1302 -0.2263  0.2031
  708loPI   C1B10317  17.441  16.108   6.510 -0.1090 -0.1231  0.1173
  708loPI   C2B10318  17.374  16.132   6.917 -0.0613  0.2020 -0.1180
  708loPI   C3B10319  17.503  16.193   7.329  0.3159 -0.1278  0.0921
  708loPI   C4B10320  17.531  16.491   7.636  0.0933 -0.0570  0.0392
  709loPI    C110321   3.804  11.598   5.316  0.0429  0.0203  0.0182
  709loPI    C210322   4.093  11.457   5.078 -0.0059 -0.0199 -0.0173
  709loPI    C310323   3.714  11.469   4.948 -0.0942 -0.3950  0.1916
  709loPI   PO410324   3.919  11.544   5.525 -0.3470 -0.1846 -0.1324
  709loPI   GL110325   3.903  11.571   5.965 -0.0479 -0.2891 -0.0123
  709loPI   GL210326   4.100  11.730   6.230  0.1153  0.0992 -0.2322
  709loPI   C1A10327   3.885  11.365   6.472  0.1904 -0.0233  0.1848
  709loPI   C2A10328   3.976  11.320   6.926 -0.0842 -0.0357  0.0365
  709loPI   C3A10329   3.819  11.459   7.327 -0.1150 -0.2273 -0.0336
  709loPI   C4A10330   3.728  11.353   7.720 -0.1617 -0.1452 -0.1079
  709loPI   C5A10331   3.588  11.169   8.023  0.0067  0.2234  0.2964
  709loPI   C6A10332   3.643  10.979   8.347 -0.1984 -0.1205 -0.1065
  709loPI   C1B10333   4.023  11.798   6.616 -0.3876  0.0372  0.2033
  709loPI   C2B10334   4.026  11.915   7.014 -0.0919 -0.1825  0.4555
  709loPI   C3B10335   3.918  11.956   7.475  0.2167  0.0842 -0.0227
  709loPI   C4B10336   3.908  11.850   7.905 -0.3679 -0.3297  0.0733
  710loPI    C110337  13.920   7.908   5.479 -0.2524  0.4491  0.0997
  710loPI    C210338  13.688   7.614   5.620  0.0510  0.1359 -0.0381
  710loPI    C310339  13.538   7.881   5.363 -0.1958  0.0308 -0.0064
  710loPI   PO410340  14.071   7.924   5.739  0.1017  0.1561 -0.3560
  710loPI   GL110341  13.892   7.974   6.194  0.3873  0.1885  0.0780
  710loPI   GL210342  13.679   8.038   6.407 -0.1708 -0.1705  0.3484
  710loPI   C1A10343  14.133   7.993   6.547 -0.3785 -0.0836 -0.1388
  710loPI   C2A10344  14.497   7.764   6.614 -0.4457  0.0269  0.1346
  710loPI   C3A10345  14.690   7.484   6.927  0.1088  0.1532 -0.2513
  710loPI   C4A10346  14.813   7.332   7.277 -0.2342 -0.4133  0.3152
  710loPI   C5A10347  15.201   7.358   7.592  0.1093  0.0893  0.1781
  710loPI   C6A10348  15.558   7.385   7.849 -0.2825 -0.1566 -0.0624
  710loPI   C1B10349  13.656   7.904   6.781 -0.0265  0.0465 -0.3067
  710loPI   C2B10350  13.878   7.842   7.155  0.1172 -0.0878  0.0709
  710loPI   C3B10351  14.290   7.914   7.095  0.2383 -0.0313 -0.2565
  710loPI   C4B10352  14.513   7.736   7.296  0.1038  0.2410 -0.1331
  711loPI    C110353   1.863  11.497   5.494  0.1417 -0.2729 -0.1283
  711loPI    C210354   1.739  11.430   5.119 -0.2485 -0.1696 -0.0219
  711loPI    C310355   1.631  11.765   5.309  0.2327 -0.0568  0.0661
  711loPI   PO410356   1.861  11.294   5.618  0.0063 -0.0426  0.6786
  711loPI   GL110357   2.007  11.218   5.975 -0.0099  0.6695 -0.1525
  711loPI   GL210358   2.139  11.437   6.056  0.1083  0.0386 -0.1164
  711loPI   C1A10359   2.074  10.984   6.402 -0.1925  0.1846  0.4110
  711loPI   C2A10360   2.036  11.047   6.871 -0.0157  0.1077  0.1183
  711loPI   C3A10361   2.126  11.022   7.319 -0.0900  0.1902 -0.0799
  711loPI   C4A10362   2.286  11.066   7.782  0.0187  0.1915 -0.3483
  711loPI   C5A10363   2.153  11.239   8.174  0.3552 -0.3266  0.0311
  711loPI   C6A10364   2.221  11.164   8.648 -0.0638 -0.1130 -0.1672
  711loPI   C1B10365   2.140  11.501   6.526 -0.0286  0.2475  0.1746
  711loPI   C2B10366   2.196  11.524   6.886  0.4083 -0.1839 -0.1357
  711loPI   C3B10367   2.192  11.600   7.363 -0.2229 -0.2174 -0.0693
  711loPI   C4B10368   2.185  11.561   7.795  0.0113  0.3533  0.2714
  712loPI    C110369  11.631   0.758   5.152  0.0383 -0.1784  0.1356
  712loPI    C210370  11.723   0.389   5.028  0.0070 -0.0903 -0.1569
  712loPI    C310371  11.608   0.666   4.763  0.0343  0.1316  0.0598
  712loPI   PO410372  11.377   0.697   5.374 -0.1776 -0.0214 -0.0133
  712loPI   GL110373  11.471   1.005   5.764  0.0743  0.0799 -0.0599
  712loPI   GL210374  11.482   0.620   5.900  0.1111 -0.0905  0.0353
  712loPI   C1A10375  11.495   1.244   6.139 -0.1242 -0.1912 -0.1455
  712loPI   C2A10376  11.587   1.155   6.618  0.1635  0.2290  0.0660
  712loPI   C3A10377  11.501   1.168   7.064 -0.1540  0.1548 -0.1349
  712loPI   C4A10378  11.601   1.320   7.519  0.0316 -0.4240  0.0969
  712loPI   C5A10379  11.538   1.360   8.033 -0.0004 -0.1211  0.3881
  712loPI   C6A10380  11.590   0.950   8.331  0.1133  0.0819  0.1259
  712loPI   C1B10381  11.317   0.718   6.299  0.0133 -0.2581 -0.0339
  712loPI   C2B10382  11.342   0.769   6.817 -0.0395  0.2265  0.1120
  712loPI   C3B10383  11.274   0.791   7.289  0.0258 -0.2782 -0.2317
  712loPI   C4B10384  11.144   1.194   7.603 -0.2016  0.1125  0.3025
  713loPI    C110385  10.732  12.355   5.544  0.0100 -0.1897  0.0799
  713loPI    C210386  10.505  12.464   5.854  0.0774  0.0816  0.0363
  713loPI    C310387  10.334  12.342   5.514 -0.0008  0.0988  0.0691
  713loPI   PO410388  10.991  12.305   5.685  0.1715 -0.1456 -0.0727
  713loPI   GL110389  11.085  12.199   6.064  0.0344 -0.0890  0.1354
  713loPI   GL210390  11.086  11.967   6.146 -0.1632  0.2327 -0.1437
  713loPI   C1A10391  10.799  12.326   6.316 -0.0153 -0.2180 -0.1348
  713loPI   C2A10392  10.849  12.533   6.797  0.1042 -0.0851 -0.4782
  713loPI   C3A10393  10.884  12.654   7.162 -0.0162  0.1371  0.0998
  713loPI   C4A10394  10.960  12.580   7.565 -0.2430  0.3098  0.2126
  713loPI   C5A10395  11.322  12.626   7.818  0.0293  0.1105  0.1446
  713loPI   C6A10396  11.728  12.526   7.582  0.0588  0.4583  0.1030
  713loPI   C1B10397  11.154  11.621   6.430  0.2242  0.2169  0.1885
  713loPI   C2B10398  11.188  11.215   6.589 -0.2058 -0.1757 -0.0075
  713loPI   C3B10399  11.231  11.310   7.017  0.0658  0.1770  0.0080
  713loPI   C4B10400  11.228  11.272   7.429  0.0827  0.0498 -0.0440
  714loPI    C110401  10.270   2.365   5.392  0.0429 -0.0768 -0.1222
  714loPI    C210402   9.928   2.245   5.222 -0.0020  0.0096 -0.0934
  714loPI    C310403   9.953   2.609   5.386  0.0297 -0.0852  0.1156
  714loPI   PO410404  10.356   2.124   5.478  0.0683  0.0629  0.1672
  714loPI   GL110405  10.419   2.062   5.833 -0.0087 -0.0777  0.0648
  714loPI   GL210406  10.607   2.170   5.854 -0.0666  0.0325 -0.3950
  714loPI   C1A10407  10.296   1.910   6.268  0.0039  0.2057 -0.1898
  714loPI   C2A10408  10.375   1.840   6.807  0.0610  0.0598  0.0614
  714loPI   C3A10409  10.320   1.948   7.299  0.1767  0.0595 -0.4568
  714loPI   C4A10410  10.050   1.893   7.621  0.1096  0.0994  0.1668
  714loPI   C5A10411  10.006   1.686   7.930 -0.0268  0.0382 -0.0934
  714loPI   C6A10412  10.072   1.271   8.123  0.1159  0.0182 -0.0809
  714loPI   C1B10413  10.851   1.984   6.210 -0.0711 -0.1266 -0.2636
  714loPI   C2B10414  10.822   2.017   6.667  0.2069  0.4212  0.1689
  714loPI   C3B10415  10.754   2.109   7.029 -0.0081  0.0769  0.0899
  714loPI   C4B10416  10.878   2.147   7.414 -0.1509 -0.2803 -0.0749
  715loPI    C110417  17.876  13.968   5.180  0.0918  0.0101 -0.0701
  715loPI    C210418  17.493  13.922   5.286  0.1298  0.2040  0.1619
  715loPI    C310419  17.594  14.196   5.013  0.0714 -0.0579 -0.1288
  715loPI   PO410420  18.026  13.923   5.427 -0.2249 -0.3658 -0.1892
  715loPI   GL110421  17.826  14.005   5.813  0.0503  0.1613 -0.1357
  715loPI   GL210422  17.690  14.207   5.978  0.1379  0.2456 -0.1174
  715loPI   C1A10423  17.964  13.809   6.216 -0.1901 -0.0764  0.1171
  715loPI   C2A10424  18.144  13.965   6.563 -0.0947  0.0354 -0.2484
  715loPI   C3A10425  18.137  13.999   6.989  0.2950 -0.1713 -0.1690
  715loPI   C4A10426  18.168  13.981   7.375 -0.2318 -0.0652 -0.0593
  715loPI   C5A10427  17.991  13.884   7.800  0.0795 -0.3754 -0.0466
  715loPI   C6A10428  17.894  13.763   8.202  0.3180  0.2974 -0.1601
  715loPI   C1B10429  17.677  14.285   6.405  0.1382  0.0377  0.1705
  715loPI   C2B10430  17.653  14.242   6.750  0.0894 -0.1520 -0.2413
  715loPI   C3B10431  17.705  14.196   7.227  0.2510 -0.0188 -0.1635
  715loPI   C4B10432  17.722  14.263   7.641 -0.0557  0.4057  0.1501
  716loPI    C110433  12.390  17.176   5.118 -0.2534  0.0257  0.0831
  716loPI    C210434  12.610  17.090   4.795 -0.0841 -0.1446  0.2411
  716loPI    C310435  12.274  17.303   4.757 -0.0479 -0.1339 -0.0418
  716loPI   PO410436  12.577  17.230   5.261  0.1959  0.1409  0.3280
  716loPI   GL110437  12.752  17.240   5.635 -0.0101 -0.0353  0.2198
  716loPI   GL210438  13.071  17.156   5.625  0.1151 -0.0462 -0.1632
  716loPI   C1A10439  12.596  17.444   5.918 -0.1339  0.1094 -0.0345
  716loPI   C2A10440  12.408  17.732   6.165  0.0418  0.2558 -0.1099
  716loPI   C3A10441  12.307  17.631   6.649 -0.5365  0.3472  0.1176
  716loPI   C4A10442  12.223  17.596   7.088 -0.1271 -0.1011  0.0384
  716loPI   C5A10443  12.197  17.513   7.501 -0.4131 -0.1505 -0.0647
  716loPI   C6A10444  12.341  17.589   7.927 -0.0536 -0.3131  0.0704
  716loPI   C1B10445  13.055  17.234   6.081 -0.0943 -0.0618 -0.0835
  716loPI   C2B10446  13.006  17.250   6.531 -0.0656 -0.0819  0.0394
  716loPI   C3B10447  13.151  17.261   6.946 -0.0122 -0.0671 -0.1640
  716loPI   C4B10448  13.283  17.018   7.303 -0.1796 -0.1500 -0.2257
  717loPI    C110449  13.651   0.533   5.088 -0.0809  0.0871 -0.1555
  717loPI    C210450  13.680   0.842   4.836 -0.2598  0.2428  0.0115
  717loPI    C310451  13.759   0.472   4.708  0.3730  0.3986 -0.0847
  717loPI   PO410452  13.740   0.495   5.285  0.0386 -0.0336  0.0095
  717loPI   GL110453  13.709   0.569   5.798 -0.3000 -0.1811  0.0829
  717loPI   GL210454  13.425   0.628   5.889 -0.2241  0.1715 -0.0064
  717loPI   C1A10455  13.846   0.816   6.159  0.0548  0.1968  0.0104
  717loPI   C2A10456  13.807   0.770   6.620 -0.0369 -0.0587 -0.0639
  717loPI   C3A10457  13.773   0.617   7.055 -0.1688  0.2176  0.1485
  717loPI   C4A10458  13.623   0.723   7.377 -0.0735  0.2288  0.1550
  717loPI   C5A10459  13.759   0.773   7.777  0.0885 -0.0233  0.0698
  717loPI   C6A10460  13.794   0.727   8.171 -0.0123  0.0943 -0.1413
  717loPI   C1B10461  13.395   0.634   6.336 -0.1716 -0.5061 -0.1572
  717loPI   C2B10462  13.268   0.616   6.737  0.0933 -0.0639  0.0247
  717loPI   C3B10463  13.187   0.505   7.198 -0.1459 -0.2482 -0.0058
  717loPI   C4B10464  13.186   0.566   7.554 -0.1644  0.0433  0.2438
  718loPI    C110465   4.912  16.471   5.425 -0.0750  0.0918  0.0817
  718loPI    C210466   4.986  16.431   5.034 -0.0897  0.1819  0.0695
  718loPI    C310467   4.883  16.112   5.252  0.2196  0.0746  0.0628
  718loPI   PO410468   5.102  16.595   5.534 -0.1257 -0.0614  0.2247
  718loPI   GL110469   5.128  16.649   5.982 -0.0459 -0.1859  0.1835
  718loPI   GL210470   4.955  16.960   6.014  0.1339  0.0086  0.0955
  718loPI   C1A10471   5.281  16.499   6.401 -0.0623 -0.0261  0.0106
  718loPI   C2A10472   5.143  16.540   6.865 -0.1882  0.0583 -0.1343
  718loPI   C3A10473   5.191  16.573   7.247  0.3419 -0.0379 -0.2204
  718loPI   C4A10474   5.109  16.587   7.519 -0.0690  0.0231  0.4326
  718loPI   C5A10475   4.785  16.733   7.795  0.0464 -0.1703  0.5171
  718loPI   C6A10476   4.375  16.828   8.073  0.1168 -0.1453  0.2237
  718loPI   C1B10477   4.768  16.668   6.312 -0.1268  0.0218 -0.1075
  718loPI   C2B10478   4.743  16.678   6.657  0.0456  0.0423  0.0209
  718loPI   C3B10479   4.705  16.598   7.145 -0.0073 -0.1415 -0.0109
  718loPI   C4B10480   4.730  16.287   7.319  0.0552  0.0369 -0.4057
  719loPI    C110481   1.029   2.948   5.009  0.0611 -0.2251  0.1434
  719loPI    C210482   1.394   3.004   4.855 -0.0539 -0.0143 -0.0587
  719loPI    C310483   1.075   2.985   4.614 -0.1964 -0.0318  0.1287
  719loPI   PO410484   1.144   2.701   5.242 -0.0035 -0.2714  0.1577
  719loPI   GL110485   1.130   2.697   5.661 -0.3935  0.1045  0.2009
  719loPI   GL210486   0.923   2.335   5.587 -0.0919  0.2871  0.1140
  719loPI   C1A10487   1.314   2.722   6.113 -0.0083 -0.0942 -0.2450
  719loPI   C2A10488   1.380   2.733   6.550 -0.1569 -0.1504 -0.4064
  719loPI   C3A10489   1.351   2.727   6.985 -0.0130 -0.0612  0.1206
  719loPI   C4A10490   1.347   2.651   7.411  0.1029  0.1189 -0.1410
  719loPI   C5A10491   1.437   2.464   7.781 -0.2199 -0.1136 -0.1015
  719loPI   C6A10492   1.665   2.401   8.161 -0.1352  0.0172 -0.1133
  719loPI   C1B10493   1.092   2.273   5.970 -0.1763 -0.1003  0.1384
  719loPI   C2B10494   1.202   2.290   6.370  0.0033  0.0291 -0.0282
  719loPI   C3B10495   1.206   2.273   6.850 -0.3305  0.1542  0.1469
  719loPI   C4B10496   1.233   2.193   7.288 -0.1204  0.0153  0.2627
  720loPI    C110497   1.729   6.876   5.635 -0.0381 -0.0331 -0.0286
  720loPI    C210498   1.610   7.006   5.276 -0.0905 -0.0186 -0.0061
  720loPI    C310499   1.598   6.616   5.361 -0.0849 -0.0213 -0.0175
  720loPI   PO410500   2.041   6.940   5.683 -0.1278  0.0283 -0.0446
  720loPI   GL110501   2.152   6.695   6.027 -0.1401 -0.0115  0.3189
  720loPI   GL210502   1.828   6.550   6.076 -0.0682 -0.1565  0.0634
  720loPI   C1A10503   2.124   6.582   6.491  0.5547  0.0007  0.1136
  720loPI   C2A10504   1.990   6.175   6.723  0.0900  0.0161 -0.0025
  720loPI   C3A10505   2.117   6.307   7.100 -0.0075 -0.0630 -0.0140
  720loPI   C4A10506   2.186   6.363   7.522  0.1825  0.1007 -0.1808
  720loPI   C5A10507   2.369   6.331   7.985  0.0656 -0.2941  0.2439
  720loPI   C6A10508   2.200   6.148   8.342 -0.1131 -0.0046 -0.1193
  720loPI   C1B10509   1.650   6.443   6.497  0.2583  0.2724  0.1290
  720loPI   C2B10510   1.512   6.315   6.960 -0.0370 -0.1522  0.2173
  720loPI   C3B10511   1.631   6.356   7.309 -0.1607  0.4835 -0.2009
  720loPI   C4B10512   1.747   6.403   7.750 -0.0267 -0.0656  0.1098
  721loPI    C110513   6.806   9.314   5.847 -0.4685  0.1646  0.0237
  721loPI    C210514   6.698   9.052   5.564 -0.1364 -0.1495  0.1790
  721loPI    C310515   6.725   9.442   5.477 -0.0687 -0.2376 -0.2132
  721loPI   PO410516   7.040   9.188   5.986 -0.1794 -0.2854  0.1244
  721loPI   GL110517   7.267   9.193   6.316  0.1135  0.0714 -0.0072
  721loPI   GL210518   7.400   9.548   6.262 -0.1224  0.3023 -0.0973
  721loPI   C1A10519   7.413   9.199   6.752 -0.1147 -0.1126  0.4337
  721loPI   C2A10520   7.414   9.313   7.094  0.1275 -0.1634 -0.2781
  721loPI   C3A10521   7.332   9.325   7.525 -0.0437 -0.1434  0.2086
  721loPI   C4A10522   7.013   9.298   7.824  0.0269 -0.0092 -0.0911
  721loPI   C5A10523   6.900   9.280   8.317 -0.1283  0.2106  0.2181
  721loPI   C6A10524   7.135   9.574   8.611 -0.0917  0.3360  0.2280
  721loPI   C1B10525   7.332   9.698   6.707 -0.1317  0.0546 -0.1826
  721loPI   C2B10526   7.290   9.774   7.171 -0.1726  0.1557  0.0674
  721loPI   C3B10527   7.363   9.884   7.610  0.0837  0.0605 -0.1048
  721loPI   C4B10528   7.603  10.022   8.016  0.0174  0.0245  0.1416
  722loPI    C110529   9.947  16.344   4.933 -0.0316  0.0043 -0.0054
  722loPI    C210530   9.627  16.126   5.034 -0.1030  0.0211 -0.1904
  722loPI    C310531   9.936  15.953   4.847 -0.0759  0.0391 -0.1623
  722loPI   PO410532  10.050  16.509   5.172 -0.3041  0.2960  0.1676
  722loPI   GL110533  10.041  16.543   5.609 -0.0099 -0.0758 -0.0030
  722loPI   GL210534  10.306  16.501   5.713 -0.0254  0.0799 -0.0723
  722loPI   C1A10535  10.017  16.168   5.922 -0.0537  0.1018  0.0466
  722loPI   C2A10536  10.014  15.888   6.308  0.0469 -0.3418  0.0730
  722loPI   C3A10537  10.066  15.728   6.698  0.1144  0.0463 -0.0541
  722loPI   C4A10538  10.342  15.725   6.938 -0.0299  0.1265  0.1795
  722loPI   C5A10539  10.323  15.604   7.344 -0.2937  0.1923  0.2101
  722loPI   C6A10540  10.564  15.650   7.777  0.0930  0.0094  0.0713
  722loPI   C1B10541  10.096  16.530   6.203 -0.1435 -0.2338 -0.0287
  722loPI   C2B10542  10.030  16.618   6.688  0.0850 -0.0492 -0.0330
  722loPI   C3B10543   9.899  16.723   7.051  0.2827 -0.1497  0.0198
  722loPI   C4B10544   9.834  16.755   7.439  0.2287  0.2631  0.0056
  723loPI    C110545  15.970   0.638   5.353 -0.0243 -0.2320  0.0552
  723loPI    C210546  15.746   0.688   5.026 -0.0669 -0.0411  0.1123
  723loPI    C310547  15.882   1.007   5.225  0.1277 -0.1564  0.1661
  723loPI   PO410548  15.789   0.458   5.460 -0.2809 -0.1356  0.2975
  723loPI   GL110549  15.913   0.448   5.830 -0.3812 -0.2370 -0.1223
  723loPI   GL210550  15.899   0.216   5.896  0.1343  0.1166 -0.1155
  723loPI   C1A10551  16.058   0.714   6.157 -0.0801  0.2533  0.0086
  723loPI   C2A10552  16.494   0.635   6.371 -0.2417 -0.0127  0.1479
  723loPI   C3A10553  16.583   0.570   6.812 -0.1781 -0.1711 -0.0875
  723loPI   C4A10554  16.547   0.757   7.235 -0.2426  0.1260  0.0333
  723loPI   C5A10555  16.208   0.962   7.259 -0.0849 -0.3842  0.3785
  723loPI   C6A10556  15.851   1.141   6.975  0.2916  0.0670 -0.0242
  723loPI   C1B10557  15.950   0.305   6.370  0.0456 -0.1470  0.0294
  723loPI   C2B10558  16.095   0.106   6.690  0.1916  0.2537 -0.0732
  723loPI   C3B10559  15.987  -0.216   6.968 -0.1222  0.1021 -0.3697
  723loPI   C4B10560  16.153  -0.314   7.366 -0.2271 -0.2075  0.2927
  724loPI    C110561   5.192  13.315   5.125 -0.3138 -0.2337  0.1814
  724loPI    C210562   5.129  13.538   4.799  0.0892 -0.1557  0.1507
  724loPI    C310563   5.008  13.157   4.808  0.1848 -0.1951 -0.1391
  724loPI   PO410564   5.314  13.523   5.286 -0.1122  0.0155  0.1302
  724loPI   GL110565   5.433  13.484   5.633 -0.1211 -0.0776 -0.2300
  724loPI   GL210566   5.161  13.627   5.763 -0.3389 -0.1555  0.0183
  724loPI   C1A10567   5.457  13.352   6.052 -0.1682 -0.3213 -0.2954
  724loPI   C2A10568   5.575  13.421   6.506  0.0963 -0.0388  0.4812
  724loPI   C3A10569   5.612  13.452   6.922 -0.2554  0.3027  0.1250
  724loPI   C4A10570   5.512  13.592   7.403 -0.2052  0.0383  0.3614
  724loPI   C5A10571   5.416  13.865   7.744  0.2507 -0.0312 -0.0950
  724loPI   C6A10572   5.390  14.128   8.165  0.2386  0.3718 -0.0649
  724loPI   C1B10573   5.246  13.776   6.110 -0.0451 -0.1876 -0.1225
  724loPI   C2B10574   5.156  13.742   6.576 -0.1439  0.1020  0.0815
  724loPI   C3B10575   5.096  13.729   6.956 -0.0422  0.0723  0.0716
  724loPI   C4B10576   4.986  13.940   7.325 -0.0673  0.1873 -0.0293
  725loPI    C110577   1.284   7.491   5.495  0.1748 -0.2691 -0.0379
  725loPI    C210578   1.161   7.319   5.155  0.2150 -0.0075 -0.1885
  725loPI    C310579   1.517   7.501   5.169  0.1940  0.0225 -0.0180
  725loPI   PO410580   1.292   7.329   5.677 -0.2893  0.1301  0.1746
  725loPI   GL110581   1.504   7.138   6.033  0.3230 -0.0333 -0.2016
  725loPI   GL210582   1.784   7.155   6.072 -0.1210 -0.0860  0.0660
  725loPI   C1A10583   1.381   7.268   6.418  0.0398 -0.1279  0.2066
  725loPI   C2A10584   1.306   7.537   6.678 -0.1246  0.1136  0.0234
  725loPI   C3A10585   1.389   7.674   7.236  0.0303 -0.1487 -0.1122
  725loPI   C4A10586   1.475   7.659   7.655  0.3743 -0.2264  0.1880
  725loPI   C5A10587   1.559   7.484   8.061  0.3490  0.0428  0.2745
  725loPI   C6A10588   1.508   7.205   8.378 -0.0454 -0.0394  0.1930
  725loPI   C1B10589   1.738   6.921   6.518 -0.0642 -0.1256 -0.2878
  725loPI   C2B10590   1.923   6.779   6.978  0.1082  0.2846 -0.1603
  725loPI   C3B10591   2.070   6.790   7.327  0.1924 -0.0470 -0.2454
  725loPI   C4B10592   2.127   6.824   7.780 -0.1898  0.1371 -0.2265
  726loPI    C110593   7.354   7.090   5.520 -0.2046  0.1042  0.2711
  726loPI    C210594   7.189   7.255   5.195 -0.0539 -0.0821  0.0974
  726loPI    C310595   7.094   6.881   5.300 -0.0858 -0.0301  0.2571
  726loPI   PO410596   7.484   7.317   5.666 -0.2004 -0.0575 -0.2240
  726loPI   GL110597   7.313   7.538   6.074 -0.0012  0.2247 -0.0969
  726loPI   GL210598   7.124   7.281   6.039  0.0849 -0.0979  0.1461
  726loPI   C1A10599   7.225   7.563   6.538  0.2406  0.0465  0.5032
  726loPI   C2A10600   7.309   7.460   6.896  0.2324  0.1320 -0.2162
  726loPI   C3A10601   7.593   7.401   7.289 -0.0690  0.1869 -0.2461
  726loPI   C4A10602   7.520   7.152   7.543  0.2107 -0.0018 -0.2338
  726loPI   C5A10603   7.844   6.965   7.809  0.1844  0.1059  0.1093
  726loPI   C6A10604   8.242   6.752   7.948 -0.2921  0.1257  0.0887
  726loPI   C1B10605   6.876   7.206   6.391 -0.4806 -0.1308  0.2763
  726loPI   C2B10606   6.890   7.142   6.871  0.1006  0.1124  0.2828
  726loPI   C3B10607   7.023   7.309   7.291  0.0065  0.0816 -0.1701
  726loPI   C4B10608   7.251   7.672   7.537  0.0514 -0.0360  0.1509
  727loPI    C110609   3.030  13.788   5.141  0.0473 -0.0026 -0.2022
  727loPI    C210610   2.914  13.497   5.390  0.0833 -0.0653 -0.2585
  727loPI    C310611   3.112  13.407   5.054  0.0847  0.0233 -0.2818
  727loPI   PO410612   3.084  13.981   5.229  0.2164  0.0347 -0.2083
  727loPI   GL110613   3.067  13.859   5.753 -0.1998  0.0651  0.1031
  727loPI   GL210614   2.850  14.080   5.662  0.1306 -0.2926  0.2841
  727loPI   C1A10615   2.881  13.708   6.118 -0.1115  0.1859 -0.0646
  727loPI   C2A10616   2.845  13.778   6.603  0.0049  0.1832 -0.0799
  727loPI   C3A10617   2.775  13.794   7.001  0.0888 -0.2090  0.0263
  727loPI   C4A10618   2.771  13.886   7.394 -0.1844 -0.0278 -0.0298
  727loPI   C5A10619   2.750  14.007   7.730 -0.2326 -0.0244  0.0799
  727loPI   C6A10620   2.432  14.315   7.944  0.0631 -0.1246 -0.0919
  727loPI   C1B10621   2.904  14.197   6.125  0.0603 -0.0129  0.0871
  727loPI   C2B10622   2.842  14.287   6.467  0.0781  0.1743  0.2908
  727loPI   C3B10623   2.825  14.308   6.852  0.1847  0.0182 -0.1111
  727loPI   C4B10624   2.821  14.408   7.349  0.1128 -0.0332  0.0343
  728loPI    C110625   4.119   8.443   5.752  0.0681  0.0006  0.0453
  728loPI    C210626   3.811   8.415   5.499  0.0790 -0.1948  0.0523
  728loPI    C310627   4.168   8.538   5.366 -0.0343  0.1679  0.0724
  728loPI   PO410628   4.001   8.484   5.951 -0.0444  0.4129  0.1366
  728loPI   GL110629   3.788   8.424   6.288 -0.1139  0.1586  0.0668
  728loPI   GL210630   4.071   8.617   6.419 -0.3100 -0.1026 -0.0644
  728loPI   C1A10631   3.625   8.818   6.563 -0.2540  0.0732  0.1947
  728loPI   C2A10632   3.675   8.872   6.995  0.0107  0.1852 -0.0595
  728loPI   C3A10633   3.630   8.816   7.408 -0.1003 -0.1287  0.1836
  728loPI   C4A10634   3.912   8.703   7.730 -0.2186 -0.1366  0.1742
  728loPI   C5A10635   3.975   8.844   8.117  0.1077  0.0480  0.0093
  728loPI   C6A10636   4.152   8.571   8.526 -0.1006 -0.2298 -0.1295
  728loPI   C1B10637   4.070   8.626   6.870  0.1046 -0.0418  0.1628
  728loPI   C2B10638   4.132   8.872   7.223 -0.0587 -0.3935  0.1028
  728loPI   C3B10639   4.347   8.871   7.643 -0.2211  0.0173 -0.0629
  728loPI   C4B10640   4.485   8.721   8.062 -0.0002  0.0404 -0.0812
  729loPI    C110641   3.646   9.877   5.830 -0.3627  0.1887 -0.0119
  729loPI    C210642   3.602  10.231   5.650  0.0855  0.1949 -0.1204
  729loPI    C310643   3.761   9.924   5.450  0.1480  0.0683  0.1202
  729loPI   PO410644   3.740   9.891   6.031  0.0770 -0.2033 -0.0047
  729loPI   GL110645   3.827  10.136   6.366 -0.0129  0.0486 -0.0272
  729loPI   GL210646   3.686  10.345   6.426  0.1238 -0.2440 -0.0836
  729loPI   C1A10647   4.001  10.067   6.747  0.1951  0.2460 -0.0155
  729loPI   C2A10648   3.798  10.310   7.080  0.0462 -0.0401 -0.1764
  729loPI   C3A10649   3.759  10.249   7.522  0.1926  0.0008  0.4318
  729loPI   C4A10650   3.583  10.080   7.875 -0.1639 -0.0035  0.2702
  729loPI   C5A10651   3.401  10.251   8.196 -0.2029 -0.3998  0.0549
  729loPI   C6A10652   3.242  10.629   8.488  0.1457 -0.1130 -0.1061
  729loPI   C1B10653   3.417  10.188   6.742 -0.2309 -0.1411 -0.0192
  729loPI   C2B10654   3.175  10.162   7.088  0.0953 -0.5163 -0.1521
  729loPI   C3B10655   3.256  10.130   7.466  0.1733 -0.0163 -0.1043
  729loPI   C4B10656   3.088  10.029   7.838 -0.1619  0.4433 -0.0849
  730loPI    C110657  16.251   4.664   5.964 -0.1398 -0.1313  0.1745
  730loPI    C210658  16.498   4.602   5.656 -0.0664  0.0259  0.2006
  730loPI    C310659  16.237   4.904   5.644 -0.0534  0.0412  0.2985
  730loPI   PO410660  16.316   4.409   6.119 -0.1923  0.0323 -0.1799
  730loPI   GL110661  16.316   4.118   6.245  0.1169 -0.0314 -0.1395
  730loPI   GL210662  16.061   4.312   6.555 -0.2259  0.0820  0.2264
  730loPI   C1A10663  16.530   4.037   6.622 -0.2332 -0.0381 -0.0597
  730loPI   C2A10664  16.468   3.982   7.008 -0.0999  0.0233  0.1306
  730loPI   C3A10665  16.429   3.727   7.533 -0.0373  0.2506 -0.0205
  730loPI   C4A10666  16.459   3.652   8.002 -0.4189 -0.0883 -0.1666
  730loPI   C5A10667  16.421   3.367   8.391 -0.2267 -0.1578  0.0007
  730loPI   C6A10668  16.800   3.381   8.697  0.2190 -0.2474  0.2045
  730loPI   C1B10669  16.011   4.295   6.981 -0.1376  0.1284 -0.0235
  730loPI   C2B10670  16.025   4.056   7.404 -0.3203 -0.1177  0.3745
  730loPI   C3B10671  16.008   3.838   7.786  0.0149  0.2073  0.1356
  730loPI   C4B10672  16.034   3.710   8.215 -0.0480 -0.0536 -0.4793
  731loPI    C110673  11.334   8.407   5.553  0.0144  0.2441 -0.1973
  731loPI    C210674  11.450   8.288   5.189 -0.0329  0.0882 -0.1622
  731loPI    C310675  11.104   8.158   5.341  0.1580 -0.1410  0.0872
  731loPI   PO410676  11.573   8.383   5.703 -0.2457 -0.3209  0.2591
  731loPI   GL110677  11.489   8.435   6.156  0.0446 -0.0546 -0.1632
  731loPI   GL210678  11.541   8.179   6.302  0.1419  0.1871 -0.1191
  731loPI   C1A10679  11.669   8.547   6.581  0.3232 -0.0227 -0.0277
  731loPI   C2A10680  11.601   8.627   7.010 -0.0494 -0.1300 -0.4451
  731loPI   C3A10681  11.673   8.513   7.445  0.3554  0.2352 -0.0098
  731loPI   C4A10682  11.683   8.531   7.909 -0.2349  0.2328 -0.2580
  731loPI   C5A10683  11.965   8.542   8.152 -0.1488 -0.1398  0.0317
  731loPI   C6A10684  12.331   8.339   8.356 -0.2453  0.1964 -0.1352
  731loPI   C1B10685  11.881   8.101   6.692 -0.0634 -0.1286 -0.3175
  731loPI   C2B10686  11.964   8.193   7.077 -0.1024 -0.0790  0.3164
  731loPI   C3B10687  12.066   7.945   7.423  0.2628  0.1495 -0.2383
  731loPI   C4B10688  11.990   8.002   7.872  0.0801 -0.0414  0.2291
  732loPI    C110689  14.447   2.210   5.479 -0.0857 -0.0663  0.1761
  732loPI    C210690  14.754   2.402   5.649 -0.1053 -0.0089  0.1466
  732loPI    C310691  14.471   2.608   5.456 -0.0784 -0.0743  0.0363
  732loPI   PO410692  14.349   2.074   5.635  0.1008  0.0615 -0.1102
  732loPI   GL110693  14.578   1.941   5.960 -0.1132 -0.1365  0.1535
  732loPI   GL210694  14.552   2.262   6.068 -0.1268 -0.2756  0.1967
  732loPI   C1A10695  14.614   1.861   6.506  0.0122  0.2477 -0.1818
  732loPI   C2A10696  14.711   1.665   6.867  0.2239  0.2005 -0.0497
  732loPI   C3A10697  14.604   1.682   7.243  0.1324 -0.0980  0.1585
  732loPI   C4A10698  14.536   1.650   7.697 -0.0944 -0.4355  0.1141
  732loPI   C5A10699  14.220   1.603   7.913 -0.0741  0.1683  0.1351
  732loPI   C6A10700  13.871   1.891   7.921  0.4100 -0.2240 -0.2918
  732loPI   C1B10701  14.454   2.288   6.552  0.1450 -0.1361  0.1166
  732loPI   C2B10702  14.483   2.133   6.953 -0.1241  0.0432  0.0750
  732loPI   C3B10703  14.182   2.058   7.231 -0.3148  0.0111 -0.0298
  732loPI   C4B10704  13.728   1.983   7.399 -0.1184  0.1189 -0.0831
  733loPI    C110705  15.282  17.246   5.103  0.1083  0.1306  0.1765
  733loPI    C210706  14.977  17.439   4.931  0.1417  0.0282 -0.0001
  733loPI    C310707  15.205  17.191   4.714  0.3020  0.0430  0.1492
  733loPI   PO410708  15.180  17.198   5.314 -0.1123 -0.2306 -0.0136
  733loPI   GL110709  15.039  17.226   5.820 -0.1800 -0.0064 -0.0022
  733loPI   GL210710  14.769  17.431   5.987 -0.0119 -0.2533  0.0594
  733loPI   C1A10711  15.122  17.028   6.173  0.1663  0.0228 -0.2738
  733loPI   C2A10712  15.213  17.135   6.562  0.3337  0.1241 -0.2543
  733loPI   C3A10713  15.270  17.264   6.970 -0.3416 -0.2262 -0.0995
  733loPI   C4A10714  15.186  17.196   7.391  0.0065 -0.0092  0.0949
  733loPI   C5A10715  15.109  17.237   7.775  0.2798 -0.0241  0.2906
  733loPI   C6A10716  14.962  17.131   8.248 -0.0147 -0.2419  0.2167
  733loPI   C1B10717  14.978  17.635   6.287  0.1394  0.1954  0.0419
  733loPI   C2B10718  15.329  17.666   6.582  0.1832 -0.2200 -0.0942
  733loPI   C3B10719  15.525  17.666   6.989 -0.0617 -0.1328 -0.1006
  733loPI   C4B10720  15.572  17.808   7.343 -0.0618 -0.3941  0.1107
  734loPI    C110721   8.862  17.629   5.238 -0.0228 -0.1307  0.0037
  734loPI    C210722   9.136  17.606   4.948  0.3692 -0.1907  0.3687
  734loPI    C310723   8.896  17.294   5.021 -0.0126 -0.0327 -0.1482
  734loPI   PO410724   9.010  17.766   5.463  0.0359 -0.2063 -0.1550
  734loPI   GL110725   8.960  17.849   5.879  0.2421 -0.0025 -0.1232
  734loPI   GL210726   9.255  17.594   5.987  0.2287 -0.0569 -0.1186
  734loPI   C1A10727   8.642  17.960   6.141  0.1052  0.0377 -0.0255
  734loPI   C2A10728   8.533  18.023   6.603 -0.2346 -0.0825 -0.1269
  734loPI   C3A10729   8.462  18.008   7.036  0.0680  0.1575 -0.0176
  734loPI   C4A10730   8.357  17.955   7.439  0.1092 -0.1491 -0.0994
  734loPI   C5A10731   8.137  17.843   7.725 -0.1068  0.3902 -0.1118
  734loPI   C6A10732   8.268  17.574   8.047  0.1047  0.0280  0.0155
  734loPI   C1B10733   9.138  17.774   6.406 -0.1681 -0.1866 -0.2235
  734loPI   C2B10734   9.285  17.834   6.913  0.1005  0.2033  0.2894
  734loPI   C3B10735   9.366  17.625   7.242 -0.0562  0.0079  0.1620
  734loPI   C4B10736   9.015  17.397   7.254 -0.0354  0.1243  0.0515
  735loPI    C110737  13.408  13.268   5.041  0.1421 -0.0331  0.1070
  735loPI    C210738  13.545  13.403   4.690 -0.0045 -0.0008  0.0613
  735loPI    C310739  13.154  13.338   4.740  0.0592 -0.3793  0.0932
  735loPI   PO410740  13.458  12.972   5.204 -0.0026 -0.3554  0.4575
  735loPI   GL110741  13.537  12.691   5.549 -0.0174 -0.4141  0.1849
  735loPI   GL210742  13.590  13.100   5.705 -0.0662  0.1405  0.2436
  735loPI   C1A10743  13.745  12.594   6.016  0.0604  0.2652 -0.2224
  735loPI   C2A10744  13.738  12.638   6.526  0.0686 -0.2102 -0.1282
  735loPI   C3A10745  13.480  12.375   6.904  0.1835  0.1447  0.0624
  735loPI   C4A10746  13.495  12.320   7.270 -0.0237 -0.1910 -0.1473
  735loPI   C5A10747  13.513  12.502   7.660  0.0102  0.3563 -0.3647
  735loPI   C6A10748  13.691  12.728   8.017 -0.0878  0.1126 -0.0071
  735loPI   C1B10749  13.527  13.042   6.119  0.2889 -0.2726  0.0273
  735loPI   C2B10750  13.490  13.068   6.578  0.0285  0.0710  0.2351
  735loPI   C3B10751  13.520  12.865   7.012  0.1087 -0.1284  0.0801
  735loPI   C4B10752  13.697  12.928   7.369  0.3054  0.1698 -0.0257
  736loPI    C110753  12.078   6.871   5.787 -0.0601 -0.0142 -0.0384
  736loPI    C210754  11.975   6.981   5.416 -0.0350  0.1823  0.0118
  736loPI    C310755  12.078   6.601   5.491 -0.0248  0.1450 -0.1853
  736loPI   PO410756  11.885   7.068   5.929 -0.1756  0.1151 -0.1908
  736loPI   GL110757  11.704   7.355   6.182 -0.3492  0.0428 -0.2048
  736loPI   GL210758  11.877   7.404   6.457 -0.3196  0.1453 -0.0271
  736loPI   C1A10759  11.462   7.158   6.580 -0.3069 -0.1512 -0.3228
  736loPI   C2A10760  11.325   7.079   6.966  0.1050 -0.1802  0.0512
  736loPI   C3A10761  11.339   7.148   7.389 -0.0601  0.0206 -0.2375
  736loPI   C4A10762  11.213   7.257   7.819  0.4418  0.0474 -0.0909
  736loPI   C5A10763  11.329   7.200   8.204  0.0286  0.3249  0.1703
  736loPI   C6A10764  11.518   6.892   8.557 -0.0761 -0.0347 -0.0956
  736loPI   C1B10765  11.920   7.447   6.909  0.0813  0.1286  0.0522
  736loPI   C2B10766  12.144   7.445   7.333 -0.1502  0.0004  0.4309
  736loPI   C3B10767  12.367   7.172   7.598 -0.0203  0.2254 -0.2073
  736loPI   C4B10768  12.724   6.925   7.809 -0.0172  0.1390 -0.0405
  737loPI    C110769   6.982   1.593   5.090  0.0520 -0.0354  0.0688
  737loPI    C210770   6.618   1.483   4.966  0.1021 -0.0765 -0.0433
  737loPI    C310771   6.818   1.769   4.771  0.0875  0.0187  0.0803
  737loPI   PO410772   6.896   1.589   5.379 -0.0749 -0.3581 -0.0670
  737loPI   GL110773   6.970   1.476   5.820  0.0287  0.0651 -0.0206
  737loPI   GL210774   6.983   1.748   5.840  0.0703  0.2499 -0.0228
  737loPI   C1A10775   6.968   1.503   6.302 -0.0759  0.3318  0.0076
  737loPI   C2A10776   6.923   1.485   6.711 -0.1093  0.1103 -0.0438
  737loPI   C3A10777   6.909   1.560   7.131  0.0438  0.0329 -0.3353
  737loPI   C4A10778   6.744   1.538   7.610  0.1674  0.2422 -0.1005
  737loPI   C5A10779   6.519   1.344   7.915 -0.0439  0.2323 -0.1293
  737loPI   C6A10780   6.208   1.168   8.150 -0.3006 -0.1709 -0.1886
  737loPI   C1B10781   6.785   1.927   6.162  0.2652 -0.1493 -0.0329
  737loPI   C2B10782   6.694   1.987   6.598 -0.1879  0.2462 -0.0912
  737loPI   C3B10783   6.720   1.984   7.036  0.2214 -0.1401 -0.1050
  737loPI   C4B10784   6.666   2.016   7.473 -0.0498 -0.0660 -0.3542
  738loPI    C110785  14.369  11.590   5.485 -0.0162  0.0631 -0.3855
  738loPI    C210786  14.641  11.776   5.711 -0.1328 -0.0447 -0.1534
  738loPI    C310787  14.751  11.471   5.477 -0.0548 -0.0937 -0.0534
  738loPI   PO410788  14.204  11.529   5.692 -0.0907  0.0897  0.1026
  738loPI   GL110789  14.327  11.737   6.047 -0.0708  0.3938  0.3791
  738loPI   GL210790  14.381  12.073   6.232  0.0650  0.0193 -0.0751
  738loPI   C1A10791  13.924  11.727   6.357  0.0291  0.0680 -0.0639
  738loPI   C2A10792  13.890  11.650   6.801  0.2081  0.2017 -0.1953
  738loPI   C3A10793  13.841  11.590   7.248 -0.0271 -0.3960 -0.2833
  738loPI   C4A10794  14.005  11.716   7.573 -0.0028 -0.0687  0.4117
  738loPI   C5A10795  13.912  11.637   8.037  0.0062 -0.0569  0.2827
  738loPI   C6A10796  13.705  11.759   8.410 -0.0306  0.2595 -0.1801
  738loPI   C1B10797  14.321  11.892   6.709 -0.0052 -0.0854 -0.2869
  738loPI   C2B10798  14.341  11.846   7.133 -0.0533 -0.1696  0.1453
  738loPI   C3B10799  14.541  11.900   7.587 -0.1270  0.3961  0.1849
  738loPI   C4B10800  14.852  12.060   7.893  0.1507  0.1928 -0.0608
  739loPI    C110801   0.381   9.966   5.549 -0.0131  0.2804  0.0056
  739loPI    C210802   0.505  10.252   5.298 -0.0945  0.0591 -0.2924
  739loPI    C310803   0.521   9.868   5.188  0.2734 -0.0796  0.2079
  739loPI   PO410804   0.480  10.067   5.775 -0.1146  0.2759  0.0604
  739loPI   GL110805   0.288  10.011   6.283  0.1084  0.1959  0.0627
  739loPI   GL210806   0.560   9.918   6.262 -0.4076 -0.0076  0.4987
  739loPI   C1A10807   0.325  10.054   6.763  0.0547 -0.1378 -0.0008
  739loPI   C2A10808   0.306   9.906   7.200  0.1074 -0.0823 -0.2541
  739loPI   C3A10809   0.286   9.641   7.661 -0.1765 -0.0976  0.0391
  739loPI   C4A10810   0.208   9.523   8.150  0.0063 -0.0270  0.0018
  739loPI   C5A10811  -0.022   9.228   8.424 -0.1151  0.2333 -0.1427
  739loPI   C6A10812  -0.313   8.944   8.482  0.3493  0.1652  0.0245
  739loPI   C1B10813   0.794   9.885   6.630 -0.0571 -0.0592 -0.3143
  739loPI   C2B10814   0.759   9.875   7.070  0.1915 -0.0496  0.1462
  739loPI   C3B10815   0.760   9.831   7.543 -0.0421 -0.2492  0.0983
  739loPI   C4B10816   0.762  10.185   7.808  0.2825 -0.0350  0.1088
  740loPI    C110817   3.234  15.995   5.478 -0.1269  0.0048  0.2750
  740loPI    C210818   3.093  16.290   5.248 -0.0434 -0.0995  0.0873
  740loPI    C310819   3.457  16.320   5.410 -0.0954 -0.0335  0.1928
  740loPI   PO410820   3.087  15.885   5.530 -0.1107  0.2195 -0.0023
  740loPI   GL110821   2.963  15.510   5.775  0.3074 -0.1929 -0.2282
  740loPI   GL210822   2.912  15.254   5.876 -0.0771 -0.0423 -0.2542
  740loPI   C1A10823   3.032  15.808   6.224 -0.0840  0.1700  0.3681
  740loPI   C2A10824   2.990  15.866   6.664 -0.0932  0.4113  0.3016
  740loPI   C3A10825   2.959  15.809   7.099 -0.1219 -0.3010 -0.0315
  740loPI   C4A10826   2.951  15.954   7.557 -0.0567  0.0279 -0.1018
  740loPI   C5A10827   2.902  16.157   7.891  0.2356  0.0666  0.0389
  740loPI   C6A10828   2.824  15.963   8.313 -0.2172  0.1377  0.2678
  740loPI   C1B10829   2.835  15.358   6.317 -0.0913 -0.1945 -0.1884
  740loPI   C2B10830   2.881  15.378   6.757 -0.0768 -0.2816  0.0077
  740loPI   C3B10831   2.906  15.356   7.259  0.0878 -0.0999  0.2961
  740loPI   C4B10832   3.006  15.375   7.664 -0.2643  0.1290 -0.3559
  741loPI    C110833  10.694   7.971   6.013 -0.0268  0.1579  0.2133
  741loPI    C210834  10.949   8.224   5.837 -0.0496  0.2332  0.2879
  741loPI    C310835  10.628   8.093   5.638  0.0101  0.1921  0.2179
  741loPI   PO410836  10.942   7.751   6.111  0.0221 -0.0496  0.0190
  741loPI   GL110837  11.161   7.744   6.439 -0.0314  0.3476  0.0264
  741loPI   GL210838  11.509   7.709   6.565  0.1987  0.1065 -0.0313
  741loPI   C1A10839  10.979   7.697   6.771 -0.1203  0.2520  0.2644
  741loPI   C2A10840  11.018   7.802   7.213 -0.1638  0.2144  0.0342
  741loPI   C3A10841  11.162   7.646   7.508 -0.2426 -0.2100  0.1407
  741loPI   C4A10842  11.120   7.834   7.960  0.1199 -0.1592 -0.0889
  741loPI   C5A10843  10.960   7.576   8.167  0.0184 -0.0662  0.0473
  741loPI   C6A10844  10.556   7.555   8.274 -0.3181  0.0531  0.0155
  741loPI   C1B10845  11.428   7.628   6.951  0.0738  0.1134 -0.1176
  741loPI   C2B10846  11.674   7.551   7.353 -0.0392 -0.0193  0.1492
  741loPI   C3B10847  11.570   7.602   7.858 -0.0322 -0.2415 -0.0219
  741loPI   C4B10848  11.413   7.686   8.291  0.0846 -0.3737  0.0946
  742loPI    C110849   7.018   2.815   4.692 -0.0734  0.1227  0.2007
  742loPI    C210850   7.021   2.598   5.028  0.0065 -0.2274 -0.0206
  742loPI    C310851   7.259   2.497   4.722  0.0483  0.1794 -0.1283
  742loPI   PO410852   6.951   3.037   4.781  0.1906  0.1700 -0.1863
  742loPI   GL110853   6.797   3.051   5.231  0.0350 -0.2745 -0.0248
  742loPI   GL210854   7.035   3.087   5.445 -0.0541 -0.0452 -0.1794
  742loPI   C1A10855   6.557   2.998   5.697  0.1537 -0.0800 -0.0295
  742loPI   C2A10856   6.457   2.959   6.046  0.0419  0.1169 -0.1688
  742loPI   C3A10857   6.411   2.941   6.466  0.2003 -0.0263 -0.1528
  742loPI   C4A10858   6.389   2.930   6.972 -0.2028 -0.1210  0.0106
  742loPI   C5A10859   6.311   2.969   7.402 -0.1470  0.3630  0.2060
  742loPI   C6A10860   6.379   2.998   7.792 -0.1551 -0.3213 -0.1085
  742loPI   C1B10861   7.073   2.981   5.852 -0.3989  0.1139 -0.0828
  742loPI   C2B10862   6.917   2.927   6.384 -0.0135 -0.1638 -0.2304
  742loPI   C3B10863   6.848   2.947   6.848 -0.3320  0.1820  0.0121
  742loPI   C4B10864   6.796   2.886   7.357 -0.0854  0.2361 -0.1071
  743loPI    C110865   6.879  11.075   5.750 -0.0535 -0.1045 -0.1233
  743loPI    C210866   7.068  10.728   5.686 -0.0033 -0.0732 -0.1460
  743loPI    C310867   7.008  10.981   5.383  0.2083  0.0622 -0.0768
  743loPI   PO410868   6.968  11.205   5.983  0.1860  0.1986 -0.1315
  743loPI   GL110869   6.708  11.408   6.297  0.3062  0.0313  0.1354
  743loPI   GL210870   6.472  11.254   6.236 -0.2044 -0.0995  0.0335
  743loPI   C1A10871   6.643  11.403   6.737 -0.3019  0.3680 -0.0478
  743loPI   C2A10872   6.644  11.495   7.068 -0.0713  0.0046 -0.2107
  743loPI   C3A10873   6.638  11.636   7.536 -0.0474 -0.2532 -0.4026
  743loPI   C4A10874   6.657  11.678   7.873  0.3894  0.0280  0.3135
  743loPI   C5A10875   6.791  11.463   8.196 -0.0083 -0.4493 -0.1664
  743loPI   C6A10876   7.181  11.323   8.181  0.0122  0.0513  0.0870
  743loPI   C1B10877   6.272  11.632   6.363 -0.0926 -0.2061  0.1814
  743loPI   C2B10878   6.227  11.800   6.761  0.0394  0.1600  0.0088
  743loPI   C3B10879   6.293  11.891   7.170 -0.3724  0.3452 -0.0808
  743loPI   C4B10880   6.188  11.913   7.519 -0.2834 -0.0841 -0.0085
  744loPI    C110881   4.071   3.292   5.213  0.1291 -0.2863 -0.1207
  744loPI    C210882   4.391   3.291   4.974  0.1999  0.0453 -0.0324
  744loPI    C310883   4.026   3.246   4.818  0.2513  0.1781 -0.1946
  744loPI   PO410884   4.118   3.481   5.444 -0.2292  0.2206  0.1419
  744loPI   GL110885   4.430   3.434   5.806 -0.1777  0.2573  0.0872
  744loPI   GL210886   4.256   3.695   5.900  0.1231 -0.0277  0.1715
  744loPI   C1A10887   4.392   3.200   6.270 -0.0537 -0.0142 -0.2465
  744loPI   C2A10888   4.343   3.037   6.715  0.0873 -0.1356 -0.3818
  744loPI   C3A10889   4.433   2.905   7.177  0.1084 -0.2007  0.1513
  744loPI   C4A10890   4.459   2.779   7.590  0.0013 -0.0365  0.1729
  744loPI   C5A10891   4.338   2.890   7.974  0.0187  0.2484  0.1081
  744loPI   C6A10892   4.209   2.718   8.427 -0.2048 -0.0777 -0.0309
  744loPI   C1B10893   4.113   3.677   6.374 -0.1155  0.1475  0.1860
  744loPI   C2B10894   4.184   3.579   6.746  0.3008  0.1196  0.0439
  744loPI   C3B10895   4.151   3.433   7.148 -0.2114  0.2430  0.1631
  744loPI   C4B10896   4.257   3.286   7.547  0.0200 -0.1376 -0.2846
  745loPI    C110897   6.463   4.783   5.276  0.2260 -0.1072 -0.0665
  745loPI    C210898   6.177   4.584   5.080  0.0795 -0.2018  0.2380
  745loPI    C310899   6.561   4.534   4.978  0.0059 -0.2422 -0.0279
  745loPI   PO410900   6.510   4.730   5.529 -0.0919  0.0505 -0.0821
  745loPI   GL110901   6.724   4.607   5.995 -0.1585  0.1398  0.1161
  745loPI   GL210902   6.559   4.337   5.842  0.1406  0.1337 -0.0959
  745loPI   C1A10903   6.926   4.425   6.418 -0.2488 -0.0768  0.0886
  745loPI   C2A10904   6.770   4.209   6.788 -0.0606  0.3466 -0.1096
  745loPI   C3A10905   6.773   4.274   7.279  0.0347  0.0855  0.0370
  745loPI   C4A10906   6.627   4.095   7.673  0.1663  0.0271 -0.1091
  745loPI   C5A10907   6.304   4.153   7.961  0.0147 -0.1096  0.2656
  745loPI   C6A10908   5.842   4.040   8.132  0.2789 -0.2619  0.0004
  745loPI   C1B10909   6.441   4.321   6.264  0.1066  0.3147  0.1099
  745loPI   C2B10910   6.188   4.360   6.549 -0.2519  0.1049  0.0196
  745loPI   C3B10911   6.143   4.348   6.978  0.3153 -0.2857  0.0088
  745loPI   C4B10912   6.227   4.284   7.449 -0.1575 -0.4860  0.1981
  746loPI    C110913  14.507  10.950   5.341 -0.0381  0.0650 -0.0344
  746loPI    C210914  14.546  11.261   5.092 -0.0384  0.3630  0.3276
  746loPI    C310915  14.867  11.043   5.193 -0.0286  0.2773  0.1170
  746loPI   PO410916  14.363  11.016   5.502 -0.2566 -0.0701  0.4956
  746loPI   GL110917  14.501  10.946   5.938  0.0593 -0.0048 -0.0586
  746loPI   GL210918  14.535  11.247   5.987  0.0046 -0.5054 -0.0515
  746loPI   C1A10919  14.465  10.927   6.420 -0.2302 -0.2360  0.0845
  746loPI   C2A10920  14.349  10.905   6.891  0.0409  0.2157  0.1040
  746loPI   C3A10921  14.215  10.880   7.263 -0.1397  0.3016  0.1585
  746loPI   C4A10922  14.321  10.868   7.659 -0.1725  0.1673 -0.1429
  746loPI   C5A10923  14.583  10.967   7.960 -0.1034 -0.2773 -0.0503
  746loPI   C6A10924  14.640  10.754   8.398  0.2315 -0.1489  0.0183
  746loPI   C1B10925  14.446  11.385   6.384 -0.1380 -0.0073  0.1262
  746loPI   C2B10926  14.317  11.395   6.847 -0.3056 -0.2023  0.1898
  746loPI   C3B10927  14.337  11.365   7.343 -0.1793 -0.3357  0.2083
  746loPI   C4B10928  14.415  11.386   7.742  0.1484  0.2153  0.2598
  747loPI    C110929  17.030  14.308   5.270 -0.0570 -0.0196  0.0193
  747loPI    C210930  16.770  14.577   5.128 -0.1809 -0.2541 -0.2072
  747loPI    C310931  16.683  14.369   5.458 -0.0757 -0.0052 -0.0193
  747loPI   PO410932  17.206  14.421   5.268 -0.2028 -0.2449 -0.1283
  747loPI   GL110933  17.246  14.729   5.535  0.0375 -0.4053 -0.3093
  747loPI   GL210934  16.976  14.872   5.515 -0.0167 -0.0880 -0.0797
  747loPI   C1A10935  17.302  14.839   5.962 -0.3555  0.1144 -0.0663
  747loPI   C2A10936  17.325  15.177   6.296  0.1146 -0.1591  0.1931
  747loPI   C3A10937  17.290  15.154   6.659  0.1375  0.0664  0.2611
  747loPI   C4A10938  17.358  15.144   7.051 -0.0423  0.1064  0.2296
  747loPI   C5A10939  17.278  14.934   7.296 -0.2248 -0.0334 -0.0231
  747loPI   C6A10940  17.293  14.926   7.684  0.2567  0.0810  0.2261
  747loPI   C1B10941  16.865  14.617   5.873 -0.0141  0.0539  0.0396
  747loPI   C2B10942  16.809  14.439   6.273 -0.1402  0.2813  0.0366
  747loPI   C3B10943  16.841  14.299   6.842 -0.0759 -0.0426  0.1930
  747loPI   C4B10944  16.813  14.265   7.183  0.0897 -0.0381  0.0073
  748loPI    C110945   2.029   6.347   5.635  0.0288  0.2060  0.0052
  748loPI    C210946   1.847   6.180   5.320  0.2280 -0.1289  0.0630
  748loPI    C310947   2.053   6.520   5.275  0.0578 -0.0480 -0.1170
  748loPI   PO410948   1.825   6.154   5.827  0.1196 -0.0223  0.2071
  748loPI   GL110949   1.871   6.016   6.222  0.0553  0.0605 -0.0283
  748loPI   GL210950   1.582   5.909   6.295 -0.0230 -0.0562  0.2538
  748loPI   C1A10951   2.169   5.796   6.403  0.4170  0.1345  0.0544
  748loPI   C2A10952   2.383   5.850   6.772 -0.0611 -0.0546  0.0493
  748loPI   C3A10953   2.394   5.863   7.211 -0.0965  0.0651  0.0040
  748loPI   C4A10954   2.423   5.928   7.624  0.0852 -0.0193 -0.1765
  748loPI   C5A10955   2.525   5.817   8.078  0.1778 -0.1152 -0.0305
  748loPI   C6A10956   3.013   5.649   8.235  0.2047 -0.0474  0.2248
  748loPI   C1B10957   1.616   5.869   6.753 -0.0159 -0.0240 -0.0062
  748loPI   C2B10958   1.860   5.851   7.142  0.1968 -0.0999  0.1857
  748loPI   C3B10959   1.957   5.901   7.494  0.1899 -0.1161 -0.0749
  748loPI   C4B10960   2.068   5.949   7.935  0.0842  0.0969 -0.1229
  749loPI    C110961   9.426   9.819   5.577 -0.1923  0.0560  0.0383
  749loPI    C210962   9.593   9.781   5.215  0.0857 -0.0120  0.1708
  749loPI    C310963   9.195   9.782   5.253  0.0546 -0.0003 -0.1347
  749loPI   PO410964   9.521  10.026   5.664  0.0973 -0.0870 -0.2003
  749loPI   GL110965   9.753  10.230   5.972  0.2254  0.0843 -0.2512
  749loPI   GL210966   9.916  10.046   6.191 -0.1603  0.1872  0.0376
  749loPI   C1A10967   9.581  10.358   6.456  0.1099  0.2308  0.0679
  749loPI   C2A10968   9.660  10.514   6.901  0.2239 -0.1024  0.0410
  749loPI   C3A10969   9.690  10.634   7.417  0.2289 -0.1250 -0.0222
  749loPI   C4A10970   9.606  10.548   7.858 -0.0838 -0.0890  0.0835
  749loPI   C5A10971   9.825  10.765   8.246  0.3246 -0.1263  0.1934
  749loPI   C6A10972  10.307  10.803   8.319  0.2346 -0.1436 -0.5683
  749loPI   C1B10973  10.102  10.278   6.566 -0.0351  0.0772 -0.0860
  749loPI   C2B10974  10.080  10.229   7.066  0.0638 -0.3143 -0.2724
  749loPI   C3B10975  10.148  10.396   7.392 -0.0237 -0.0373 -0.2744
  749loPI   C4B10976  10.107  10.497   7.848  0.0402  0.0320 -0.1566
  750loPI    C110977  17.507  12.996   5.390 -0.2506 -0.0803  0.0354
  750loPI    C210978  17.485  12.597   5.401  0.1339 -0.1015  0.1653
  750loPI    C310979  17.689  12.777   5.108 -0.0222  0.0000  0.1183
  750loPI   PO410980  17.582  13.073   5.552 -0.2522 -0.1580 -0.0390
  750loPI   GL110981  17.519  13.237   5.927  0.0362 -0.0375  0.0143
  750loPI   GL210982  17.794  13.163   5.963 -0.3443  0.0195 -0.1870
  750loPI   C1A10983  17.417  13.064   6.297 -0.3317 -0.1469  0.0364
  750loPI   C2A10984  17.172  12.830   6.667  0.1453 -0.0037  0.0892
  750loPI   C3A10985  17.157  13.006   7.093  0.1563  0.0984 -0.5646
  750loPI   C4A10986  17.086  12.963   7.505  0.2561  0.0998  0.3807
  750loPI   C5A10987  17.452  12.870   7.806 -0.1076  0.1820  0.0859
  750loPI   C6A10988  17.512  12.659   8.157 -0.1094 -0.2353  0.0351
  750loPI   C1B10989  17.875  13.356   6.354  0.2061  0.2416 -0.0130
  750loPI   C2B10990  18.067  13.478   6.712  0.2870  0.2436 -0.2797
  750loPI   C3B10991  18.096  13.402   7.101 -0.2518  0.0510  0.0823
  750loPI   C4B10992  18.054  13.376   7.488  0.3387 -0.1311 -0.1035
  751loPI    C110993   7.420   2.640   5.324  0.1849 -0.0067  0.1571
  751loPI    C210994   7.678   2.702   5.025  0.0883  0.0014  0.0748
  751loPI    C310995   7.361   2.941   5.068  0.1160  0.0165  0.2000
  751loPI   PO410996   7.451   2.350   5.296 -0.1020  0.1145  0.0639
  751loPI   GL110997   7.496   2.242   5.674 -0.1154  0.2592 -0.0225
  751loPI   GL210998   7.456   1.957   5.722  0.0912 -0.0563  0.1458
  751loPI   C1A10999   7.321   2.493   6.001  0.1103 -0.0178 -0.1107
  751loPI   C2A11000   7.096   2.389   6.311  0.1400 -0.0361 -0.0598
  751loPI   C3A11001   7.090   2.448   6.678  0.1663 -0.0501 -0.0384
  751loPI   C4A11002   7.028   2.408   7.083  0.1205 -0.2995 -0.0155
  751loPI   C5A11003   6.966   2.426   7.506 -0.0489 -0.0826 -0.3309
  751loPI   C6A11004   7.238   2.318   7.769  0.0339  0.0022  0.3270
  751loPI   C1B11005   7.312   1.968   6.129 -0.0367  0.0434  0.0229
  751loPI   C2B11006   7.143   1.925   6.515  0.0104 -0.0570  0.0322
  751loPI   C3B11007   7.159   1.971   6.839  0.0723 -0.3673 -0.1114
  751loPI   C4B11008   7.115   1.965   7.299 -0.1528  0.0441 -0.1727
  752loPI    C111009   2.092   9.346   5.401 -0.4454 -0.1061  0.0380
  752loPI    C211010   1.999   9.076   5.121  0.2002 -0.0722 -0.2255
  752loPI    C311011   2.007   9.465   5.029  0.0157 -0.0248 -0.0474
  752loPI   PO411012   2.195   9.172   5.682  0.1409  0.1817  0.0727
  752loPI   GL111013   1.979   9.168   6.058  0.2600  0.2347 -0.2123
  752loPI   GL211014   2.049   8.831   6.063 -0.0203 -0.0456  0.0442
  752loPI   C1A11015   1.996   9.377   6.530  0.1978 -0.0272 -0.0914
  752loPI   C2A11016   2.005   9.317   7.000 -0.1608 -0.0386 -0.0662
  752loPI   C3A11017   2.025   9.271   7.484 -0.1704  0.0201 -0.0685
  752loPI   C4A11018   2.130   9.088   7.873 -0.0741  0.1849  0.2440
  752loPI   C5A11019   1.915   8.695   8.131  0.0808 -0.0304  0.1851
  752loPI   C6A11020   1.821   8.750   8.587  0.3705  0.0022 -0.0405
  752loPI   C1B11021   2.121   8.789   6.485  0.0390  0.0830 -0.0951
  752loPI   C2B11022   2.142   8.714   6.924 -0.0333 -0.1365  0.0542
  752loPI   C3B11023   1.878   8.858   7.231  0.1903  0.2439 -0.1065
  752loPI   C4B11024   1.697   8.854   7.686 -0.3365  0.2504 -0.0478
  753loPI    C111025  10.986  11.804   5.630  0.1567 -0.0767  0.0217
  753loPI    C211026  10.710  11.536   5.739  0.1892 -0.1324 -0.0321
  753loPI    C311027  10.688  11.912   5.873  0.0691 -0.1282 -0.0624
  753loPI   PO411028  11.198  11.684   5.735  0.0813 -0.0242  0.2071
  753loPI   GL111029  11.455  11.491   6.077 -0.0689 -0.1255  0.1512
  753loPI   GL211030  11.588  11.828   6.101 -0.0958  0.0009 -0.1968
  753loPI   C1A11031  11.645  11.423   6.451  0.0567 -0.1093 -0.0088
  753loPI   C2A11032  11.641  11.501   6.790  0.0447  0.0183  0.0231
  753loPI   C3A11033  11.695  11.504   7.172  0.0302  0.1444 -0.0972
  753loPI   C4A11034  11.699  11.434   7.598  0.2411 -0.1321  0.1117
  753loPI   C5A11035  11.876  11.289   7.983  0.0027  0.0295 -0.1455
  753loPI   C6A11036  11.740  10.818   8.114 -0.1236  0.0421  0.0551
  753loPI   C1B11037  11.633  11.930   6.495 -0.1791  0.0249 -0.1070
  753loPI   C2B11038  11.703  12.131   6.880  0.2241  0.1818  0.1175
  753loPI   C3B11039  11.693  12.024   7.292  0.2007  0.0838 -0.0307
  753loPI   C4B11040  11.579  11.905   7.717 -0.4991 -0.0692 -0.1290
  754loPI    C111041  11.514  16.561   5.234  0.0159 -0.0684 -0.0570
  754loPI    C211042  11.582  16.755   4.891 -0.1843  0.1843  0.0433
  754loPI    C311043  11.438  16.382   4.884  0.0906  0.0781 -0.1494
  754loPI   PO411044  11.669  16.592   5.358 -0.1967 -0.0896 -0.2635
  754loPI   GL111045  11.999  16.616   5.689 -0.0813  0.0045  0.0176
  754loPI   GL211046  11.997  16.307   5.850 -0.0658 -0.1218 -0.2285
  754loPI   C1A11047  12.167  16.739   6.031 -0.2310 -0.2534 -0.2238
  754loPI   C2A11048  12.230  16.814   6.470 -0.0546 -0.3833  0.0790
  754loPI   C3A11049  12.315  16.845   6.950  0.2854 -0.1936  0.0764
  754loPI   C4A11050  12.346  16.792   7.396 -0.0699  0.0543  0.3291
  754loPI   C5A11051  12.344  16.601   7.855  0.1179 -0.1668  0.1329
  754loPI   C6A11052  12.321  16.298   8.222  0.0199 -0.1629 -0.1796
  754loPI   C1B11053  12.159  16.338   6.313  0.3586 -0.0059 -0.2472
  754loPI   C2B11054  12.272  16.308   6.713 -0.1223 -0.1003  0.1015
  754loPI   C3B11055  12.496  16.389   7.098  0.0867 -0.2025  0.2137
  754loPI   C4B11056  12.646  16.374   7.480  0.1009 -0.1956  0.0251
  755loPI    C111057   3.368  15.445   5.245 -0.0222 -0.2392  0.0979
  755loPI    C211058   3.568  15.380   4.905 -0.0043  0.0495  0.0506
  755loPI    C311059   3.170  15.340   4.913 -0.0011  0.0073  0.0056
  755loPI   PO411060   3.562  15.326   5.397  0.0747  0.0396 -0.0675
  755loPI   GL111061   3.419  15.305   5.737  0.1894 -0.1249 -0.0897
  755loPI   GL211062   3.440  15.610   5.825 -0.1734 -0.1106  0.0840
  755loPI   C1A11063   3.338  15.075   6.072 -0.0471 -0.0120  0.0217
  755loPI   C2A11064   3.244  15.089   6.440 -0.0900 -0.0168 -0.0897
  755loPI   C3A11065   3.302  15.064   6.835  0.0852  0.0345  0.1298
  755loPI   C4A11066   3.397  15.110   7.315  0.1868 -0.1038  0.0361
  755loPI   C5A11067   3.520  14.997   7.708 -0.0372 -0.1563  0.1236
  755loPI   C6A11068   3.462  14.672   8.109  0.1553 -0.1078 -0.2288
  755loPI   C1B11069   3.480  15.536   6.237 -0.1105 -0.0596 -0.0200
  755loPI   C2B11070   3.330  15.551   6.603  0.0266 -0.0730  0.0533
  755loPI   C3B11071   3.486  15.517   6.995  0.0880 -0.1468 -0.1485
  755loPI   C4B11072   3.349  15.575   7.379 -0.0996  0.1092  0.0908
  756loPI    C111073   9.511   0.146   5.571 -0.1278 -0.1499 -0.1435
  756loPI    C211074   9.544   0.515   5.721 -0.0994 -0.2504  0.1008
  756loPI    C311075   9.403   0.462   5.351 -0.1090  0.0045  0.0663
  756loPI   PO411076   9.446  -0.002   5.751  0.1964 -0.1680 -0.0072
  756loPI   GL111077   9.659  -0.189   6.103 -0.1944 -0.0126  0.4760
  756loPI   GL211078   9.835  -0.434   6.104  0.0558  0.0017 -0.1689
  756loPI   C1A11079   9.548   0.004   6.524  0.1804 -0.1141 -0.2231
  756loPI   C2A11080   9.563   0.276   6.820 -0.0340 -0.4035 -0.0814
  756loPI   C3A11081   9.519   0.598   7.087  0.0491  0.0731 -0.0910
  756loPI   C4A11082   9.304   0.952   7.192  0.0445 -0.2045  0.0723
  756loPI   C5A11083   8.893   1.201   7.273  0.2060  0.0744 -0.2249
  756loPI   C6A11084   8.829   1.598   7.231  0.2532  0.0778 -0.2288
  756loPI   C1B11085  10.093  -0.451   6.437  0.1260 -0.1632  0.0646
  756loPI   C2B11086  10.373  -0.458   6.835  0.1663 -0.2625  0.0157
  756loPI   C3B11087  10.316  -0.417   7.251  0.1721 -0.1522 -0.4171
  756loPI   C4B11088  10.325  -0.542   7.611 -0.1539 -0.0558 -0.2489
  757loPI    C111089   8.543   1.759   5.529  0.1160  0.0967 -0.1171
  757loPI    C211090   8.315   1.612   5.235  0.2295 -0.1435 -0.0875
  757loPI    C311091   8.703   1.685   5.170  0.1977  0.0447 -0.0705
  757loPI   PO411092   8.321   2.006   5.649  0.2083  0.1590  0.2231
  757loPI   GL111093   8.218   1.951   5.998  0.1028  0.1825  0.1314
  757loPI   GL211094   7.863   1.810   5.906 -0.0007  0.0978  0.1200
  757loPI   C1A11095   8.282   2.270   6.331 -0.3041  0.1598  0.1050
  757loPI   C2A11096   8.027   2.295   6.677 -0.1572  0.3935 -0.2123
  757loPI   C3A11097   7.949   2.201   7.066 -0.0660 -0.0200  0.1036
  757loPI   C4A11098   8.008   2.180   7.566 -0.1865  0.1902  0.0719
  757loPI   C5A11099   8.396   2.087   7.687 -0.1624  0.1081 -0.0478
  757loPI   C6A11100   8.646   1.649   7.848 -0.1533  0.2913  0.0210
  757loPI   C1B11101   7.855   1.810   6.335 -0.1095  0.1083 -0.2843
  757loPI   C2B11102   7.765   1.888   6.779  0.1186  0.0051 -0.3242
  757loPI   C3B11103   7.660   1.856   7.220 -0.1605 -0.1552 -0.2884
  757loPI   C4B11104   7.574   1.901   7.585 -0.3177  0.4354  0.2261
  758loPI    C111105  14.487  13.750   5.177  0.0745 -0.0259  0.0164
  758loPI    C211106  14.744  13.536   4.956 -0.1264 -0.0780 -0.1698
  758loPI    C311107  14.414  13.689   4.788 -0.0357  0.2984 -0.0168
  758loPI   PO411108  14.552  13.814   5.386  0.1114  0.0102  0.1006
  758loPI   GL111109  14.693  13.701   5.673 -0.0026  0.3848 -0.0512
  758loPI   GL211110  14.895  13.449   5.813  0.0698 -0.0097 -0.0233
  758loPI   C1A11111  14.689  13.802   6.097 -0.3994 -0.4035 -0.1430
  758loPI   C2A11112  14.727  13.770   6.577  0.0680  0.0859 -0.2226
  758loPI   C3A11113  14.786  13.696   7.060  0.0391 -0.2059 -0.0089
  758loPI   C4A11114  14.936  13.489   7.477  0.0291 -0.0955 -0.2448
  758loPI   C5A11115  14.947  13.429   7.968  0.4659  0.0492 -0.2794
  758loPI   C6A11116  15.117  13.113   8.232 -0.1041  0.0378 -0.3257
  758loPI   C1B11117  14.800  13.340   6.231 -0.1272  0.0504  0.0997
  758loPI   C2B11118  14.901  13.335   6.707 -0.0571 -0.0647 -0.0049
  758loPI   C3B11119  14.907  13.194   7.092 -0.0365  0.2181 -0.1265
  758loPI   C4B11120  14.671  12.853   7.444 -0.0899 -0.0483 -0.0572
  759loPI    C111121   5.108   8.681   5.428  0.2122  0.0415 -0.2310
  759loPI    C211122   4.738   8.705   5.278  0.0726  0.2168  0.1293
  759loPI    C311123   5.038   8.904   5.104  0.0319 -0.0446 -0.2527
  759loPI   PO411124   5.107   8.721   5.687 -0.2681 -0.0302  0.0526
  759loPI   GL111125   4.999   8.613   6.040  0.0340 -0.0447  0.2932
  759loPI   GL211126   5.189   8.714   6.165  0.0189 -0.0544 -0.0512
  759loPI   C1A11127   4.956   8.270   6.332 -0.1679 -0.5106  0.0573
  759loPI   C2A11128   5.157   8.281   6.758 -0.0709  0.0370  0.0183
  759loPI   C3A11129   5.041   8.308   7.178 -0.2144 -0.2106 -0.1776
  759loPI   C4A11130   5.059   8.155   7.519 -0.0261 -0.1486  0.2439
  759loPI   C5A11131   5.055   7.949   7.871  0.2121 -0.0252  0.4012
  759loPI   C6A11132   4.919   7.729   8.305 -0.0937 -0.2356  0.1944
  759loPI   C1B11133   5.035   8.718   6.610  0.2637 -0.1350  0.0333
  759loPI   C2B11134   5.119   8.837   7.014 -0.0160  0.2474  0.3303
  759loPI   C3B11135   5.110   9.012   7.384 -0.0504 -0.3226  0.0822
  759loPI   C4B11136   4.846   8.907   7.715  0.2551  0.0576  0.0968
  760loPI    C111137  15.010  16.294   5.106  0.0377  0.0336  0.0610
  760loPI    C211138  14.903  16.033   4.823 -0.1067  0.0845  0.0678
  760loPI    C311139  14.829  16.423   4.773  0.2890  0.1506 -0.0329
  760loPI   PO411140  14.930  16.194   5.299 -0.0578 -0.4409  0.0492
  760loPI   GL111141  14.683  16.082   5.739 -0.2434 -0.0472 -0.2392
  760loPI   GL211142  14.351  15.972   5.858 -0.0167  0.2445  0.1290
  760loPI   C1A11143  14.554  16.237   6.163  0.0169 -0.1333  0.0012
  760loPI   C2A11144  14.563  16.221   6.576 -0.2260  0.1363 -0.0962
  760loPI   C3A11145  14.579  16.028   6.973  0.1723 -0.2570  0.0687
  760loPI   C4A11146  14.481  16.054   7.406  0.0547 -0.2720  0.1638
  760loPI   C5A11147  14.219  15.952   7.737  0.1477 -0.1149  0.3961
  760loPI   C6A11148  14.143  15.609   7.513  0.0412  0.2462 -0.2650
  760loPI   C1B11149  14.268  15.826   6.208  0.0665 -0.1949 -0.1331
  760loPI   C2B11150  14.182  15.656   6.512 -0.0741 -0.1502 -0.1373
  760loPI   C3B11151  14.200  15.674   6.992  0.0383 -0.0358 -0.2616
  760loPI   C4B11152  14.175  15.244   7.177  0.0471 -0.0206  0.0085
  761loPI    C111153   5.933   3.142   4.895 -0.2454  0.0536 -0.0858
  761loPI    C211154   5.649   2.861   4.874 -0.2091  0.0180 -0.1010
  761loPI    C311155   6.034   2.760   4.835 -0.1754  0.0273  0.1895
  761loPI   PO411156   5.950   3.274   5.193 -0.1585 -0.0778  0.1092
  761loPI   GL111157   6.014   3.198   5.556  0.2864  0.1112  0.0807
  761loPI   GL211158   5.819   2.936   5.729  0.0404 -0.2101 -0.1872
  761loPI   C1A11159   6.263   3.360   5.844 -0.1531 -0.0653  0.0257
  761loPI   C2A11160   6.306   3.419   6.189 -0.0057 -0.1146 -0.2413
  761loPI   C3A11161   6.119   3.386   6.625 -0.2351 -0.1832  0.0295
  761loPI   C4A11162   6.058   3.485   7.023  0.1406  0.3238  0.2674
  761loPI   C5A11163   6.027   3.436   7.426  0.1785  0.1792 -0.0457
  761loPI   C6A11164   6.192   3.490   7.871  0.3860  0.1557  0.2186
  761loPI   C1B11165   5.990   3.018   6.161 -0.0019 -0.0440  0.2258
  761loPI   C2B11166   5.830   2.963   6.519  0.1747 -0.1554  0.2585
  761loPI   C3B11167   5.801   3.059   6.954 -0.1310 -0.0388 -0.0717
  761loPI   C4B11168   5.761   3.018   7.297 -0.0911  0.0730 -0.0326
  762loPI    C111169   9.583  16.725   5.132  0.0998 -0.0537 -0.2480
  762loPI    C211170   9.799  17.001   4.940 -0.1116  0.1221 -0.2377
  762loPI    C311171   9.612  16.714   4.734  0.1382 -0.0384 -0.2457
  762loPI   PO411172   9.428  16.876   5.352 -0.1559 -0.0216 -0.0883
  762loPI   GL111173   9.641  16.986   5.728 -0.1333  0.1874 -0.1028
  762loPI   GL211174   9.632  16.656   5.837  0.4309 -0.2014 -0.0591
  762loPI   C1A11175   9.601  17.195   6.152 -0.0954  0.0665 -0.2343
  762loPI   C2A11176   9.650  17.467   6.629  0.0269  0.4194 -0.0926
  762loPI   C3A11177   9.752  17.722   6.985  0.2828  0.1899  0.0780
  762loPI   C4A11178   9.842  17.787   7.398  0.1082  0.2158  0.0573
  762loPI   C5A11179   9.618  17.655   7.673 -0.1592 -0.2118 -0.0779
  762loPI   C6A11180   9.196  17.499   7.836 -0.2568 -0.1024  0.0509
  762loPI   C1B11181   9.552  16.682   6.275  0.1670 -0.0047 -0.2279
  762loPI   C2B11182   9.561  16.908   6.694  0.2289 -0.1510 -0.5462
  762loPI   C3B11183   9.514  17.115   7.058  0.1339  0.0164  0.1534
  762loPI   C4B11184   9.439  17.157   7.412  0.2556 -0.1112  0.0813
  763loPI    C111185   5.791   4.217   5.145  0.3751 -0.0722 -0.1891
  763loPI    C211186   5.609   4.573   5.116  0.3440 -0.0623  0.0979
  763loPI    C311187   5.763   4.399   4.790  0.0071  0.0272 -0.1132
  763loPI   PO411188   5.823   4.216   5.386  0.0991  0.0317  0.0163
  763loPI   GL111189   6.021   4.293   5.815 -0.0938  0.0924  0.1105
  763loPI   GL211190   6.172   3.977   5.830 -0.1100  0.0751 -0.1410
  763loPI   C1A11191   5.910   4.323   6.165 -0.1804 -0.2270 -0.4503
  763loPI   C2A11192   5.710   4.397   6.548  0.0594 -0.0659  0.2312
  763loPI   C3A11193   5.633   4.382   6.890 -0.2254  0.2484  0.1256
  763loPI   C4A11194   5.713   4.465   7.303  0.1897 -0.0763 -0.4176
  763loPI   C5A11195   5.923   4.553   7.775 -0.1192  0.0385 -0.4080
  763loPI   C6A11196   6.160   4.497   8.235  0.2100 -0.3563 -0.0109
  763loPI   C1B11197   6.060   3.865   6.322 -0.1826 -0.1121 -0.1565
  763loPI   C2B11198   5.928   3.929   6.729 -0.0086 -0.4436 -0.1004
  763loPI   C3B11199   5.944   3.969   7.140 -0.0355 -0.1978 -0.2627
  763loPI   C4B11200   5.836   4.022   7.605  0.2398  0.0689  0.0488
  764loPI    C111201  10.073  15.498   5.098  0.1647  0.1550  0.3009
  764loPI    C211202   9.723  15.646   5.224 -0.0434 -0.1784  0.1290
  764loPI    C311203   9.748  15.265   5.105  0.3261 -0.0915 -0.0896
  764loPI   PO411204  10.269  15.641   5.420 -0.1787 -0.0350  0.2667
  764loPI   GL111205  10.467  15.927   5.738 -0.0750 -0.1339 -0.1556
  764loPI   GL211206  10.349  15.641   5.992  0.2281  0.1256 -0.2591
  764loPI   C1A11207  10.452  16.185   6.170  0.5178 -0.1402 -0.1203
  764loPI   C2A11208  10.303  16.189   6.659 -0.1970  0.0201  0.1084
  764loPI   C3A11209  10.299  16.181   7.168 -0.0681 -0.1490  0.1339
  764loPI   C4A11210  10.404  16.133   7.609  0.2282  0.0248 -0.0504
  764loPI   C5A11211  10.117  16.044   8.004 -0.1267 -0.4350 -0.0121
  764loPI   C6A11212   9.672  15.827   8.096 -0.1200 -0.1519 -0.1218
  764loPI   C1B11213  10.564  15.790   6.498 -0.5238 -0.0240 -0.0570
  764loPI   C2B11214  10.836  15.821   6.885 -0.1618  0.1329  0.2252
  764loPI   C3B11215  10.774  15.863   7.347  0.0203 -0.1186 -0.0051
  764loPI   C4B11216  10.979  16.231   7.643  0.1335 -0.0666 -0.0565
  765loPI    C111217   3.448  12.256   5.280 -0.2337 -0.1688  0.0365
  765loPI    C211218   3.485  11.995   4.980 -0.0114  0.0855 -0.1622
  765loPI    C311219   3.799  12.076   5.213 -0.0686  0.2044 -0.1261
  765loPI   PO411220   3.295  12.206   5.409 -0.1558 -0.1124 -0.0105
  765loPI   GL111221   3.418  12.373   5.848 -0.1234  0.0956 -0.1051
  765loPI   GL211222   3.614  12.263   6.060 -0.2105  0.3292 -0.0962
  765loPI   C1A11223   3.177  12.482   6.224  0.2531  0.0348  0.2720
  765loPI   C2A11224   3.152  12.481   6.641 -0.2417  0.0690 -0.0766
  765loPI   C3A11225   3.113  12.459   7.054  0.1906 -0.5011 -0.2669
  765loPI   C4A11226   2.983  12.591   7.429 -0.0866  0.1796  0.1104
  765loPI   C5A11227   3.029  12.761   7.873  0.2154 -0.0256  0.4485
  765loPI   C6A11228   2.998  13.227   8.098 -0.1340 -0.3092 -0.2589
  765loPI   C1B11229   3.637  12.175   6.483  0.0312  0.0154 -0.0284
  765loPI   C2B11230   3.582  12.166   6.865 -0.0564  0.0588  0.0548
  765loPI   C3B11231   3.503  12.248   7.389 -0.0181  0.1160 -0.0347
  765loPI   C4B11232   3.277  12.303   7.757  0.2686 -0.1149  0.0513
  766loPI    C111233  14.875  15.426   4.872  0.0938  0.1321  0.0387
  766loPI    C211234  14.575  15.688   4.837  0.0430  0.0651 -0.0308
  766loPI    C311235  14.632  15.411   4.554  0.1472  0.0537  0.0012
  766loPI   PO411236  14.943  15.315   5.139 -0.1044 -0.0508 -0.0594
  766loPI   GL111237  14.880  15.395   5.659 -0.2318  0.0338 -0.3212
  766loPI   GL211238  15.154  15.491   5.569 -0.0351  0.1465  0.0743
  766loPI   C1A11239  14.775  15.624   6.050  0.0042  0.1792 -0.1154
  766loPI   C2A11240  14.728  15.732   6.475 -0.2680  0.0967  0.0263
  766loPI   C3A11241  14.966  15.732   6.823 -0.1323  0.1352  0.0121
  766loPI   C4A11242  15.170  15.773   7.209  0.2477 -0.1351  0.1229
  766loPI   C5A11243  15.364  15.638   7.589  0.0295 -0.0023  0.2218
  766loPI   C6A11244  15.571  15.384   7.817 -0.0606  0.0528 -0.2017
  766loPI   C1B11245  15.466  15.402   5.880  0.1895 -0.0219  0.1777
  766loPI   C2B11246  15.597  15.175   6.202 -0.1233 -0.1060 -0.0498
  766loPI   C3B11247  15.858  15.152   6.612  0.1921 -0.0913 -0.1380
  766loPI   C4B11248  15.976  15.258   6.988 -0.2033 -0.0714  0.0989
  767loPI    C111249  11.481   6.624   5.724 -0.1804 -0.0264  0.0003
  767loPI    C211250  11.500   6.990   5.564 -0.0870 -0.0671 -0.0830
  767loPI    C311251  11.477   6.669   5.326 -0.0111 -0.1244 -0.0133
  767loPI   PO411252  11.661   6.558   5.858  0.0126  0.2919 -0.1950
  767loPI   GL111253  11.810   6.628   6.277 -0.2864 -0.0904  0.0057
  767loPI   GL211254  11.867   6.291   6.310 -0.3002 -0.1267 -0.1691
  767loPI   C1A11255  11.860   6.807   6.740 -0.0430 -0.1873 -0.0787
  767loPI   C2A11256  11.782   7.004   7.131 -0.1219  0.3188 -0.3723
  767loPI   C3A11257  11.819   7.056   7.522 -0.0371 -0.1361 -0.1559
  767loPI   C4A11258  11.629   6.966   7.810  0.3029 -0.1850 -0.0470
  767loPI   C5A11259  11.716   6.661   8.173  0.0010  0.2014 -0.2136
  767loPI   C6A11260  11.641   6.238   8.335 -0.2211  0.0486  0.1927
  767loPI   C1B11261  11.891   6.286   6.735  0.0868  0.3406  0.0737
  767loPI   C2B11262  11.992   6.107   7.078 -0.1215  0.2682 -0.0569
  767loPI   C3B11263  11.895   5.800   7.305  0.0603 -0.3016 -0.3423
  767loPI   C4B11264  12.002   5.662   7.704 -0.4514 -0.1400 -0.1355
  768loPI    C111265  16.863  16.646   4.985 -0.2044  0.0206 -0.2807
  768loPI    C211266  16.546  16.890   4.990 -0.0424  0.2325 -0.1097
  768loPI    C311267  16.496  16.498   4.930 -0.3181  0.2881 -0.2606
  768loPI   PO411268  16.973  16.738   5.239  0.1744  0.0423  0.1690
  768loPI   GL111269  16.973  16.700   5.689  0.0746 -0.1405 -0.1740
  768loPI   GL211270  16.744  16.821   5.829  0.1474  0.1296  0.1761
  768loPI   C1A11271  16.952  16.497   6.151  0.1620  0.2619 -0.1803
  768loPI   C2A11272  17.061  16.424   6.567  0.0003  0.3013  0.0096
  768loPI   C3A11273  17.026  16.430   7.030 -0.0191 -0.2328  0.1985
  768loPI   C4A11274  16.943  16.461   7.463  0.1877  0.2950  0.0566
  768loPI   C5A11275  16.770  16.399   7.889 -0.0828  0.2456  0.3256
  768loPI   C6A11276  16.631  16.195   8.252  0.0073  0.0964  0.2047
  768loPI   C1B11277  16.521  16.965   6.176  0.2710 -0.0829  0.0165
  768loPI   C2B11278  16.660  17.238   6.570  0.0500  0.2559  0.1813
  768loPI   C3B11279  16.965  17.438   6.889  0.1488  0.0531  0.0459
  768loPI   C4B11280  16.931  17.780   7.133 -0.1142 -0.2700  0.0425
  769loPI    C111281  15.088  10.859   6.017 -0.1101 -0.2088 -0.2950
  769loPI    C211282  14.947  11.077   5.713 -0.1275  0.0620 -0.0974
  769loPI    C311283  15.340  11.064   5.784 -0.1364  0.1288 -0.0353
  769loPI   PO411284  14.846  10.643   6.004  0.2645  0.2084 -0.0812
  769loPI   GL111285  14.387  10.547   6.167  0.0702 -0.0370  0.0384
  769loPI   GL211286  14.508  10.229   6.103 -0.0753  0.1578  0.3184
  769loPI   C1A11287  14.476  10.444   6.576 -0.1115  0.0941  0.0141
  769loPI   C2A11288  14.305  10.346   6.918 -0.2704 -0.1236 -0.1765
  769loPI   C3A11289  14.279  10.411   7.405  0.1235 -0.0979  0.1729
  769loPI   C4A11290  14.223  10.393   7.773  0.1181  0.3101  0.0634
  769loPI   C5A11291  14.392  10.064   8.107  0.1570  0.0766  0.2017
  769loPI   C6A11292  14.238  10.017   8.569  0.2619  0.3361  0.2105
  769loPI   C1B11293  14.193  10.085   6.412 -0.3261  0.2162  0.1098
  769loPI   C2B11294  13.982   9.991   6.825 -0.0713  0.2260  0.0247
  769loPI   C3B11295  13.861  10.147   7.278 -0.1583 -0.0522 -0.1301
  769loPI   C4B11296  13.752  10.069   7.681  0.1717  0.1339 -0.0021
  770loPI    C111297  16.353   0.207   5.327  0.0956 -0.1855  0.0931
  770loPI    C211298  16.035   0.204   5.084 -0.0013 -0.1632  0.2188
  770loPI    C311299  16.355   0.425   4.992 -0.0631 -0.1044  0.1435
  770loPI   PO411300  16.294   0.212   5.539  0.3074 -0.0766 -0.2411
  770loPI   GL111301  16.422  -0.114   5.823  0.0192  0.0466 -0.0174
  770loPI   GL211302  16.174  -0.204   5.787  0.2889  0.1875  0.3347
  770loPI   C1A11303  16.475   0.178   6.209  0.0334 -0.2292 -0.0242
  770loPI   C2A11304  16.736   0.120   6.593  0.1652 -0.0266  0.2512
  770loPI   C3A11305  16.464   0.047   7.011 -0.0417 -0.0533  0.1235
  770loPI   C4A11306  16.584  -0.042   7.360 -0.1477 -0.3473 -0.0577
  770loPI   C5A11307  16.995  -0.054   7.596  0.2170  0.0355 -0.3039
  770loPI   C6A11308  17.291   0.083   7.802  0.0948 -0.2385 -0.1330
  770loPI   C1B11309  15.999  -0.218   6.172  0.1500  0.0083  0.5228
  770loPI   C2B11310  15.864  -0.416   6.494 -0.0042  0.4060  0.0778
  770loPI   C3B11311  15.694  -0.726   6.669  0.0487 -0.0242  0.0849
  770loPI   C4B11312  15.639  -1.107   6.827  0.0437  0.0025  0.0257
  771loPI    C111313   8.649   0.089   5.570 -0.2170  0.1248 -0.0640
  771loPI    C211314   8.410  -0.099   5.310  0.0662 -0.0200 -0.2230
  771loPI    C311315   8.503  -0.273   5.658  0.0532 -0.0252 -0.2222
  771loPI   PO411316   8.555   0.317   5.548  0.0765  0.1877  0.0665
  771loPI   GL111317   8.554   0.514   5.961 -0.1839 -0.2629  0.0227
  771loPI   GL211318   8.710   0.806   6.098  0.1708 -0.3250  0.0131
  771loPI   C1A11319   8.431   0.366   6.323  0.0764  0.2222 -0.2088
  771loPI   C2A11320   8.397   0.423   6.756 -0.1791  0.0950 -0.0718
  771loPI   C3A11321   8.170   0.501   7.175 -0.0304  0.1239 -0.0300
  771loPI   C4A11322   8.108   0.336   7.648 -0.2431  0.0460  0.3941
  771loPI   C5A11323   7.741   0.202   7.868 -0.0642  0.0711 -0.0959
  771loPI   C6A11324   7.410   0.010   7.988  0.2746 -0.3190  0.4404
  771loPI   C1B11325   8.763   0.758   6.524 -0.0893  0.0473  0.1199
  771loPI   C2B11326   8.648   0.852   6.868 -0.0275 -0.1538  0.0266
  771loPI   C3B11327   8.561   0.875   7.330  0.0189 -0.0951 -0.0774
  771loPI   C4B11328   8.504   0.675   7.802  0.0934  0.2757  0.3179
  772loPI    C111329   1.699   3.471   5.396  0.0536 -0.0817 -0.1399
  772loPI    C211330   1.376   3.507   5.162 -0.1300 -0.0238  0.1183
  772loPI    C311331   1.736   3.613   5.024 -0.2608  0.1674 -0.0809
  772loPI   PO411332   1.585   3.564   5.594 -0.1526  0.0946  0.1479
  772loPI   GL111333   1.432   3.664   5.960 -0.4796 -0.1139  0.0456
  772loPI   GL211334   1.756   3.407   6.054 -0.3135 -0.0838 -0.2242
  772loPI   C1A11335   1.577   3.687   6.425 -0.1395 -0.2059  0.0529
  772loPI   C2A11336   1.585   3.509   6.897  0.3030 -0.0958  0.1541
  772loPI   C3A11337   1.482   3.335   7.342 -0.0215 -0.2199 -0.0419
  772loPI   C4A11338   1.475   3.031   7.696  0.1781  0.2238 -0.0180
  772loPI   C5A11339   1.607   2.939   8.012 -0.2511  0.0709  0.1865
  772loPI   C6A11340   1.977   2.771   8.175 -0.3537 -0.0249 -0.2705
  772loPI   C1B11341   1.694   3.133   6.460  0.2010  0.0536  0.1498
  772loPI   C2B11342   1.795   3.094   6.853  0.0593  0.0295 -0.2999
  772loPI   C3B11343   1.779   2.877   7.288  0.4296 -0.1383  0.0978
  772loPI   C4B11344   1.948   2.761   7.680  0.0496  0.3623 -0.3842
  773loPI    C111345   4.143  11.952   5.649  0.1053 -0.1453 -0.0701
  773loPI    C211346   4.296  12.263   5.449  0.1299  0.0904  0.3052
  773loPI    C311347   4.227  11.917   5.260 -0.0233  0.3627 -0.1503
  773loPI   PO411348   4.103  12.099   5.898 -0.0472  0.2516 -0.1509
  773loPI   GL111349   4.344  12.208   6.294  0.2332 -0.1752  0.3043
  773loPI   GL211350   4.083  12.442   6.298  0.3929  0.2290  0.1310
  773loPI   C1A11351   4.491  11.969   6.618 -0.2040  0.1813  0.4800
  773loPI   C2A11352   4.489  12.101   6.938  0.1313 -0.2012  0.1230
  773loPI   C3A11353   4.381  12.066   7.404  0.1744  0.0353  0.0423
  773loPI   C4A11354   4.324  12.157   7.762 -0.1370 -0.1398 -0.3421
  773loPI   C5A11355   4.265  12.046   8.276  0.0032 -0.2655  0.1058
  773loPI   C6A11356   3.751  11.917   8.451  0.1120  0.2232  0.3695
  773loPI   C1B11357   4.078  12.357   6.716  0.1270 -0.0744  0.1984
  773loPI   C2B11358   3.986  12.426   7.191  0.3443  0.3194 -0.1616
  773loPI   C3B11359   4.016  12.430   7.583 -0.0224  0.1167  0.0268
  773loPI   C4B11360   4.191  12.511   8.099 -0.1312  0.0119 -0.4830
  774loPI    C111361  15.869   5.893   5.712  0.1255  0.2109  0.1401
  774loPI    C211362  15.972   5.536   5.563 -0.1930  0.1823 -0.0205
  774loPI    C311363  16.254   5.804   5.652  0.0401 -0.0526 -0.0403
  774loPI   PO411364  15.723   5.900   5.933 -0.3085  0.0291  0.1315
  774loPI   GL111365  15.698   5.768   6.388  0.1993  0.0141 -0.0460
  774loPI   GL211366  16.056   5.904   6.532 -0.2243 -0.1405  0.4469
  774loPI   C1A11367  15.610   5.836   6.776  0.0667  0.0187  0.0611
  774loPI   C2A11368  15.492   6.049   7.164  0.0503  0.0258 -0.2379
  774loPI   C3A11369  15.569   6.049   7.627 -0.0114  0.0048 -0.2423
  774loPI   C4A11370  15.949   6.047   7.933  0.3424 -0.1379 -0.0903
  774loPI   C5A11371  16.124   5.747   8.216  0.1591 -0.0312  0.0651
  774loPI   C6A11372  16.454   5.814   8.361  0.1774 -0.1434 -0.0109
  774loPI   C1B11373  16.160   5.797   7.025 -0.0407 -0.1667  0.0285
  774loPI   C2B11374  15.901   5.790   7.289 -0.1869  0.0324  0.1736
  774loPI   C3B11375  15.865   5.599   7.707 -0.1203  0.0468  0.0471
  774loPI   C4B11376  15.825   5.355   8.158  0.0221  0.0495  0.1158
  775loPI    C111377  10.729  10.966   5.725 -0.0031  0.0908 -0.1746
  775loPI    C211378  11.031  11.187   5.583  0.0676  0.1451  0.0569
  775loPI    C311379  10.691  11.157   5.375  0.0421  0.5037  0.0399
  775loPI   PO411380  10.863  10.751   5.796  0.2077 -0.0552  0.2349
  775loPI   GL111381  10.799  10.550   6.071 -0.0297 -0.3724  0.2317
  775loPI   GL211382  10.926  10.187   6.011  0.0854  0.1344  0.0365
  775loPI   C1A11383  10.750  10.791   6.428 -0.2497  0.2533 -0.0437
  775loPI   C2A11384  10.993  10.830   6.782  0.1153  0.0631  0.0796
  775loPI   C3A11385  11.103  10.668   7.240  0.1142  0.0999  0.3227
  775loPI   C4A11386  11.170  10.766   7.517  0.3869 -0.0613  0.1775
  775loPI   C5A11387  11.035  10.777   7.891 -0.0763 -0.0358  0.0973
  775loPI   C6A11388  10.809  10.689   8.361  0.1217  0.2649  0.0821
  775loPI   C1B11389  10.828  10.219   6.446 -0.0701 -0.2888 -0.0736
  775loPI   C2B11390  10.976  10.300   6.870  0.0296  0.0591  0.1749
  775loPI   C3B11391  11.050  10.175   7.337  0.2267 -0.1612 -0.1754
  775loPI   C4B11392  11.028  10.264   7.849  0.1635 -0.2012 -0.0334
  776loPI    C111393   7.785   5.759   5.460 -0.2036 -0.1776 -0.2553
  776loPI    C211394   8.078   5.592   5.245  0.1988  0.1747  0.0042
  776loPI    C311395   7.893   5.921   5.111  0.0512  0.0633 -0.0687
  776loPI   PO411396   7.839   5.797   5.648 -0.2725 -0.0101 -0.3087
  776loPI   GL111397   7.837   6.213   5.963  0.1231  0.0862 -0.0174
  776loPI   GL211398   7.742   6.497   6.052  0.0656  0.2296  0.1538
  776loPI   C1A11399   7.664   6.059   6.444  0.3632  0.0153  0.0695
  776loPI   C2A11400   7.581   6.035   6.840 -0.1080  0.0002 -0.1065
  776loPI   C3A11401   7.613   5.771   7.194  0.0017 -0.3761 -0.0815
  776loPI   C4A11402   7.749   5.516   7.538  0.2067 -0.1569  0.2494
  776loPI   C5A11403   7.771   5.210   7.818  0.0914  0.2276 -0.1598
  776loPI   C6A11404   7.777   4.707   7.884 -0.0364  0.1187  0.1345
  776loPI   C1B11405   7.593   6.560   6.501 -0.0760 -0.2582  0.0032
  776loPI   C2B11406   7.691   6.483   6.874  0.0962 -0.0736  0.3528
  776loPI   C3B11407   7.740   6.300   7.252  0.2191 -0.1239  0.0143
  776loPI   C4B11408   7.817   6.035   7.628 -0.0152  0.1908 -0.0758
  777loPI    C111409   9.670   7.322   5.742 -0.1455  0.2464  0.1219
  777loPI    C211410   9.983   7.569   5.769  0.1782 -0.1380 -0.0193
  777loPI    C311411   9.751   7.575   5.443  0.1389  0.0297  0.0111
  777loPI   PO411412   9.789   7.161   5.907  0.2195 -0.1010  0.0059
  777loPI   GL111413   9.696   6.903   6.211  0.0839  0.1502 -0.3141
  777loPI   GL211414   9.443   6.844   6.134 -0.0591 -0.1835 -0.1230
  777loPI   C1A11415   9.539   6.707   6.596  0.2260 -0.1815 -0.0426
  777loPI   C2A11416   9.478   6.682   7.071  0.1303 -0.2814 -0.0920
  777loPI   C3A11417   9.494   6.875   7.506  0.1789 -0.0594 -0.1487
  777loPI   C4A11418   9.731   6.707   7.749 -0.2999 -0.2266  0.0530
  777loPI   C5A11419   9.867   6.370   8.045 -0.0035  0.0702 -0.1546
  777loPI   C6A11420   9.991   6.016   7.970 -0.0676 -0.1210 -0.1165
  777loPI   C1B11421   9.401   7.233   6.469  0.2315 -0.2273 -0.0945
  777loPI   C2B11422   9.390   7.381   6.958 -0.0882  0.2208  0.1902
  777loPI   C3B11423   9.406   7.338   7.430  0.2650 -0.0584 -0.2019
  777loPI   C4B11424   9.192   7.258   7.833  0.0241  0.0091  0.0321
  778loPI    C111425   3.020  15.125   5.343 -0.0231  0.0996 -0.2075
  778loPI    C211426   3.144  14.885   5.638 -0.2366  0.1434 -0.0804
  778loPI    C311427   3.303  14.851   5.273 -0.1451 -0.0771 -0.0218
  778loPI   PO411428   2.760  15.133   5.379  0.1307 -0.2174 -0.1012
  778loPI   GL111429   2.390  15.206   5.700 -0.0878  0.4227  0.1934
  778loPI   GL211430   2.440  15.555   5.719  0.3286  0.1108  0.0956
  778loPI   C1A11431   2.428  15.090   6.130  0.0108  0.1712  0.0560
  778loPI   C2A11432   2.462  15.053   6.546  0.2349  0.0221 -0.0053
  778loPI   C3A11433   2.412  15.137   7.029  0.2043  0.3599 -0.2175
  778loPI   C4A11434   2.459  15.126   7.399  0.2589  0.0362  0.2627
  778loPI   C5A11435   2.482  15.160   7.871 -0.2205 -0.0719 -0.2451
  778loPI   C6A11436   2.778  15.452   8.158  0.1299  0.1300 -0.1620
  778loPI   C1B11437   2.440  15.627   6.070 -0.0167  0.0578 -0.1301
  778loPI   C2B11438   2.457  15.592   6.542  0.2737 -0.0589  0.1018
  778loPI   C3B11439   2.477  15.618   6.991 -0.3672  0.1800 -0.0657
  778loPI   C4B11440   2.524  15.720   7.341 -0.0880  0.2203  0.0261
  779loPI    C111441  16.870  10.910   5.683  0.1724  0.0629  0.0088
  779loPI    C211442  16.887  10.526   5.791 -0.0240 -0.0008 -0.1796
  779loPI    C311443  17.078  10.649   5.462 -0.0268  0.0471 -0.1634
  779loPI   PO411444  16.857  11.022   5.932 -0.0009 -0.0601 -0.0228
  779loPI   GL111445  16.820  10.794   6.289 -0.2795  0.2318 -0.2377
  779loPI   GL211446  17.089  10.899   6.373  0.0015  0.0628  0.1281
  779loPI   C1A11447  16.815  10.472   6.625 -0.0917 -0.1627  0.1187
  779loPI   C2A11448  16.828  10.471   7.069 -0.3247  0.0362  0.1415
  779loPI   C3A11449  16.923  10.290   7.338 -0.1067 -0.2242 -0.0665
  779loPI   C4A11450  17.104  10.368   7.686  0.2043  0.2784 -0.0433
  779loPI   C5A11451  17.377  10.496   8.043  0.0698  0.0552  0.0904
  779loPI   C6A11452  17.725  10.757   7.987 -0.0305  0.2371 -0.1769
  779loPI   C1B11453  17.190  10.778   6.750  0.6091 -0.2459 -0.0849
  779loPI   C2B11454  17.297  10.686   7.147  0.0556  0.1732  0.2034
  779loPI   C3B11455  17.454  10.743   7.549 -0.0172  0.0351  0.1601
  779loPI   C4B11456  17.191  10.918   7.939 -0.0445 -0.0808  0.4453
  780loPI    C111457   2.532   6.427   5.247  0.0245  0.1432 -0.0632
  780loPI    C211458   2.465   6.809   5.344 -0.0011  0.0841  0.1579
  780loPI    C311459   2.754   6.717   5.084 -0.0110  0.2553  0.0846
  780loPI   PO411460   2.507   6.296   5.539 -0.1783  0.1864  0.1239
  780loPI   GL111461   2.343   6.241   6.012 -0.0156 -0.1561 -0.2687
  780loPI   GL211462   2.608   6.527   5.984 -0.2252 -0.0467 -0.0243
  780loPI   C1A11463   2.455   6.198   6.419 -0.0573  0.0302  0.0135
  780loPI   C2A11464   2.638   6.337   6.786 -0.0336 -0.2736  0.1947
  780loPI   C3A11465   2.641   6.316   7.225  0.4074 -0.2638  0.1069
  780loPI   C4A11466   2.721   6.314   7.616  0.0316  0.0797  0.1548
  780loPI   C5A11467   2.882   6.199   8.077 -0.0711  0.0226 -0.0333
  780loPI   C6A11468   2.740   6.008   8.545 -0.2147  0.1749 -0.0052
  780loPI   C1B11469   2.577   6.802   6.365  0.1863  0.2324  0.1090
  780loPI   C2B11470   2.954   6.773   6.743  0.0144 -0.2270  0.0779
  780loPI   C3B11471   2.960   6.738   7.220 -0.2945 -0.0543 -0.0336
  780loPI   C4B11472   3.011   6.848   7.609 -0.3362 -0.2106  0.0820
  781loPI    C111473  13.020  12.485   5.078  0.0581 -0.0925 -0.1705
  781loPI    C211474  12.699  12.253   5.134  0.1982 -0.2048  0.2013
  781loPI    C311475  12.703  12.520   4.836 -0.1255 -0.3963  0.0183
  781loPI   PO411476  13.065  12.647   5.420 -0.3253  0.1043  0.1904
  781loPI   GL111477  12.762  12.673   5.815 -0.0104 -0.2178 -0.1961
  781loPI   GL211478  12.663  12.405   6.000 -0.0789  0.1979  0.2208
  781loPI   C1A11479  13.029  12.792   6.214 -0.1544 -0.0196 -0.1478
  781loPI   C2A11480  13.063  12.790   6.632 -0.1122  0.0380 -0.2507
  781loPI   C3A11481  13.043  12.661   7.046  0.0417 -0.0159  0.1064
  781loPI   C4A11482  13.142  12.710   7.403 -0.1100 -0.0972 -0.1282
  781loPI   C5A11483  12.958  12.665   7.710  0.1170 -0.3711  0.1410
  781loPI   C6A11484  12.617  12.652   8.016 -0.0743  0.2067 -0.2002
  781loPI   C1B11485  12.756  12.465   6.471 -0.0917 -0.0377 -0.1237
  781loPI   C2B11486  12.653  12.364   6.896 -0.3973  0.0271  0.2018
  781loPI   C3B11487  12.681  12.437   7.319 -0.0861 -0.1130  0.1255
  781loPI   C4B11488  12.518  12.388   7.639  0.0349  0.1269  0.2086
  782loPI    C111489   4.612  12.219   5.859 -0.2105 -0.1832 -0.0926
  782loPI    C211490   4.519  11.863   6.017 -0.1580 -0.0306  0.2940
  782loPI    C311491   4.612  11.892   5.629 -0.2801 -0.4166  0.2317
  782loPI   PO411492   4.783  12.295   6.005 -0.2037  0.1019  0.1727
  782loPI   GL111493   4.856  12.077   6.318  0.2171 -0.1102 -0.0061
  782loPI   GL211494   4.941  11.722   6.230 -0.1890 -0.1006  0.1083
  782loPI   C1A11495   4.978  12.257   6.668  0.0941 -0.1416  0.1909
  782loPI   C2A11496   5.044  12.305   7.076  0.1207  0.0005 -0.2720
  782loPI   C3A11497   4.880  12.283   7.483  0.0851 -0.1490  0.3100
  782loPI   C4A11498   4.935  12.379   7.935 -0.2208 -0.0383  0.0558
  782loPI   C5A11499   4.656  12.384   8.298 -0.1092 -0.0374 -0.0153
  782loPI   C6A11500   4.455  12.525   8.607  0.0408  0.0216 -0.3315
  782loPI   C1B11501   4.935  11.783   6.725  0.0430  0.1374  0.2023
  782loPI   C2B11502   4.847  11.809   7.176  0.2209  0.1438 -0.0965
  782loPI   C3B11503   4.744  11.788   7.606  0.2047  0.0448 -0.1846
  782loPI   C4B11504   4.850  11.907   7.970  0.1312  0.0787 -0.1600
  783loPI    C111505  16.223   2.378   5.211  0.0161 -0.1741  0.1176
  783loPI    C211506  16.522   2.190   5.025 -0.2360 -0.3663 -0.1011
  783loPI    C311507  16.151   2.172   4.876 -0.3071  0.1154  0.0023
  783loPI   PO411508  16.356   2.527   5.427 -0.2826 -0.1599  0.0677
  783loPI   GL111509  16.599   2.328   5.809  0.2252  0.1879  0.1137
  783loPI   GL211510  16.290   2.188   5.722 -0.1375 -0.2257 -0.0305
  783loPI   C1A11511  16.945   2.355   6.066 -0.4389 -0.1534 -0.0474
  783loPI   C2A11512  17.168   2.407   6.326 -0.0904  0.0724  0.3102
  783loPI   C3A11513  17.281   2.480   6.680 -0.2374  0.1664 -0.1720
  783loPI   C4A11514  17.381   2.324   6.991 -0.0624  0.0316 -0.4734
  783loPI   C5A11515  17.478   2.154   7.408 -0.1093  0.1615  0.0816
  783loPI   C6A11516  17.480   2.298   7.875  0.4359  0.0432 -0.0184
  783loPI   C1B11517  16.448   2.131   6.269  0.2224  0.4111  0.2908
  783loPI   C2B11518  16.795   2.071   6.547 -0.0622  0.2747 -0.2717
  783loPI   C3B11519  16.929   2.138   6.865  0.1469  0.0424 -0.0331
  783loPI   C4B11520  16.881   2.105   7.277  0.0098  0.0617  0.3473
  784loPI    C111521   5.988  11.544   5.520 -0.0394  0.0581 -0.2135
  784loPI    C211522   5.609  11.478   5.409  0.0450 -0.1164 -0.4032
  784loPI    C311523   5.894  11.212   5.317  0.1600 -0.1476  0.0236
  784loPI   PO411524   5.933  11.573   5.797  0.1911 -0.4339 -0.0324
  784loPI   GL111525   5.722  11.427   6.209  0.0821 -0.1170 -0.1151
  784loPI   GL211526   5.976  11.172   6.363  0.1990 -0.4238  0.1609
  784loPI   C1A11527   5.693  11.589   6.640 -0.0629  0.1097 -0.0613
  784loPI   C2A11528   5.758  11.714   7.029  0.0114  0.0399 -0.1955
  784loPI   C3A11529   5.757  11.666   7.466 -0.0886  0.2471  0.2273
  784loPI   C4A11530   5.786  11.842   7.809 -0.1151 -0.0580 -0.1309
  784loPI   C5A11531   6.203  12.187   7.885  0.0057  0.2664 -0.4793
  784loPI   C6A11532   6.590  12.385   8.071 -0.1023  0.2113 -0.1224
  784loPI   C1B11533   6.164  11.238   6.767 -0.2636 -0.3052  0.2841
  784loPI   C2B11534   6.136  11.355   7.209 -0.0583 -0.1640 -0.1127
  784loPI   C3B11535   6.182  11.439   7.640  0.0538  0.1097 -0.1814
  784loPI   C4B11536   6.359  11.198   8.031  0.1247 -0.0230  0.0483
  785loPI    C111537   4.051   4.265   5.113  0.0069 -0.1140  0.0236
  785loPI    C211538   4.035   4.432   4.750 -0.1174  0.1663  0.1548
  785loPI    C311539   3.791   4.128   4.841 -0.1109  0.1190  0.0163
  785loPI   PO411540   4.064   4.470   5.278 -0.1197  0.3572  0.0436
  785loPI   GL111541   3.859   4.431   5.657 -0.3250  0.0821  0.1085
  785loPI   GL211542   3.758   4.645   5.834 -0.0551 -0.0774 -0.0411
  785loPI   C1A11543   3.954   4.222   6.057 -0.1942  0.3351  0.0797
  785loPI   C2A11544   4.096   4.410   6.439  0.1222 -0.0343  0.3128
  785loPI   C3A11545   4.134   4.450   6.802 -0.0834  0.2256  0.2034
  785loPI   C4A11546   4.127   4.500   7.185  0.1990  0.1071  0.1373
  785loPI   C5A11547   4.333   4.506   7.634 -0.0400  0.0621  0.1408
  785loPI   C6A11548   4.477   4.485   8.061  0.1348 -0.1767  0.1224
  785loPI   C1B11549   3.628   4.595   6.240  0.3331 -0.0288 -0.2244
  785loPI   C2B11550   3.632   4.538   6.703  0.2090 -0.3815 -0.1523
  785loPI   C3B11551   3.530   4.517   7.195  0.2045 -0.1771  0.1857
  785loPI   C4B11552   3.771   4.263   7.500  0.2004  0.0458 -0.0167
  786loPI    C111553  13.532   9.258   5.235 -0.0414  0.2140 -0.1040
  786loPI    C211554  13.888   9.383   5.101  0.0654  0.2188  0.1765
  786loPI    C311555  13.852   9.019   5.265 -0.0536  0.2281  0.1719
  786loPI   PO411556  13.528   9.501   5.424  0.1368  0.1362  0.1506
  786loPI   GL111557  13.319   9.562   5.890 -0.1268 -0.0938 -0.2003
  786loPI   GL211558  13.170   9.923   5.985 -0.0034  0.0541 -0.0271
  786loPI   C1A11559  13.558   9.642   6.237 -0.0917 -0.1028 -0.0427
  786loPI   C2A11560  13.575   9.769   6.670 -0.3706 -0.0555  0.2178
  786loPI   C3A11561  13.501   9.829   7.032  0.0664  0.1938  0.1688
  786loPI   C4A11562  13.281   9.940   7.424 -0.1664 -0.0008 -0.0889
  786loPI   C5A11563  13.333   9.846   7.874  0.2424 -0.1275 -0.0086
  786loPI   C6A11564  13.250   9.443   8.134 -0.2062  0.1075  0.2506
  786loPI   C1B11565  13.175  10.022   6.424 -0.4026  0.3088  0.0710
  786loPI   C2B11566  13.097  10.124   6.922 -0.0245 -0.0767  0.0408
  786loPI   C3B11567  12.939  10.289   7.288  0.0858  0.1266  0.1172
  786loPI   C4B11568  12.915  10.307   7.729 -0.1378 -0.2600  0.2974
  787loPI    C111569  15.939  12.395   5.293  0.0481 -0.0582 -0.1005
  787loPI    C211570  16.316  12.517   5.237  0.0905 -0.0408  0.2057
  787loPI    C311571  16.095  12.397   4.925  0.3452 -0.0416  0.0233
  787loPI   PO411572  15.878  12.536   5.477  0.1996  0.3939  0.0534
  787loPI   GL111573  15.696  12.575   5.940 -0.0140 -0.0383 -0.0019
  787loPI   GL211574  15.760  12.846   6.153  0.1292  0.0581  0.1502
  787loPI   C1A11575  15.756  12.434   6.471  0.0850  0.2485 -0.3058
  787loPI   C2A11576  15.889  12.293   6.825 -0.0816  0.1542 -0.2485
  787loPI   C3A11577  15.887  12.299   7.229  0.1794  0.1628  0.0099
  787loPI   C4A11578  15.634  12.370   7.627 -0.1135  0.0827 -0.0418
  787loPI   C5A11579  15.444  12.128   7.910  0.2361 -0.0111  0.0738
  787loPI   C6A11580  15.433  12.048   8.301  0.2424  0.0823 -0.0715
  787loPI   C1B11581  15.469  12.804   6.470 -0.1903  0.1027 -0.0313
  787loPI   C2B11582  15.561  12.662   6.914  0.2228 -0.1648  0.3253
  787loPI   C3B11583  15.764  12.747   7.351  0.1637 -0.1436 -0.0416
  787loPI   C4B11584  15.578  12.868   7.704  0.4268  0.0831  0.1286
  788loPI    C111585   7.804   8.020   5.469  0.2093  0.1184  0.0746
  788loPI    C211586   7.925   7.867   5.121 -0.1623  0.0003 -0.0067
  788loPI    C311587   7.805   8.248   5.140  0.0166  0.0557  0.0293
  788loPI   PO411588   8.011   7.954   5.721  0.1321 -0.0588  0.2756
  788loPI   GL111589   8.109   8.012   6.154 -0.0908 -0.0340 -0.1045
  788loPI   GL211590   7.923   8.295   6.402  0.0535  0.0588  0.1352
  788loPI   C1A11591   8.129   7.863   6.527  0.2286 -0.0920  0.1794
  788loPI   C2A11592   8.342   7.628   6.689 -0.1410 -0.0453  0.2240
  788loPI   C3A11593   8.548   7.717   6.990 -0.1793 -0.2633  0.1962
  788loPI   C4A11594   8.737   7.857   7.376 -0.1112 -0.0613  0.1621
  788loPI   C5A11595   8.652   7.866   7.791  0.1647 -0.1042 -0.2254
  788loPI   C6A11596   8.401   8.088   8.005 -0.2971 -0.1691 -0.0771
  788loPI   C1B11597   7.813   8.325   6.833  0.0079  0.1535 -0.1435
  788loPI   C2B11598   7.960   8.176   7.216 -0.0017  0.0438  0.4010
  788loPI   C3B11599   8.247   7.876   7.536  0.1859  0.1511 -0.3294
  788loPI   C4B11600   8.249   7.634   7.899 -0.0772 -0.1165  0.0358
  789loPI    C111601  11.043   3.851   5.565 -0.0945 -0.0979 -0.1326
  789loPI    C211602  11.439   3.881   5.520 -0.0540 -0.1682  0.1561
  789loPI    C311603  11.217   3.717   5.231  0.1126 -0.0289 -0.0538
  789loPI   PO411604  11.022   3.817   5.792 -0.0851 -0.1310  0.0531
  789loPI   GL111605  11.012   3.881   6.076 -0.2104 -0.0263  0.2977
  789loPI   GL211606  11.061   4.156   6.237  0.2473  0.0688  0.4590
  789loPI   C1A11607  11.111   3.747   6.489 -0.0695  0.0368 -0.2012
  789loPI   C2A11608  11.033   3.920   6.870 -0.1248 -0.2545  0.0089
  789loPI   C3A11609  10.951   3.973   7.233 -0.3351  0.2436  0.1600
  789loPI   C4A11610  10.881   3.976   7.596  0.4161  0.0852  0.2439
  789loPI   C5A11611  10.998   4.109   7.986  0.0233  0.0172  0.2776
  789loPI   C6A11612  10.692   4.097   8.286 -0.1766  0.0357 -0.0865
  789loPI   C1B11613  10.841   4.330   6.663 -0.1024 -0.0546 -0.0325
  789loPI   C2B11614  10.626   4.441   7.108 -0.0889 -0.0247  0.0136
  789loPI   C3B11615  10.579   4.380   7.453  0.5964  0.1036  0.2215
  789loPI   C4B11616  10.552   4.282   7.817  0.0684  0.0936 -0.2086
  790loPI    C111617   9.136   3.717   5.349  0.1775 -0.2578  0.0927
  790loPI    C211618   8.926   3.607   5.026 -0.0077 -0.1272  0.1673
  790loPI    C311619   9.325   3.617   5.011 -0.0109 -0.2385 -0.0201
  790loPI   PO411620   9.040   4.001   5.348  0.0008  0.1338  0.0977
  790loPI   GL111621   9.166   4.163   5.692 -0.0285  0.2210  0.0823
  790loPI   GL211622   8.961   4.505   5.819  0.0872  0.0923  0.1669
  790loPI   C1A11623   8.859   3.997   6.008 -0.1977  0.0125 -0.2435
  790loPI   C2A11624   8.840   3.940   6.418  0.0878 -0.1280  0.0314
  790loPI   C3A11625   8.762   4.030   6.929  0.2336  0.1507 -0.1063
  790loPI   C4A11626   8.585   4.072   7.292 -0.0750 -0.1601 -0.0188
  790loPI   C5A11627   8.537   4.124   7.777 -0.0766 -0.3479  0.1229
  790loPI   C6A11628   8.562   4.353   8.123 -0.0408 -0.1555  0.0426
  790loPI   C1B11629   8.649   4.637   6.146 -0.1070  0.2294 -0.1587
  790loPI   C2B11630   8.442   4.686   6.538  0.5213  0.1107 -0.0066
  790loPI   C3B11631   8.015   4.460   6.788  0.1075  0.2123 -0.0581
  790loPI   C4B11632   7.674   4.580   7.146  0.2469  0.3155  0.3563
  791loPI    C111633   5.771   7.782   5.957  0.0117 -0.0889 -0.2047
  791loPI    C211634   5.848   8.057   5.677 -0.1070  0.1270 -0.0294
  791loPI    C311635   5.523   7.826   5.646 -0.1542  0.1943 -0.0369
  791loPI   PO411636   5.867   7.911   6.167 -0.1481 -0.2280  0.1289
  791loPI   GL111637   5.817   8.039   6.584 -0.0205 -0.0878 -0.1712
  791loPI   GL211638   6.106   8.314   6.627  0.0266 -0.0227 -0.1620
  791loPI   C1A11639   5.642   7.884   6.948  0.2212  0.2336 -0.1891
  791loPI   C2A11640   5.432   7.867   7.272 -0.1816  0.0044 -0.3272
  791loPI   C3A11641   5.311   7.609   7.545  0.0206  0.0788 -0.1901
  791loPI   C4A11642   5.140   7.162   7.679  0.0844 -0.2993 -0.0588
  791loPI   C5A11643   4.808   6.961   7.852  0.1109 -0.1345 -0.0405
  791loPI   C6A11644   4.369   6.965   7.996 -0.1649  0.1654 -0.1085
  791loPI   C1B11645   6.350   8.269   6.955 -0.1747 -0.0080 -0.1622
  791loPI   C2B11646   6.574   8.158   7.367  0.1978  0.2343 -0.0975
  791loPI   C3B11647   6.841   7.976   7.666  0.0038  0.0034  0.0773
  791loPI   C4B11648   6.863   7.708   8.111 -0.2429 -0.0387  0.0584
  792loPI    C111649   9.158   1.364   5.310 -0.1245 -0.0887  0.0589
  792loPI    C211650   9.169   1.609   4.994 -0.1626 -0.0943  0.0532
  792loPI    C311651   9.375   1.267   4.989 -0.1480 -0.0853  0.0420
  792loPI   PO411652   9.109   1.513   5.459 -0.2168 -0.0314  0.1109
  792loPI   GL111653   9.320   1.517   5.811  0.1063 -0.1671 -0.0431
  792loPI   GL211654   9.690   1.606   5.895 -0.3216 -0.2259  0.1348
  792loPI   C1A11655   9.169   1.735   6.158  0.0570 -0.0861 -0.2691
  792loPI   C2A11656   8.778   2.011   6.280  0.0240 -0.0675 -0.0330
  792loPI   C3A11657   8.640   2.171   6.755 -0.0208 -0.1595 -0.1298
  792loPI   C4A11658   8.757   2.205   7.246 -0.0590 -0.0761  0.2045
  792loPI   C5A11659   8.959   1.967   7.555 -0.1625 -0.1624  0.0451
  792loPI   C6A11660   9.212   1.878   7.852 -0.0275 -0.4542 -0.2873
  792loPI   C1B11661   9.788   1.800   6.273 -0.1089  0.2438  0.3147
  792loPI   C2B11662   9.937   1.902   6.676  0.1473 -0.3983 -0.1072
  792loPI   C3B11663   9.843   1.900   7.128 -0.0031 -0.0073  0.1984
  792loPI   C4B11664   9.527   1.968   7.457  0.0496 -0.0282  0.0706
  793loPI    C111665  14.972   3.882   5.717  0.3085 -0.0673  0.1583
  793loPI    C211666  15.270   4.019   5.489  0.0479  0.1562 -0.0557
  793loPI    C311667  14.943   3.864   5.319 -0.0382  0.0828  0.1724
  793loPI   PO411668  15.074   3.707   5.886 -0.0316 -0.0845  0.1182
  793loPI   GL111669  15.116   3.673   6.310 -0.1539 -0.0655 -0.1811
  793loPI   GL211670  15.448   3.695   6.335 -0.0968 -0.1504  0.1247
  793loPI   C1A11671  14.928   3.603   6.688  0.1128  0.1528 -0.1978
  793loPI   C2A11672  15.043   3.464   7.080  0.2008 -0.1093 -0.2633
  793loPI   C3A11673  15.153   3.475   7.497 -0.0726 -0.1920 -0.1314
  793loPI   C4A11674  15.070   3.149   7.797 -0.2000 -0.3958  0.1278
  793loPI   C5A11675  15.106   2.909   8.173  0.0122 -0.1915  0.0751
  793loPI   C6A11676  15.031   2.544   8.224 -0.1911 -0.1039 -0.0057
  793loPI   C1B11677  15.506   3.594   6.773 -0.0531  0.2325 -0.0160
  793loPI   C2B11678  15.533   3.336   7.191 -0.3341  0.0979 -0.3677
  793loPI   C3B11679  15.533   3.093   7.613  0.2993  0.1013  0.1530
  793loPI   C4B11680  15.447   2.709   7.858 -0.0532  0.4036 -0.2109
  794loPI    C111681   2.052   1.046   5.262  0.1498  0.1115  0.0760
  794loPI    C211682   2.091   1.280   4.939  0.1286  0.0135  0.0018
  794loPI    C311683   1.817   0.988   4.943  0.1027  0.0388  0.1236
  794loPI   PO411684   2.030   1.246   5.453 -0.0074  0.3113  0.4033
  794loPI   GL111685   2.189   1.229   5.787 -0.1563 -0.0317  0.0183
  794loPI   GL211686   2.227   1.587   5.823  0.1087 -0.1985 -0.0743
  794loPI   C1A11687   2.229   1.237   6.225 -0.0179  0.1874 -0.0803
  794loPI   C2A11688   2.268   0.997   6.568 -0.2576  0.1934 -0.1840
  794loPI   C3A11689   2.305   0.966   6.933  0.0958 -0.4055  0.1781
  794loPI   C4A11690   2.233   0.890   7.339 -0.1221 -0.3153 -0.2047
  794loPI   C5A11691   2.403   0.849   7.800 -0.2935 -0.0351 -0.0009
  794loPI   C6A11692   2.329   0.909   8.281  0.2138  0.2074 -0.1279
  794loPI   C1B11693   2.454   1.674   6.248  0.1137 -0.6173 -0.0065
  794loPI   C2B11694   2.644   1.705   6.711  0.3086  0.3321  0.3131
  794loPI   C3B11695   2.581   1.898   7.088 -0.0956 -0.2284  0.0101
  794loPI   C4B11696   2.327   2.054   7.370 -0.4597 -0.2623  0.1297
  795loPI    C111697  16.652   3.396   5.258  0.1175 -0.0222 -0.1356
  795loPI    C211698  16.692   3.785   5.173  0.2643 -0.0511 -0.2023
  795loPI    C311699  16.530   3.537   4.904 -0.1514  0.0227 -0.0271
  795loPI   PO411700  16.585   3.355   5.466  0.0495  0.0390 -0.3927
  795loPI   GL111701  16.624   3.403   5.930 -0.0504 -0.1032 -0.1514
  795loPI   GL211702  16.423   3.671   5.911 -0.0870  0.0732  0.0369
  795loPI   C1A11703  16.834   3.301   6.365 -0.0785 -0.1103 -0.0646
  795loPI   C2A11704  16.908   3.164   6.814  0.1916  0.0032 -0.0243
  795loPI   C3A11705  17.118   3.108   7.160 -0.1694  0.0831  0.0291
  795loPI   C4A11706  17.266   2.939   7.569 -0.0266  0.0384 -0.4668
  795loPI   C5A11707  17.199   2.776   8.019 -0.1912  0.1139  0.1485
  795loPI   C6A11708  16.852   2.525   8.150 -0.2371  0.1651 -0.1650
  795loPI   C1B11709  16.342   3.525   6.296 -0.1817 -0.1403  0.1829
  795loPI   C2B11710  16.466   3.459   6.735 -0.1950 -0.1024 -0.3824
  795loPI   C3B11711  16.495   3.391   7.130 -0.0403  0.1677 -0.0226
  795loPI   C4B11712  16.353   3.205   7.529 -0.2309  0.1096  0.2512
  796loPI    C111713  12.453   6.098   5.963  0.2575  0.0458 -0.2423
  796loPI    C211714  12.205   6.405   5.897 -0.1709 -0.2354  0.0068
  796loPI    C311715  12.302   6.158   5.598 -0.1906 -0.1252 -0.0916
  796loPI   PO411716  12.282   6.000   6.234 -0.1932  0.1722 -0.0361
  796loPI   GL111717  12.238   5.838   6.551 -0.1853  0.1770 -0.0757
  796loPI   GL211718  12.373   6.080   6.726 -0.0237  0.2523  0.1287
  796loPI   C1A11719  11.849   5.798   6.705  0.0525 -0.0536 -0.0476
  796loPI   C2A11720  11.611   5.549   7.041 -0.1245  0.1011 -0.1839
  796loPI   C3A11721  11.640   5.238   7.415  0.0056  0.1772  0.1636
  796loPI   C4A11722  11.690   5.330   7.835 -0.2153 -0.2141 -0.0062
  796loPI   C5A11723  11.717   5.104   8.108  0.0579  0.2209 -0.1089
  796loPI   C6A11724  12.088   4.756   8.136 -0.0318 -0.1015  0.0975
  796loPI   C1B11725  12.506   6.127   7.162  0.1993  0.0950 -0.0031
  796loPI   C2B11726  12.163   6.185   7.568  0.0677  0.0618 -0.1194
  796loPI   C3B11727  12.333   6.395   7.962  0.1696  0.0294  0.1340
  796loPI   C4B11728  12.598   6.665   8.219  0.1065 -0.1527 -0.2936
  797loPI    C111729  17.112   0.429   5.099 -0.0815 -0.0296 -0.0852
  797loPI    C211730  16.825   0.622   4.898 -0.2613 -0.1307  0.0713
  797loPI    C311731  16.792   0.230   4.966 -0.0438 -0.1599  0.0174
  797loPI   PO411732  17.201   0.584   5.247 -0.1435 -0.0673  0.3990
  797loPI   GL111733  17.258   0.567   5.665 -0.1904 -0.0197  0.1557
  797loPI   GL211734  17.236   0.211   5.522  0.1028  0.0185 -0.0612
  797loPI   C1A11735  17.223   0.792   5.972 -0.0126  0.1323  0.1344
  797loPI   C2A11736  17.150   0.890   6.451 -0.0929 -0.1991 -0.4083
  797loPI   C3A11737  16.985   0.895   6.935  0.0642  0.2018 -0.4049
  797loPI   C4A11738  16.947   0.977   7.349  0.0634  0.2714  0.2328
  797loPI   C5A11739  16.787   0.897   7.751  0.1087  0.0897  0.0336
  797loPI   C6A11740  17.047   0.506   8.088  0.0082 -0.1426 -0.2282
  797loPI   C1B11741  16.900   0.112   5.869  0.2678 -0.0887 -0.1349
  797loPI   C2B11742  16.834  -0.145   6.153  0.1971 -0.4659 -0.1072
  797loPI   C3B11743  16.897  -0.337   6.486 -0.0239  0.1685 -0.0053
  797loPI   C4B11744  17.338  -0.500   6.546  0.0023  0.3038 -0.0567
  798loPI    C111745  17.809  17.399   5.252 -0.1194  0.3459  0.0198
  798loPI    C211746  17.548  17.384   4.949  0.0454  0.2820 -0.1205
  798loPI    C311747  17.938  17.325   4.880  0.0544  0.0153  0.1423
  798loPI   PO411748  17.624  17.453   5.460 -0.2895  0.2252  0.1983
  798loPI   GL111749  17.563  17.518   5.836  0.0587  0.0540  0.1980
  798loPI   GL211750  17.360  17.826   5.808 -0.0431  0.1980 -0.1595
  798loPI   C1A11751  17.593  17.218   6.160  0.0111 -0.0671  0.2359
  798loPI   C2A11752  17.451  17.084   6.593  0.0030 -0.2027 -0.1992
  798loPI   C3A11753  17.401  17.213   7.116 -0.3574  0.0867  0.2114
  798loPI   C4A11754  17.118  17.416   7.364  0.3994  0.4045  0.0304
  798loPI   C5A11755  16.901  17.521   7.690  0.0009  0.1525  0.0591
  798loPI   C6A11756  16.545  17.251   8.004 -0.1657 -0.1268 -0.1762
  798loPI   C1B11757  17.277  18.057   6.282 -0.2081 -0.4077 -0.2012
  798loPI   C2B11758  17.215  17.977   6.763  0.1098 -0.1972  0.0509
  798loPI   C3B11759  17.439  17.708   7.022 -0.0934  0.0523 -0.3220
  798loPI   C4B11760  17.498  17.720   7.552 -0.1301  0.1218 -0.1575
  799loPI    C111761  11.745  16.114   5.248  0.1513  0.0048  0.0235
  799loPI    C211762  11.451  15.876   5.118  0.2166 -0.1256  0.1117
  799loPI    C311763  11.753  15.971   4.874  0.1292 -0.0349  0.0380
  799loPI   PO411764  11.711  16.004   5.544 -0.0418  0.0352  0.0366
  799loPI   GL111765  11.883  15.745   5.863 -0.1964  0.1026 -0.0068
  799loPI   GL211766  11.950  15.427   5.842 -0.1439  0.0105 -0.1744
  799loPI   C1A11767  12.140  15.827   6.099  0.1858 -0.0611  0.3026
  799loPI   C2A11768  12.268  15.772   6.501 -0.1957  0.0344  0.0929
  799loPI   C3A11769  12.392  15.869   6.940  0.0677  0.0301 -0.1309
  799loPI   C4A11770  12.435  15.924   7.314  0.1471  0.0497 -0.0367
  799loPI   C5A11771  12.483  15.669   7.634  0.0391  0.1302  0.0197
  799loPI   C6A11772  12.355  15.675   8.081  0.0221 -0.0701 -0.0636
  799loPI   C1B11773  11.820  15.484   6.371  0.0242  0.0208  0.0386
  799loPI   C2B11774  11.840  15.539   6.790 -0.1296 -0.0195 -0.2045
  799loPI   C3B11775  11.945  15.662   7.183 -0.1099  0.1945 -0.2016
  799loPI   C4B11776  12.002  15.670   7.675 -0.0557 -0.0345 -0.0900
  800loPI    C111777  14.057   6.749   5.671 -0.2965 -0.1213  0.2242
  800loPI    C211778  13.777   6.511   5.514 -0.1135 -0.2097  0.0267
  800loPI    C311779  13.988   6.754   5.277  0.0812 -0.2544  0.1524
  800loPI   PO411780  14.133   6.528   5.909 -0.0686 -0.1181  0.3310
  800loPI   GL111781  14.016   6.511   6.350 -0.1264  0.0786 -0.1310
  800loPI   GL211782  13.683   6.386   6.513  0.4244 -0.2479  0.0869
  800loPI   C1A11783  13.937   6.849   6.708 -0.0444  0.0821  0.3845
  800loPI   C2A11784  13.995   6.868   7.178  0.1061 -0.2671 -0.4734
  800loPI   C3A11785  14.117   7.028   7.633  0.1627 -0.1558  0.1821
  800loPI   C4A11786  14.262   7.035   8.040 -0.0900  0.2923  0.1480
  800loPI   C5A11787  14.210   6.625   8.342 -0.1321 -0.1271  0.3914
  800loPI   C6A11788  13.785   6.439   8.488  0.2957  0.2402  0.2500
  800loPI   C1B11789  13.831   6.192   6.827 -0.1385 -0.1617 -0.1922
  800loPI   C2B11790  14.084   6.391   7.100  0.1104  0.2370 -0.1247
  800loPI   C3B11791  14.261   6.357   7.455 -0.2833  0.2121  0.0642
  800loPI   C4B11792  14.232   6.612   7.764 -0.2298  0.2039 -0.1229
  801loPI    C111793   4.471  16.719   5.431 -0.0588  0.0562  0.0559
  801loPI    C211794   4.764  16.980   5.508 -0.0940  0.1328 -0.0665
  801loPI    C311795   4.632  16.932   5.133  0.1533 -0.3174 -0.1044
  801loPI   PO411796   4.290  16.710   5.619  0.1669 -0.1685  0.1261
  801loPI   GL111797   4.275  16.965   5.960  0.0480  0.1628  0.0131
  801loPI   GL211798   4.297  16.655   6.083  0.0207  0.0540 -0.0042
  801loPI   C1A11799   4.089  17.225   6.227 -0.0493 -0.1040 -0.2112
  801loPI   C2A11800   4.073  17.234   6.581 -0.2674 -0.0657  0.3702
  801loPI   C3A11801   3.947  17.350   6.952  0.2852 -0.0109 -0.1973
  801loPI   C4A11802   3.979  17.440   7.342 -0.2039  0.1463 -0.2059
  801loPI   C5A11803   4.101  17.421   7.839  0.4071  0.2931  0.1216
  801loPI   C6A11804   3.915  17.173   8.187 -0.0215 -0.0711  0.1127
  801loPI   C1B11805   4.221  16.762   6.505  0.0562 -0.1454  0.1382
  801loPI   C2B11806   4.289  16.832   6.954 -0.1827 -0.1939 -0.0235
  801loPI   C3B11807   4.324  17.117   7.329  0.2085  0.2325  0.0141
  801loPI   C4B11808   4.499  17.193   7.749 -0.0922 -0.1128  0.0490
  802loPI    C111809   2.965  11.242   5.395  0.1333 -0.0907  0.3847
  802loPI    C211810   2.664  11.011   5.268  0.0660  0.2072 -0.0170
  802loPI    C311811   3.042  10.886   5.228  0.0250  0.1149 -0.1229
  802loPI   PO411812   2.893  11.324   5.651 -0.1032  0.0557 -0.0061
  802loPI   GL111813   2.721  11.509   5.999  0.1373  0.0453 -0.0425
  802loPI   GL211814   3.012  11.516   6.166 -0.1291 -0.0002 -0.2075
  802loPI   C1A11815   2.661  11.791   6.346 -0.2001  0.1852  0.2335
  802loPI   C2A11816   2.612  11.741   6.715  0.0086 -0.1624 -0.2246
  802loPI   C3A11817   2.559  11.809   7.077 -0.0857 -0.2121 -0.2178
  802loPI   C4A11818   2.626  11.835   7.498 -0.3052  0.2518 -0.0518
  802loPI   C5A11819   2.468  11.961   7.950  0.1274 -0.1157  0.2185
  802loPI   C6A11820   2.276  12.286   8.147  0.0272 -0.1017 -0.1059
  802loPI   C1B11821   3.056  11.490   6.586 -0.0853  0.1127 -0.2014
  802loPI   C2B11822   2.948  11.526   6.986  0.1908  0.0141 -0.1460
  802loPI   C3B11823   3.091  11.506   7.408  0.1322 -0.1442 -0.2184
  802loPI   C4B11824   3.143  11.403   7.858 -0.1145  0.2473  0.1042
  803loPI    C111825   4.584  13.097   5.619 -0.0529 -0.0492  0.0585
  803loPI    C211826   4.345  13.338   5.407  0.0300  0.0577  0.0857
  803loPI    C311827   4.553  13.049   5.223  0.0484  0.1057  0.0309
  803loPI   PO411828   4.428  13.081   5.837 -0.0725  0.0358 -0.1480
  803loPI   GL111829   4.209  13.008   6.217 -0.1055 -0.3105 -0.0573
  803loPI   GL211830   4.226  13.319   6.302  0.2059 -0.2061 -0.0906
  803loPI   C1A11831   4.153  12.859   6.547  0.1637  0.0248  0.2853
  803loPI   C2A11832   4.149  12.851   6.974  0.0334 -0.0890  0.0239
  803loPI   C3A11833   3.985  12.887   7.347  0.1678  0.0436  0.2158
  803loPI   C4A11834   3.927  12.905   7.864 -0.2010  0.1075 -0.0696
  803loPI   C5A11835   4.107  12.972   8.335  0.0416 -0.1842  0.0616
  803loPI   C6A11836   4.055  13.263   8.636  0.0637  0.0619 -0.1896
  803loPI   C1B11837   4.188  13.300   6.789 -0.3439  0.0251 -0.0115
  803loPI   C2B11838   4.112  13.375   7.102 -0.1904 -0.0109  0.1063
  803loPI   C3B11839   4.080  13.380   7.535  0.1243  0.1164 -0.3036
  803loPI   C4B11840   4.022  13.414   8.053  0.2875  0.1411 -0.2824
  804loPI    C111841   4.450   2.345   5.100  0.1909 -0.2392  0.1676
  804loPI    C211842   4.723   2.245   4.826  0.1710  0.1525 -0.0030
  804loPI    C311843   4.678   2.627   4.932  0.0555  0.0264  0.4217
  804loPI   PO411844   4.517   2.211   5.316  0.1579  0.1135  0.0405
  804loPI   GL111845   4.776   2.114   5.638 -0.1316 -0.0905  0.3633
  804loPI   GL211846   4.444   2.086   5.785 -0.0918 -0.2739  0.1106
  804loPI   C1A11847   4.860   2.179   6.040 -0.1146  0.1465 -0.1762
  804loPI   C2A11848   4.833   2.178   6.514  0.4276  0.4780  0.1006
  804loPI   C3A11849   5.138   2.242   6.805 -0.1481 -0.0881  0.1306
  804loPI   C4A11850   5.178   2.208   7.261  0.0869 -0.2639 -0.0456
  804loPI   C5A11851   5.060   2.197   7.752  0.1371 -0.1006  0.1315
  804loPI   C6A11852   5.031   1.941   8.131  0.1983  0.1512  0.1670
  804loPI   C1B11853   4.374   2.205   6.204  0.3672 -0.1500  0.3914
  804loPI   C2B11854   4.269   2.100   6.586 -0.1473  0.1641 -0.1314
  804loPI   C3B11855   4.235   2.082   7.043 -0.0034  0.0938  0.1611
  804loPI   C4B11856   4.336   1.948   7.470 -0.0779  0.0895  0.0347
  805loPI    C111857   0.037   2.540   5.080 -0.2313  0.0816  0.0387
  805loPI    C211858  -0.190   2.282   4.875 -0.1332 -0.0956  0.1509
  805loPI    C311859   0.202   2.309   4.799 -0.1910  0.2244 -0.0565
  805loPI   PO411860  -0.092   2.492   5.341 -0.0143  0.1066 -0.0966
  805loPI   GL111861  -0.279   2.611   5.781  0.0121  0.0542 -0.2412
  805loPI   GL211862  -0.216   2.214   5.784  0.2337 -0.2353 -0.0384
  805loPI   C1A11863  -0.317   2.674   6.217 -0.0114  0.0264 -0.0364
  805loPI   C2A11864  -0.211   2.588   6.577  0.0055 -0.0080 -0.2019
  805loPI   C3A11865  -0.113   2.492   6.962  0.3696 -0.0033  0.1526
  805loPI   C4A11866   0.046   2.381   7.423 -0.1435  0.0254 -0.1885
  805loPI   C5A11867  -0.060   2.140   7.689 -0.4525 -0.0534 -0.1274
  805loPI   C6A11868  -0.098   2.066   8.035 -0.0882  0.2886  0.1200
  805loPI   C1B11869   0.182   1.983   5.836  0.0009  0.3582 -0.1365
  805loPI   C2B11870   0.361   1.813   6.113  0.0826 -0.0186  0.1097
  805loPI   C3B11871   0.503   1.828   6.600  0.2808  0.0073  0.1119
  805loPI   C4B11872   0.526   1.714   6.991 -0.0420 -0.2382 -0.0452
  806loPI    C111873  17.938   6.398   6.298  0.1984  0.0097 -0.0615
  806loPI    C211874  18.133   6.569   5.994  0.2241  0.2734  0.1009
  806loPI    C311875  18.337   6.429   6.308  0.1911  0.0750  0.0350
  806loPI   PO411876  17.750   6.588   6.321  0.0097  0.1231 -0.2105
  806loPI   GL111877  17.856   6.774   6.745  0.1890  0.1136  0.1438
  806loPI   GL211878  17.925   7.032   6.819  0.2494 -0.0223  0.1520
  806loPI   C1A11879  18.093   6.438   6.957  0.2747  0.4571 -0.0254
  806loPI   C2A11880  18.182   6.102   7.336 -0.1147  0.1966 -0.0280
  806loPI   C3A11881  18.558   5.889   7.536 -0.0082 -0.0868 -0.3785
  806loPI   C4A11882  18.934   5.638   7.610 -0.1925  0.0495  0.3366
  806loPI   C5A11883  19.182   5.417   7.930  0.0257 -0.1228 -0.1837
  806loPI   C6A11884  19.376   5.063   8.092  0.1849  0.2299 -0.0643
  806loPI   C1B11885  18.081   6.888   7.177 -0.0992 -0.0867  0.0089
  806loPI   C2B11886  18.125   6.632   7.625  0.4114  0.0841  0.0736
  806loPI   C3B11887  18.121   6.601   8.077  0.1974 -0.0776  0.0964
  806loPI   C4B11888  18.112   6.226   8.414  0.0046  0.2421 -0.1169
  807loPI    C111889  11.825   4.681   5.476 -0.1330  0.3791  0.2585
  807loPI    C211890  11.464   4.514   5.435 -0.0035  0.1207  0.1452
  807loPI    C311891  11.655   4.656   5.114  0.2692 -0.3291  0.1000
  807loPI   PO411892  11.770   4.904   5.654  0.0690  0.0305  0.1406
  807loPI   GL111893  11.709   4.934   6.114 -0.1089 -0.2038 -0.0860
  807loPI   GL211894  11.436   4.755   6.053 -0.0801 -0.0499 -0.2022
  807loPI   C1A11895  11.642   4.881   6.539 -0.1341 -0.1779 -0.3641
  807loPI   C2A11896  11.658   4.790   6.994  0.0367  0.2437 -0.2752
  807loPI   C3A11897  11.469   4.761   7.321 -0.1530  0.2511  0.0930
  807loPI   C4A11898  11.415   4.886   7.819  0.1245 -0.0964  0.0869
  807loPI   C5A11899  11.449   4.726   8.282 -0.0146  0.2107  0.3804
  807loPI   C6A11900  11.677   4.827   8.533 -0.0928  0.4097  0.0092
  807loPI   C1B11901  11.164   4.743   6.439 -0.0794  0.0994  0.0375
  807loPI   C2B11902  11.308   4.524   6.828 -0.1733  0.1114 -0.0307
  807loPI   C3B11903  11.173   4.426   7.268  0.2298  0.0520 -0.1441
  807loPI   C4B11904  11.280   4.299   7.612  0.0825  0.0823  0.1696
  808loPI    C111905  17.148   3.960   5.175 -0.1095  0.0243 -0.1224
  808loPI    C211906  17.106   3.610   4.987  0.0065 -0.0883  0.0581
  808loPI    C311907  17.303   3.909   4.810 -0.0407 -0.1336 -0.0720
  808loPI   PO411908  17.245   3.949   5.406 -0.1498 -0.2089  0.0724
  808loPI   GL111909  17.310   4.078   5.887 -0.0277  0.6160  0.0694
  808loPI   GL211910  17.131   4.372   6.039  0.1800 -0.0557 -0.2434
  808loPI   C1A11911  17.366   3.967   6.377 -0.0740 -0.2097  0.0950
  808loPI   C2A11912  17.435   3.980   6.857 -0.2242 -0.1180 -0.1191
  808loPI   C3A11913  17.423   3.661   7.251  0.1331  0.0578  0.1041
  808loPI   C4A11914  17.344   3.432   7.611 -0.2379  0.2677  0.0353
  808loPI   C5A11915  17.285   3.466   8.010  0.3509 -0.0531 -0.0448
  808loPI   C6A11916  17.747   3.557   8.257 -0.1144 -0.0376 -0.0191
  808loPI   C1B11917  16.925   4.234   6.416 -0.1036  0.2406 -0.0773
  808loPI   C2B11918  16.899   4.274   6.896  0.1679 -0.1548 -0.0666
  808loPI   C3B11919  16.886   4.095   7.406 -0.0099 -0.1183 -0.1963
  808loPI   C4B11920  16.902   3.899   7.789 -0.0454  0.0782  0.2014
  809loPI    C111921   0.569  16.991   5.235 -0.1204 -0.2657  0.0207
  809loPI    C211922   0.297  16.917   5.519 -0.1736 -0.3169 -0.0434
  809loPI    C311923   0.229  17.201   5.245 -0.0223 -0.1090  0.1303
  809loPI   PO411924   0.825  17.016   5.388  0.1079 -0.3077 -0.0688
  809loPI   GL111925   1.140  16.957   5.650  0.0163  0.3299  0.0121
  809loPI   GL211926   1.398  17.150   5.642 -0.0683 -0.0738  0.1480
  809loPI   C1A11927   1.193  17.052   6.108 -0.0650  0.3117  0.1353
  809loPI   C2A11928   1.292  17.089   6.582 -0.3003 -0.0740  0.3640
  809loPI   C3A11929   1.282  16.964   7.035 -0.0334 -0.2069 -0.0585
  809loPI   C4A11930   1.073  17.142   7.405 -0.1658 -0.0098 -0.1503
  809loPI   C5A11931   0.922  17.427   7.723 -0.0350  0.1987 -0.0473
  809loPI   C6A11932   0.904  17.557   8.139 -0.1680 -0.5440  0.1385
  809loPI   C1B11933   1.621  17.302   5.967  0.0671  0.2821 -0.6563
  809loPI   C2B11934   1.660  17.333   6.338  0.0243  0.1860 -0.1680
  809loPI   C3B11935   1.704  17.279   6.788  0.0314 -0.1925  0.2676
  809loPI   C4B11936   1.647  17.389   7.252  0.0336  0.1658 -0.0043
  810loPI    C111937  11.979  11.905   5.305  0.1560  0.0615 -0.1373
  810loPI    C211938  12.232  12.087   5.054  0.1531 -0.1472 -0.2941
  810loPI    C311939  11.872  11.970   4.925 -0.0407  0.1803 -0.0626
  810loPI   PO411940  12.114  11.914   5.490  0.0311  0.1736  0.0660
  810loPI   GL111941  12.059  11.898   5.849  0.2169 -0.0043 -0.1211
  810loPI   GL211942  12.126  12.293   5.921  0.1638 -0.0967  0.1135
  810loPI   C1A11943  12.261  11.767   6.132 -0.0739 -0.1032 -0.2446
  810loPI   C2A11944  12.127  11.737   6.568 -0.2603  0.2523  0.5259
  810loPI   C3A11945  12.063  11.721   6.987  0.0249 -0.3426  0.2284
  810loPI   C4A11946  12.193  11.582   7.331  0.2820  0.2569 -0.1601
  810loPI   C5A11947  12.187  11.565   7.775 -0.0635  0.2637 -0.0127
  810loPI   C6A11948  12.314  11.551   8.227 -0.0523 -0.1588 -0.0526
  810loPI   C1B11949  12.200  12.252   6.291 -0.1066  0.0530 -0.3987
  810loPI   C2B11950  12.200  12.235   6.665 -0.3193  0.1213  0.0937
  810loPI   C3B11951  12.119  12.250   7.121  0.0805  0.1519  0.2242
  810loPI   C4B11952  12.106  12.165   7.588  0.0586 -0.0847 -0.1266
  811loPI    C111953   2.988   4.889   5.282  0.2512 -0.1077  0.0131
  811loPI    C211954   2.812   4.673   5.569 -0.1684  0.1590 -0.0349
  811loPI    C311955   2.766   4.570   5.185  0.1604 -0.0331 -0.0263
  811loPI   PO411956   3.177   4.933   5.328 -0.3654 -0.0375  0.1468
  811loPI   GL111957   3.270   4.862   5.815 -0.0988 -0.0572 -0.0953
  811loPI   GL211958   3.562   5.087   5.715  0.1537  0.2782  0.2759
  811loPI   C1A11959   3.230   4.919   6.227 -0.1008  0.1255  0.2733
  811loPI   C2A11960   3.329   4.929   6.610 -0.1072  0.0600 -0.2729
  811loPI   C3A11961   3.371   4.939   7.117  0.3440 -0.2555 -0.2335
  811loPI   C4A11962   3.497   5.004   7.543  0.1340 -0.1827 -0.1329
  811loPI   C5A11963   3.144   5.030   7.955  0.0132 -0.1639  0.0505
  811loPI   C6A11964   2.752   4.870   8.220 -0.0862  0.1888 -0.1159
  811loPI   C1B11965   3.611   5.405   5.986  0.1591 -0.0448 -0.2612
  811loPI   C2B11966   3.557   5.359   6.421 -0.0069  0.5808 -0.0396
  811loPI   C3B11967   3.616   5.241   6.847  0.2491 -0.0580  0.2088
  811loPI   C4B11968   3.657   5.363   7.218  0.0440  0.0304  0.1020
  812loPI    C111969  12.667  15.440   4.710 -0.0040  0.1298 -0.1992
  812loPI    C211970  12.341  15.591   4.886 -0.0439 -0.1587 -0.0186
  812loPI    C311971  12.320  15.455   4.511 -0.1113 -0.1045 -0.0348
  812loPI   PO411972  12.763  15.258   4.927  0.1685 -0.0339 -0.1884
  812loPI   GL111973  12.765  15.332   5.341 -0.1123 -0.0832 -0.2512
  812loPI   GL211974  12.998  15.444   5.420  0.3038 -0.1870 -0.0992
  812loPI   C1A11975  12.797  14.949   5.591 -0.3716  0.2163 -0.2427
  812loPI   C2A11976  12.829  14.501   5.852  0.3274 -0.1348  0.0074
  812loPI   C3A11977  12.846  14.561   6.284  0.0656 -0.0193 -0.1882
  812loPI   C4A11978  12.956  14.622   6.757  0.1179 -0.3353 -0.1154
  812loPI   C5A11979  12.960  14.580   7.202 -0.1334  0.0612 -0.2834
  812loPI   C6A11980  12.993  14.768   7.649 -0.0707  0.4241 -0.1098
  812loPI   C1B11981  12.924  15.485   5.859 -0.1551 -0.0588 -0.1558
  812loPI   C2B11982  12.816  15.624   6.257  0.0416 -0.3913 -0.3243
  812loPI   C3B11983  12.713  15.501   6.669 -0.1210  0.0588  0.1463
  812loPI   C4B11984  12.798  15.562   7.141  0.1615  0.0361  0.3798
  813loPI    C111985  11.816   9.070   5.314 -0.0992 -0.0546 -0.1969
  813loPI    C211986  11.659   8.702   5.310 -0.1555 -0.0332 -0.0388
  813loPI    C311987  12.051   8.753   5.248 -0.1157 -0.1369  0.1221
  813loPI   PO411988  11.744   9.098   5.585 -0.0757 -0.0505  0.2107
  813loPI   GL111989  11.789   9.290   5.864  0.0699 -0.0549  0.0271
  813loPI   GL211990  12.010   9.235   6.056  0.0960  0.1690  0.0888
  813loPI   C1A11991  11.634   9.173   6.329 -0.1527  0.0193  0.0155
  813loPI   C2A11992  11.595   9.057   6.771 -0.0939 -0.0938  0.1433
  813loPI   C3A11993  11.665   8.996   7.295  0.3356 -0.2586 -0.0461
  813loPI   C4A11994  11.653   9.046   7.805  0.4093 -0.2895 -0.0905
  813loPI   C5A11995  11.648   9.427   8.117 -0.0991 -0.0175  0.0151
  813loPI   C6A11996  11.319   9.623   8.319  0.1244  0.2132  0.1265
  813loPI   C1B11997  11.954   8.819   6.372 -0.3397  0.0712  0.0503
  813loPI   C2B11998  12.073   8.748   6.821 -0.0343 -0.0366 -0.1219
  813loPI   C3B11999  12.107   8.668   7.262 -0.1264 -0.1725  0.0997
  813loPI   C4B12000  12.221   8.439   7.565  0.2916  0.0192 -0.0339
  814loPI    C112001  12.944  17.545   5.252  0.2429  0.1081  0.0416
  814loPI    C212002  12.971  17.657   4.869 -0.0473 -0.0816 -0.0369
  814loPI    C312003  13.031  17.274   4.970  0.1064 -0.0174  0.1187
  814loPI   PO412004  12.937  17.800   5.451 -0.0632  0.2793 -0.1889
  814loPI   GL112005  13.174  17.757   5.812  0.1836 -0.1362  0.0471
  814loPI   GL212006  13.430  17.714   5.736  0.0139  0.0365  0.0381
  814loPI   C1A12007  12.891  17.706   6.244  0.1011  0.1014  0.2037
  814loPI   C2A12008  12.823  17.700   6.640  0.1362  0.0760  0.0964
  814loPI   C3A12009  12.829  17.726   7.123 -0.2503  0.0806  0.0098
  814loPI   C4A12010  12.984  17.636   7.536 -0.0246  0.1023  0.2155
  814loPI   C5A12011  12.856  17.628   8.015 -0.3420 -0.2228  0.2276
  814loPI   C6A12012  12.778  17.271   8.302  0.0546 -0.1416 -0.0438
  814loPI   C1B12013  13.421  17.641   6.199  0.1221 -0.2208 -0.0913
  814loPI   C2B12014  13.342  17.760   6.689  0.1451  0.0843  0.4699
  814loPI   C3B12015  13.399  17.632   7.162 -0.1066 -0.1689  0.1012
  814loPI   C4B12016  13.448  17.473   7.525  0.2138  0.1193  0.3140
  815loPI    C112017   7.290   9.644   5.558 -0.0452  0.0544  0.0014
  815loPI    C212018   7.167   9.266   5.511  0.1596 -0.0437  0.2326
  815loPI    C312019   7.297   9.475   5.196 -0.2449 -0.0597  0.0487
  815loPI   PO412020   7.065   9.726   5.817 -0.0070  0.2319 -0.0786
  815loPI   GL112021   6.790  10.042   6.194  0.1789  0.0512  0.2484
  815loPI   GL212022   6.435  10.190   6.073  0.0300  0.2654  0.0528
  815loPI   C1A12023   6.708  10.079   6.605  0.2791  0.1337  0.0748
  815loPI   C2A12024   6.751  10.085   7.086 -0.1404 -0.1362 -0.0390
  815loPI   C3A12025   6.927  10.194   7.484 -0.1268 -0.3290 -0.2441
  815loPI   C4A12026   7.213  10.349   7.764  0.2922  0.1291  0.1254
  815loPI   C5A12027   7.447  10.490   8.089 -0.0586 -0.2289 -0.0801
  815loPI   C6A12028   7.589  10.314   8.472  0.0427  0.0633  0.2774
  815loPI   C1B12029   6.508  10.446   6.419 -0.1447  0.0488  0.0485
  815loPI   C2B12030   6.664  10.578   6.918 -0.1481 -0.2678  0.4147
  815loPI   C3B12031   6.502  10.674   7.361 -0.2861 -0.0882  0.0657
  815loPI   C4B12032   6.786  10.625   7.672 -0.2562 -0.0816  0.0405
  816loPI    C112033   8.496  17.195   5.268  0.1115  0.1764  0.0809
  816loPI    C212034   8.351  17.498   5.050  0.0668  0.2709  0.2403
  816loPI    C312035   8.414  17.142   4.880 -0.3970  0.2134  0.1761
  816loPI   PO412036   8.573  17.285   5.483 -0.0537  0.0859 -0.0396
  816loPI   GL112037   8.703  17.067   5.914  0.1007  0.0512 -0.1034
  816loPI   GL212038   8.623  17.354   6.038  0.0430 -0.1942  0.0475
  816loPI   C1A12039   8.583  16.945   6.359 -0.0355  0.1365 -0.2119
  816loPI   C2A12040   8.654  16.667   6.802  0.0356  0.0854 -0.1021
  816loPI   C3A12041   8.970  16.394   7.054 -0.0116 -0.0876 -0.3629
  816loPI   C4A12042   9.021  16.238   7.455 -0.4243 -0.0688 -0.0838
  816loPI   C5A12043   9.050  16.291   7.899  0.1454 -0.0898  0.4377
  816loPI   C6A12044   9.053  16.605   8.157  0.0949  0.2218 -0.0056
  816loPI   C1B12045   8.673  17.533   6.427 -0.0153  0.2912 -0.0092
  816loPI   C2B12046   8.807  17.670   6.825 -0.0946 -0.1381  0.1764
  816loPI   C3B12047   8.917  17.899   7.249  0.0680 -0.0083  0.1767
  816loPI   C4B12048   9.125  18.045   7.569  0.1055 -0.1633 -0.1111
  817loPI    C112049  15.257   8.904   5.577 -0.2504  0.0430  0.0945
  817loPI    C212050  15.006   8.845   5.272  0.0564  0.1073 -0.1760
  817loPI    C312051  15.294   8.578   5.348 -0.0568  0.0600  0.0999
  817loPI   PO412052  15.101   8.951   5.791 -0.0344  0.0542  0.1543
  817loPI   GL112053  15.069   9.192   6.197 -0.2337  0.0005  0.2184
  817loPI   GL212054  14.782   9.233   6.221 -0.0715 -0.2810 -0.0750
  817loPI   C1A12055  15.137   9.168   6.658  0.0788  0.1442  0.1262
  817loPI   C2A12056  15.204   9.208   7.117  0.1921  0.1200 -0.0572
  817loPI   C3A12057  15.192   9.118   7.531  0.0345 -0.0058  0.3362
  817loPI   C4A12058  15.136   8.984   8.028 -0.1584 -0.2716 -0.2420
  817loPI   C5A12059  14.707   8.847   8.351  0.0785  0.1241 -0.0386
  817loPI   C6A12060  14.379   8.590   8.496 -0.2189  0.2406  0.2589
  817loPI   C1B12061  14.468   9.390   6.546  0.0053  0.1976 -0.0543
  817loPI   C2B12062  14.364   9.407   7.040 -0.0207  0.0224  0.0952
  817loPI   C3B12063  14.325   9.574   7.447 -0.5599 -0.0771 -0.4733
  817loPI   C4B12064  14.129   9.763   7.779 -0.3266  0.1232  0.0078
  818loPI    C112065   5.799   6.971   5.731  0.2223 -0.0087 -0.3627
  818loPI    C212066   5.923   7.274   5.960 -0.2088 -0.1837  0.1229
  818loPI    C312067   5.577   7.303   5.761 -0.0987 -0.2413 -0.0800
  818loPI   PO412068   5.758   6.798   5.866 -0.3134  0.0077  0.1215
  818loPI   GL112069   5.790   6.585   6.160 -0.2571  0.0369  0.0788
  818loPI   GL212070   6.125   6.405   6.339  0.0507  0.2719 -0.2072
  818loPI   C1A12071   5.624   6.623   6.567  0.0712  0.3146  0.0041
  818loPI   C2A12072   5.484   6.800   6.938 -0.0103 -0.5334 -0.0370
  818loPI   C3A12073   5.401   6.836   7.323 -0.3112 -0.0928  0.0031
  818loPI   C4A12074   5.453   6.716   7.646 -0.2377  0.2819  0.2695
  818loPI   C5A12075   5.631   6.635   8.003  0.3368 -0.1251 -0.0033
  818loPI   C6A12076   5.736   6.189   8.171 -0.1332  0.1134  0.1641
  818loPI   C1B12077   6.116   6.446   6.704 -0.0164  0.0541  0.0471
  818loPI   C2B12078   6.202   6.444   7.054  0.5550  0.2389 -0.2592
  818loPI   C3B12079   6.367   6.525   7.469  0.1116  0.0065 -0.0795
  818loPI   C4B12080   6.658   6.623   7.822  0.1425  0.0022 -0.1441
  819loPI    C112081  12.303   7.922   5.692  0.0431  0.2092 -0.2175
  819loPI    C212082  12.632   7.697   5.661  0.2122  0.4297 -0.0473
  819loPI    C312083  12.460   7.845   5.332 -0.0987 -0.2218 -0.1926
  819loPI   PO412084  12.350   8.075   5.942  0.0480 -0.2284  0.2072
  819loPI   GL112085  12.427   8.065   6.327  0.0819 -0.1220 -0.0153
  819loPI   GL212086  12.275   7.799   6.369 -0.2735 -0.0561  0.2193
  819loPI   C1A12087  12.358   8.353   6.755  0.1089 -0.1465 -0.0689
  819loPI   C2A12088  12.469   8.287   7.126 -0.0703 -0.0625  0.0484
  819loPI   C3A12089  12.558   8.039   7.441  0.1697 -0.0261 -0.4977
  819loPI   C4A12090  12.374   7.691   7.772  0.3466  0.0450 -0.0161
  819loPI   C5A12091  12.014   7.441   7.884 -0.0568  0.2502 -0.0817
  819loPI   C6A12092  11.816   7.218   8.198 -0.2874 -0.0337  0.0089
  819loPI   C1B12093  12.261   7.831   6.799 -0.0686  0.0547  0.1891
  819loPI   C2B12094  12.521   7.698   7.091 -0.0320 -0.0254  0.1330
  819loPI   C3B12095  12.651   7.553   7.393  0.1061  0.3480 -0.0636
  819loPI   C4B12096  12.821   7.584   7.849 -0.1297  0.1626 -0.1249
  820loPI    C112097   8.470  15.833   5.424 -0.1465  0.0292  0.0114
  820loPI    C212098   8.299  16.145   5.243  0.2452  0.0071 -0.4134
  820loPI    C312099   8.123  15.786   5.232 -0.0306  0.1338 -0.2275
  820loPI   PO412100   8.567  15.945   5.616 -0.0664  0.2528  0.1746
  820loPI   GL112101   8.763  15.956   6.036  0.0503 -0.2120  0.3205
  820loPI   GL212102   8.472  16.183   6.193  0.1869 -0.0021  0.0128
  820loPI   C1A12103   9.059  15.859   6.431 -0.2773  0.3007  0.1092
  820loPI   C2A12104   8.986  15.840   6.764  0.2016  0.1102  0.1568
  820loPI   C3A12105   8.936  15.808   7.209 -0.0793  0.1869  0.0241
  820loPI   C4A12106   8.870  15.738   7.612 -0.4789 -0.1751  0.2307
  820loPI   C5A12107   8.708  15.898   7.928  0.3092  0.1852  0.4651
  820loPI   C6A12108   8.581  16.289   8.108  0.0233  0.1637 -0.1895
  820loPI   C1B12109   8.667  16.194   6.599  0.1208  0.1609  0.1083
  820loPI   C2B12110   8.572  16.128   7.055 -0.0995  0.0022  0.0324
  820loPI   C3B12111   8.521  16.086   7.450 -0.2056  0.0325 -0.3113
  820loPI   C4B12112   8.104  16.357   7.590 -0.1566 -0.0295  0.2013
  821loPI    C112113   4.980  12.652   5.701  0.1727 -0.2415  0.0260
  821loPI    C212114   4.645  12.588   5.491  0.2056 -0.0529 -0.0866
  821loPI    C312115   4.942  12.320   5.482  0.1705 -0.0879 -0.2104
  821loPI   PO412116   4.881  12.803   5.870 -0.2135  0.0130 -0.0723
  821loPI   GL112117   4.740  12.901   6.226  0.0965  0.1275 -0.1611
  821loPI   GL212118   4.642  12.622   6.361 -0.0780  0.1187 -0.1674
  821loPI   C1A12119   4.649  13.132   6.549  0.1021  0.0989  0.0498
  821loPI   C2A12120   4.646  13.413   6.867  0.0847  0.0435  0.0293
  821loPI   C3A12121   4.605  13.678   7.182  0.2174 -0.1750  0.1431
  821loPI   C4A12122   4.486  13.662   7.590 -0.2848 -0.1983  0.0956
  821loPI   C5A12123   4.441  13.803   7.997 -0.2455 -0.1428  0.0030
  821loPI   C6A12124   4.273  14.159   8.323 -0.1051  0.1538  0.0365
  821loPI   C1B12125   4.601  12.578   6.731 -0.0632 -0.1613  0.0162
  821loPI   C2B12126   4.470  12.537   7.229  0.1719  0.1665  0.1454
  821loPI   C3B12127   4.490  12.668   7.708  0.0586  0.0454 -0.3028
  821loPI   C4B12128   4.435  13.024   7.959  0.0568 -0.1405  0.1103
  822loPI    C112129  17.887   3.492   5.597 -0.0693  0.0625 -0.1349
  822loPI    C212130  18.088   3.386   5.267  0.0295 -0.0598 -0.0361
  822loPI    C312131  17.705   3.279   5.312  0.0733 -0.2128 -0.0232
  822loPI   PO412132  18.027   3.437   5.758 -0.2285  0.2701  0.1743
  822loPI   GL112133  18.148   3.473   6.117  0.0166  0.0639  0.1127
  822loPI   GL212134  18.486   3.520   6.031 -0.0072 -0.0556  0.0303
  822loPI   C1A12135  18.286   3.460   6.505 -0.0881  0.1071  0.0129
  822loPI   C2A12136  18.266   3.415   6.882  0.2861 -0.2338  0.0185
  822loPI   C3A12137  18.196   3.346   7.361 -0.3189 -0.0025  0.0329
  822loPI   C4A12138  18.389   3.398   7.684  0.2191  0.2814 -0.1498
  822loPI   C5A12139  18.226   3.371   8.047 -0.0226  0.1051 -0.0011
  822loPI   C6A12140  18.059   3.053   8.299 -0.3521 -0.2497  0.2227
  822loPI   C1B12141  18.729   3.675   6.366  0.2157 -0.1836  0.0106
  822loPI   C2B12142  18.737   4.144   6.410  0.0881  0.2026  0.2663
  822loPI   C3B12143  18.959   4.356   6.516 -0.0735 -0.1536 -0.0328
  822loPI   C4B12144  18.972   4.740   6.776  0.0692 -0.0094  0.1242
  823loPI    C112145  11.444  15.289   5.070 -0.0036  0.1785  0.0122
  823loPI    C212146  11.384  15.469   4.718 -0.1868 -0.0954 -0.1002
  823loPI    C312147  11.538  15.101   4.730  0.2158  0.0740  0.1284
  823loPI   PO412148  11.199  15.342   5.233  0.1805 -0.2956 -0.3654
  823loPI   GL112149  11.104  15.443   5.571 -0.1688 -0.0989 -0.0408
  823loPI   GL212150  11.338  15.688   5.599  0.1499  0.1384  0.0113
  823loPI   C1A12151  10.871  15.628   5.940 -0.2521 -0.2806  0.1443
  823loPI   C2A12152  10.814  15.431   6.261 -0.0199  0.0821  0.1430
  823loPI   C3A12153  10.826  15.363   6.666  0.2325  0.0828 -0.2982
  823loPI   C4A12154  10.968  15.409   7.137  0.0140  0.0845  0.1659
  823loPI   C5A12155  10.963  15.328   7.573  0.0837 -0.1423 -0.1653
  823loPI   C6A12156  10.875  15.317   7.988 -0.1637 -0.0409  0.1264
  823loPI   C1B12157  11.438  15.673   6.136 -0.1081 -0.1523 -0.2698
  823loPI   C2B12158  11.264  15.607   6.592 -0.1823 -0.1851  0.2130
  823loPI   C3B12159  11.375  15.788   7.010 -0.0889  0.0849  0.1103
  823loPI   C4B12160  11.171  16.016   7.153 -0.1576  0.2260 -0.4473
  824loPI    C112161   5.277   1.022   5.437 -0.2734  0.0677  0.1929
  824loPI    C212162   4.986   0.996   5.165 -0.1959 -0.0353  0.1193
  824loPI    C312163   5.163   0.664   5.301  0.1829  0.0471 -0.1572
  824loPI   PO412164   5.211   1.062   5.626  0.0218 -0.0074 -0.1812
  824loPI   GL112165   5.247   0.887   5.995 -0.0498 -0.2723  0.1503
  824loPI   GL212166   4.874   0.998   6.142  0.2204 -0.2046 -0.1141
  824loPI   C1A12167   5.338   0.952   6.356 -0.0639 -0.1121  0.2646
  824loPI   C2A12168   5.263   0.914   6.734 -0.1195 -0.0395 -0.2994
  824loPI   C3A12169   5.166   0.900   7.168  0.1761  0.3683 -0.2472
  824loPI   C4A12170   5.177   0.807   7.574  0.0502 -0.1658 -0.2873
  824loPI   C5A12171   4.959   0.519   7.824  0.2039  0.0446  0.1713
  824loPI   C6A12172   4.582   0.363   7.893  0.0673 -0.2214  0.0417
  824loPI   C1B12173   4.988   1.308   6.440 -0.0643  0.0018 -0.1137
  824loPI   C2B12174   5.061   1.323   6.934  0.3873 -0.3685  0.0166
  824loPI   C3B12175   4.985   1.387   7.362 -0.2141 -0.0693 -0.0754
  824loPI   C4B12176   4.874   1.497   7.789 -0.1273 -0.0502  0.0126
  825loPI    C112177  15.189  13.096   5.433  0.2362 -0.1160  0.1455
  825loPI    C212178  15.118  12.827   5.145  0.1552  0.1162 -0.0557
  825loPI    C312179  15.155  13.214   5.052  0.0187  0.2091  0.2613
  825loPI   PO412180  15.115  12.991   5.664  0.1094  0.1460 -0.0429
  825loPI   GL112181  15.056  12.938   6.011 -0.0553  0.0930 -0.0617
  825loPI   GL212182  14.982  12.669   6.029  0.1941  0.2474  0.0202
  825loPI   C1A12183  14.991  12.919   6.439  0.2080  0.1504 -0.1464
  825loPI   C2A12184  14.933  12.682   6.854  0.2094 -0.0767  0.1764
  825loPI   C3A12185  15.077  12.674   7.253 -0.3158  0.0596  0.1198
  825loPI   C4A12186  15.068  12.552   7.673  0.0276 -0.0025 -0.2180
  825loPI   C5A12187  15.310  12.620   8.055  0.4032  0.0929  0.0027
  825loPI   C6A12188  15.564  12.957   8.166 -0.3857 -0.0170  0.3195
  825loPI   C1B12189  14.691  12.543   6.316  0.1221 -0.3290  0.0746
  825loPI   C2B12190  14.757  12.289   6.543 -0.1040 -0.3770 -0.0641
  825loPI   C3B12191  14.719  12.183   6.857 -0.0717  0.2126  0.0637
  825loPI   C4B12192  14.823  12.170   7.255  0.0517 -0.2009 -0.0044
  826loPI    C112193   7.138   8.364   5.749  0.0813 -0.0590 -0.0302
  826loPI    C212194   7.423   8.328   5.471  0.3275 -0.2747  0.2432
  826loPI    C312195   7.087   8.113   5.442  0.3155 -0.2340  0.0706
  826loPI   PO412196   7.193   8.277   5.961 -0.3292 -0.1143 -0.0687
  826loPI   GL112197   7.230   8.084   6.364 -0.0268  0.0000  0.0262
  826loPI   GL212198   7.484   7.994   6.290 -0.2472 -0.0054  0.0505
  826loPI   C1A12199   7.401   8.299   6.646 -0.1350 -0.0037 -0.0851
  826loPI   C2A12200   7.344   8.348   7.077 -0.3201 -0.1384  0.0150
  826loPI   C3A12201   7.263   8.229   7.483 -0.2934  0.1060 -0.1410
  826loPI   C4A12202   7.323   8.011   7.906 -0.1181 -0.0774 -0.1095
  826loPI   C5A12203   7.299   7.863   8.281  0.1089  0.0880  0.2223
  826loPI   C6A12204   7.037   7.479   8.475  0.4581 -0.1022  0.0573
  826loPI   C1B12205   7.674   7.869   6.738 -0.0845  0.0297  0.1218
  826loPI   C2B12206   8.019   7.673   7.037 -0.2967 -0.1250  0.4895
  826loPI   C3B12207   8.176   7.435   7.258 -0.1655  0.2542 -0.3763
  826loPI   C4B12208   8.018   7.346   7.530 -0.0797 -0.0767 -0.3839
  827loPI    C112209   3.741  16.682   5.486  0.1051  0.0899  0.1103
  827loPI    C212210   3.647  17.043   5.342 -0.0468  0.0497  0.1077
  827loPI    C312211   3.524  16.714   5.151  0.1141 -0.0040  0.0954
  827loPI   PO412212   3.641  16.680   5.743 -0.5064  0.1079  0.0157
  827loPI   GL112213   3.794  16.602   6.048 -0.0073  0.0357  0.3149
  827loPI   GL212214   3.815  16.851   6.247  0.0207  0.0505 -0.1699
  827loPI   C1A12215   3.877  16.342   6.422 -0.2681  0.0798  0.1012
  827loPI   C2A12216   3.862  16.306   6.804 -0.2849 -0.2503  0.0228
  827loPI   C3A12217   3.799  16.411   7.136 -0.1759 -0.1502  0.1380
  827loPI   C4A12218   3.835  16.432   7.553  0.1636 -0.0774  0.1436
  827loPI   C5A12219   3.904  16.130   7.773 -0.0227 -0.1358 -0.1894
  827loPI   C6A12220   3.916  15.712   7.959 -0.0730  0.0876 -0.0577
  827loPI   C1B12221   3.785  16.869   6.813 -0.0715  0.2457  0.2042
  827loPI   C2B12222   3.849  16.949   7.213 -0.2744 -0.0247 -0.2554
  827loPI   C3B12223   3.840  16.923   7.620 -0.1722  0.0765 -0.3291
  827loPI   C4B12224   3.876  16.634   7.988 -0.0667  0.1767  0.1721
  828loPI    C112225  16.282  13.850   5.403 -0.1628 -0.1412 -0.0906
  828loPI    C212226  16.516  13.980   5.106  0.0132  0.0638  0.1343
  828loPI    C312227  16.128  13.910   5.038  0.1273 -0.2495 -0.2341
  828loPI   PO412228  16.325  14.005   5.551  0.0864  0.1073  0.0857
  828loPI   GL112229  16.060  14.206   5.858 -0.0489 -0.0687 -0.0345
  828loPI   GL212230  16.336  14.348   5.993 -0.4399  0.0583  0.1018
  828loPI   C1A12231  15.965  14.198   6.377 -0.1872 -0.0052  0.0668
  828loPI   C2A12232  16.046  14.226   6.749  0.1395 -0.0872  0.0247
  828loPI   C3A12233  15.900  14.167   7.165  0.1524 -0.1756 -0.0167
  828loPI   C4A12234  15.560  14.077   7.558  0.0267  0.2860  0.1119
  828loPI   C5A12235  15.333  14.442   7.806  0.1172 -0.3506  0.0558
  828loPI   C6A12236  14.976  14.733   7.612 -0.1672 -0.3169 -0.2578
  828loPI   C1B12237  16.435  14.105   6.349  0.0416  0.0364  0.0490
  828loPI   C2B12238  16.514  13.990   6.805 -0.0475  0.1133  0.2924
  828loPI   C3B12239  16.373  13.873   7.113 -0.1058 -0.1092  0.1150
  828loPI   C4B12240  16.392  13.853   7.542  0.0515  0.1108  0.0510
  829loPI    C112241  13.303   8.497   5.647  0.1735 -0.1608  0.0586
  829loPI    C212242  13.003   8.672   5.844  0.2495  0.0459 -0.0061
  829loPI    C312243  12.985   8.633   5.447  0.2046 -0.1520  0.0147
  829loPI   PO412244  13.534   8.606   5.699 -0.2244 -0.0830  0.0100
  829loPI   GL112245  13.561   8.842   6.081 -0.0471 -0.0293  0.0175
  829loPI   GL212246  13.586   9.119   6.054  0.0097  0.1107  0.0037
  829loPI   C1A12247  13.437   8.757   6.525  0.2875 -0.2189  0.1101
  829loPI   C2A12248  13.543   8.761   6.991 -0.1220  0.1258  0.0099
  829loPI   C3A12249  13.722   8.711   7.373  0.1205 -0.0439  0.0103
  829loPI   C4A12250  13.881   8.728   7.752 -0.0313  0.0587 -0.0269
  829loPI   C5A12251  13.973   8.452   8.043 -0.2611 -0.0378 -0.0502
  829loPI   C6A12252  13.969   8.041   8.146 -0.2005  0.2610 -0.1041
  829loPI   C1B12253  13.544   9.212   6.478  0.4153  0.3586 -0.1303
  829loPI   C2B12254  13.499   9.259   6.968  0.0957 -0.3266  0.0626
  829loPI   C3B12255  13.656   9.167   7.391 -0.0221 -0.1908 -0.2997
  829loPI   C4B12256  13.465   8.969   7.756  0.0043 -0.0969  0.0138
  830loPI    C112257   9.840  14.769   5.245  0.1423 -0.0545 -0.0164
  830loPI    C212258   9.517  14.535   5.281  0.0805  0.0320 -0.0064
  830loPI    C312259   9.668  14.614   4.919  0.1762 -0.1244 -0.0011
  830loPI   PO412260   9.852  14.859   5.472  0.1434 -0.0940 -0.0864
  830loPI   GL112261   9.613  15.004   5.851 -0.3343 -0.0895 -0.0860
  830loPI   GL212262   9.360  14.925   5.891 -0.2307  0.0210 -0.1544
  830loPI   C1A12263   9.853  14.743   6.161 -0.0892 -0.1155  0.0363
  830loPI   C2A12264   9.927  14.737   6.563 -0.0606 -0.0706  0.0917
  830loPI   C3A12265   9.970  14.756   6.950 -0.0433 -0.1110  0.1182
  830loPI   C4A12266   9.969  14.981   7.397 -0.0669 -0.2938  0.2060
  830loPI   C5A12267   9.913  14.916   7.882 -0.0878 -0.2199 -0.1995
  830loPI   C6A12268  10.148  14.827   8.228 -0.3280 -0.0288  0.1132
  830loPI   C1B12269   9.354  15.050   6.278 -0.0742  0.0773  0.0562
  830loPI   C2B12270   9.139  14.953   6.742  0.0780  0.0882  0.0457
  830loPI   C3B12271   9.089  14.758   7.122  0.1908  0.3514  0.0257
  830loPI   C4B12272   9.248  14.471   7.255 -0.1282 -0.0813 -0.0864
  831loPI    C112273   5.999  13.738   4.892 -0.0681  0.1764 -0.1040
  831loPI    C212274   5.716  13.937   5.093 -0.0778  0.2313 -0.1716
  831loPI    C312275   5.614  13.635   4.851 -0.0387 -0.0480  0.1524
  831loPI   PO412276   6.166  13.666   5.108  0.0119  0.1021  0.1453
  831loPI   GL112277   5.985  13.640   5.482  0.0190 -0.1811  0.1528
  831loPI   GL212278   5.720  13.825   5.563 -0.0943  0.1231  0.1351
  831loPI   C1A12279   6.215  13.774   5.868  0.1393 -0.3273  0.0117
  831loPI   C2A12280   6.263  13.940   6.232  0.2532  0.0648 -0.1424
  831loPI   C3A12281   6.228  14.078   6.590  0.1869  0.0806 -0.3055
  831loPI   C4A12282   6.141  14.252   7.002 -0.2283 -0.2283 -0.1244
  831loPI   C5A12283   5.926  14.218   7.412 -0.2541 -0.1840  0.1041
  831loPI   C6A12284   5.613  14.288   7.668 -0.0848  0.1086  0.2269
  831loPI   C1B12285   5.676  13.796   5.929 -0.3430 -0.0471  0.2864
  831loPI   C2B12286   5.692  13.913   6.355 -0.2048  0.1374  0.1007
  831loPI   C3B12287   5.560  14.016   6.824  0.1273  0.0098 -0.1470
  831loPI   C4B12288   5.441  14.070   7.251 -0.0313  0.1645  0.1214
  832loPI    C112289   1.730   0.487   5.173  0.0191 -0.0034  0.3084
  832loPI    C212290   2.002   0.194   5.177  0.0199 -0.0099  0.0181
  832loPI    C312291   2.046   0.505   4.929 -0.2897 -0.0633 -0.1086
  832loPI   PO412292   1.506   0.316   5.258 -0.1915  0.1456  0.1269
  832loPI   GL112293   1.218   0.403   5.667 -0.1942 -0.0213  0.4876
  832loPI   GL212294   0.883   0.681   5.636 -0.0831  0.0320  0.1563
  832loPI   C1A12295   1.051   0.409   6.080 -0.0163  0.2238  0.3050
  832loPI   C2A12296   1.135   0.477   6.455  0.0907  0.1338  0.0980
  832loPI   C3A12297   1.330   0.464   6.830 -0.0294 -0.0632 -0.2664
  832loPI   C4A12298   1.278   0.591   7.253 -0.0986  0.1344  0.0590
  832loPI   C5A12299   1.189   0.922   7.633 -0.1510 -0.1417 -0.2048
  832loPI   C6A12300   0.855   0.909   7.926 -0.0358 -0.2562  0.0628
  832loPI   C1B12301   0.878   0.929   5.948  0.1946 -0.0649  0.2309
  832loPI   C2B12302   0.760   0.889   6.416 -0.0309  0.1365 -0.0705
  832loPI   C3B12303   0.426   0.911   6.671  0.0578 -0.3576 -0.1627
  832loPI   C4B12304   0.309   0.674   7.118  0.1398  0.1584 -0.2509
  833loPI    C112305  15.322   2.942   5.171  0.0667  0.0319  0.0694
  833loPI    C212306  15.611   3.186   5.301  0.0158  0.0099  0.2253
  833loPI    C312307  15.456   3.237   4.936  0.1482  0.0827  0.1786
  833loPI   PO412308  15.369   2.665   5.370  0.0090 -0.1751  0.1113
  833loPI   GL112309  15.410   2.552   5.771  0.3418 -0.1087  0.1645
  833loPI   GL212310  15.125   2.600   5.895  0.0992  0.0108 -0.1304
  833loPI   C1A12311  15.446   2.551   6.235 -0.2011 -0.2777 -0.1582
  833loPI   C2A12312  15.484   2.602   6.635  0.0800 -0.2572 -0.1020
  833loPI   C3A12313  15.409   2.542   6.991  0.0705  0.1870 -0.0712
  833loPI   C4A12314  15.211   2.417   7.404 -0.0218 -0.1082 -0.0026
  833loPI   C5A12315  14.945   2.711   7.716  0.1338  0.0305  0.1644
  833loPI   C6A12316  14.534   2.948   7.799 -0.3752 -0.0447  0.0426
  833loPI   C1B12317  14.805   2.656   6.259  0.1695 -0.0940 -0.2103
  833loPI   C2B12318  14.889   2.673   6.694  0.3203 -0.0509  0.0621
  833loPI   C3B12319  14.827   2.540   7.069  0.1418 -0.0383  0.1321
  833loPI   C4B12320  14.661   2.274   7.364 -0.1837  0.1259 -0.1269
  834loPI    C112321   8.750   9.668   5.465 -0.1535  0.0278  0.2008
  834loPI    C212322   8.599   9.343   5.287 -0.0665  0.0828  0.0239
  834loPI    C312323   8.766   9.632   5.067 -0.2437  0.3009  0.1706
  834loPI   PO412324   8.840   9.635   5.666  0.3243  0.0082  0.1645
  834loPI   GL112325   9.006   9.766   6.057  0.2093  0.0079 -0.1462
  834loPI   GL212326   9.259   9.825   6.074 -0.0660  0.0219  0.1175
  834loPI   C1A12327   8.980   9.819   6.577  0.1039 -0.0158 -0.1078
  834loPI   C2A12328   9.141   9.920   7.041  0.4671  0.3210 -0.1733
  834loPI   C3A12329   9.050   9.901   7.440  0.0048 -0.2962 -0.1673
  834loPI   C4A12330   9.231   9.765   7.822  0.0831  0.1439 -0.2756
  834loPI   C5A12331   9.470   9.498   8.162  0.1875  0.2436  0.2816
  834loPI   C6A12332   9.741   9.185   7.963 -0.1057  0.0941  0.1460
  834loPI   C1B12333   9.489   9.872   6.448  0.3089  0.5166  0.0004
  834loPI   C2B12334   9.563  10.009   6.881  0.3156 -0.1646  0.2781
  834loPI   C3B12335   9.622  10.158   7.292  0.0091 -0.0053  0.3107
  834loPI   C4B12336   9.554  10.083   7.675  0.0968 -0.2308  0.2456
  835loPI    C112337   1.012   4.208   5.264 -0.0284 -0.1759  0.2130
  835loPI    C212338   0.693   4.446   5.305 -0.0055 -0.1021 -0.0223
  835loPI    C312339   0.678   4.067   5.434 -0.0958 -0.0217  0.2099
  835loPI   PO412340   1.172   4.332   5.375 -0.0004  0.0605  0.0937
  835loPI   GL112341   1.470   4.225   5.691  0.7141 -0.0703 -0.0242
  835loPI   GL212342   1.159   4.151   5.925 -0.4642 -0.1899  0.1098
  835loPI   C1A12343   1.614   4.117   6.113 -0.0294 -0.1760 -0.0587
  835loPI   C2A12344   1.707   4.168   6.482 -0.2365  0.0398 -0.0513
  835loPI   C3A12345   1.733   3.972   6.865 -0.3700  0.2031  0.1731
  835loPI   C4A12346   1.812   3.751   7.308  0.0004 -0.2199  0.1604
  835loPI   C5A12347   1.474   3.859   7.574  0.1136  0.4841  0.0460
  835loPI   C6A12348   1.263   3.944   7.860 -0.1914  0.2475 -0.0068
  835loPI   C1B12349   1.144   3.957   6.265 -0.1678  0.1025  0.0695
  835loPI   C2B12350   1.189   3.915   6.651 -0.1881  0.2525  0.4575
  835loPI   C3B12351   1.257   3.872   7.058 -0.0225  0.0839 -0.0272
  835loPI   C4B12352   1.066   3.691   7.241  0.2663  0.0837  0.2554
  836loPI    C112353   7.205   4.074   5.282  0.0522 -0.1054  0.1216
  836loPI    C212354   7.591   4.153   5.211 -0.0232  0.0196 -0.1620
  836loPI    C312355   7.345   4.446   5.328 -0.0388 -0.0548 -0.0058
  836loPI   PO412356   7.137   3.885   5.437  0.2110 -0.0064  0.0544
  836loPI   GL112357   7.281   3.697   5.671 -0.0275 -0.0697 -0.1423
  836loPI   GL212358   7.257   3.462   5.720 -0.1383 -0.0304  0.0474
  836loPI   C1A12359   7.525   3.706   6.082  0.0968  0.2459 -0.0711
  836loPI   C2A12360   7.579   3.638   6.523 -0.2910 -0.4412  0.1118
  836loPI   C3A12361   7.430   3.627   6.966  0.3388 -0.1015  0.2663
  836loPI   C4A12362   7.391   3.602   7.381 -0.1747 -0.0617  0.3697
  836loPI   C5A12363   7.676   3.860   7.656 -0.1425 -0.1282 -0.0620
  836loPI   C6A12364   8.027   4.200   7.747 -0.0083  0.0078  0.2355
  836loPI   C1B12365   7.191   3.362   6.240  0.0981 -0.2678  0.4743
  836loPI   C2B12366   7.177   3.304   6.697  0.2215 -0.1748  0.0041
  836loPI   C3B12367   7.143   3.252   7.189 -0.0084 -0.0909  0.0382
  836loPI   C4B12368   7.047   3.240   7.530  0.4350  0.0500 -0.0911
  837loPI    C112369   6.984   5.100   5.624 -0.0155  0.0674 -0.2185
  837loPI    C212370   7.128   4.729   5.664 -0.0323  0.0843  0.0154
  837loPI    C312371   7.004   4.859   5.306  0.1685 -0.0631 -0.1094
  837loPI   PO412372   6.811   5.094   5.907 -0.1856  0.3362 -0.1202
  837loPI   GL112373   6.356   5.191   6.188  0.2073 -0.2782 -0.0259
  837loPI   GL212374   6.717   5.222   6.328  0.1855  0.0561 -0.0816
  837loPI   C1A12375   6.280   5.296   6.584  0.1864  0.2264 -0.1469
  837loPI   C2A12376   6.303   5.385   7.073 -0.2671  0.0213  0.1556
  837loPI   C3A12377   6.471   5.203   7.508  0.1316 -0.0946 -0.1855
  837loPI   C4A12378   6.513   5.071   8.003 -0.0203 -0.0457  0.0169
  837loPI   C5A12379   6.341   4.972   8.319 -0.0421  0.2576  0.1645
  837loPI   C6A12380   6.196   4.656   8.746  0.0190  0.0298 -0.2096
  837loPI   C1B12381   6.516   4.814   6.447  0.3404  0.0374 -0.0210
  837loPI   C2B12382   6.548   4.654   6.857 -0.0211  0.0263  0.3099
  837loPI   C3B12383   6.718   4.767   7.279  0.1558  0.0759 -0.0683
  837loPI   C4B12384   6.982   5.043   7.448  0.2496 -0.1576  0.0577
  838loPI    C112385  15.379   8.052   5.535  0.0047  0.0132 -0.0336
  838loPI    C212386  15.700   8.266   5.429  0.0477 -0.1078 -0.1492
  838loPI    C312387  15.450   8.127   5.149 -0.1990  0.1274 -0.0504
  838loPI   PO412388  15.250   8.225   5.647 -0.2917  0.0776 -0.1532
  838loPI   GL112389  15.481   8.531   5.897 -0.0208  0.1993  0.0694
  838loPI   GL212390  15.076   8.502   6.054 -0.2461  0.0117  0.0734
  838loPI   C1A12391  15.504   8.642   6.326  0.2008 -0.0989 -0.0416
  838loPI   C2A12392  15.491   8.713   6.828 -0.5653 -0.2476 -0.1783
  838loPI   C3A12393  15.366   8.725   7.219 -0.3975  0.2551  0.2482
  838loPI   C4A12394  15.422   8.698   7.738 -0.1063  0.1422 -0.1800
  838loPI   C5A12395  15.679   8.806   8.162 -0.0990 -0.2188  0.1013
  838loPI   C6A12396  15.836   8.923   8.486 -0.3130 -0.1288 -0.3812
  838loPI   C1B12397  15.045   8.720   6.466  0.3045 -0.2360 -0.2129
  838loPI   C2B12398  14.969   8.695   6.942  0.1574  0.2444 -0.0882
  838loPI   C3B12399  14.917   8.721   7.406 -0.2689  0.0628 -0.1584
  838loPI   C4B12400  14.798   8.759   7.751  0.2146 -0.1722  0.1837
  839loPI    C112401  17.995   6.072   5.863  0.1946 -0.0692  0.0378
  839loPI    C212402  18.080   5.819   5.566  0.2725  0.0524 -0.0443
  839loPI    C312403  18.100   6.214   5.504  0.1955  0.0786  0.0956
  839loPI   PO412404  18.147   6.012   6.027  0.1634 -0.0192 -0.0531
  839loPI   GL112405  18.047   5.899   6.407 -0.0155 -0.2257 -0.1773
  839loPI   GL212406  17.773   5.865   6.314 -0.1695 -0.2746 -0.1197
  839loPI   C1A12407  18.182   5.966   6.847 -0.3549  0.0748 -0.0753
  839loPI   C2A12408  18.602   5.965   7.063  0.2020  0.0064  0.0450
  839loPI   C3A12409  18.954   6.110   7.321  0.0943  0.0588 -0.0881
  839loPI   C4A12410  18.982   6.254   7.777  0.3273  0.1833  0.3218
  839loPI   C5A12411  19.352   6.380   8.036  0.0089  0.1649  0.0996
  839loPI   C6A12412  19.715   6.136   8.139 -0.2227 -0.0721 -0.1869
  839loPI   C1B12413  17.722   6.140   6.771 -0.2782 -0.0518  0.2188
  839loPI   C2B12414  17.470   6.098   7.091 -0.0568 -0.0338 -0.2389
  839loPI   C3B12415  17.278   6.254   7.502 -0.0156 -0.1601  0.1962
  839loPI   C4B12416  16.872   6.242   7.692  0.1464 -0.0834  0.2414
  840loPI    C112417  18.034  10.287   5.860  0.1569 -0.0003 -0.1144
  840loPI    C212418  17.780  10.441   5.593 -0.0439  0.1702  0.1693
  840loPI    C312419  18.174  10.475   5.536 -0.0840  0.1859 -0.1131
  840loPI   PO412420  18.002  10.047   5.880  0.2389 -0.0981  0.1190
  840loPI   GL112421  17.845   9.961   6.305  0.0570 -0.2409  0.1165
  840loPI   GL212422  17.855   9.671   6.154 -0.0658 -0.0739  0.4860
  840loPI   C1A12423  17.762  10.170   6.678 -0.1326 -0.2003 -0.0893
  840loPI   C2A12424  17.925  10.106   7.063 -0.0629 -0.3729 -0.0095
  840loPI   C3A12425  17.826   9.899   7.506  0.1409 -0.0413 -0.2078
  840loPI   C4A12426  17.904   9.739   7.866  0.1495 -0.0792  0.1465
  840loPI   C5A12427  17.654   9.504   8.245 -0.4992 -0.0083 -0.1628
  840loPI   C6A12428  17.329   9.220   8.243  0.1124  0.1020 -0.0597
  840loPI   C1B12429  17.950   9.627   6.623  0.1893  0.0361  0.1881
  840loPI   C2B12430  17.994   9.585   7.081  0.0048  0.0228  0.1062
  840loPI   C3B12431  17.858   9.322   7.486  0.1564  0.0849  0.1058
  840loPI   C4B12432  17.950   9.190   7.946 -0.0035  0.1304  0.3867
  841loPI    C112433  13.081  11.337   5.458  0.0595 -0.2142  0.0562
  841loPI    C212434  12.975  11.394   5.076  0.0179 -0.0253  0.0947
  841loPI    C312435  13.353  11.457   5.191  0.0219 -0.0448  0.0924
  841loPI   PO412436  12.872  11.480   5.592 -0.0859  0.0047  0.0935
  841loPI   GL112437  12.939  11.563   6.003  0.1306  0.0633  0.0312
  841loPI   GL212438  12.656  11.427   6.083  0.0959 -0.1049 -0.1686
  841loPI   C1A12439  13.067  11.508   6.425  0.1428  0.0875 -0.0317
  841loPI   C2A12440  13.013  11.625   6.770  0.4401 -0.1422  0.2551
  841loPI   C3A12441  12.989  11.612   7.268 -0.2566 -0.0772 -0.1681
  841loPI   C4A12442  13.066  11.719   7.639  0.2451  0.1771  0.0235
  841loPI   C5A12443  13.263  12.067   7.950 -0.0402  0.0961  0.1848
  841loPI   C6A12444  13.460  12.323   8.253 -0.2529  0.1647 -0.1919
  841loPI   C1B12445  12.540  11.391   6.548  0.1538 -0.0922 -0.6400
  841loPI   C2B12446  12.526  11.351   6.998  0.0576  0.0252 -0.4750
  841loPI   C3B12447  12.558  11.228   7.447  0.0705 -0.3062  0.1886
  841loPI   C4B12448  12.464  11.134   7.906  0.1000 -0.0693 -0.1982
  842loPI    C112449   9.844  13.348   5.461  0.0410  0.1566  0.0014
  842loPI    C212450   9.998  13.657   5.664  0.1001  0.2584 -0.1961
  842loPI    C312451   9.746  13.723   5.361 -0.2087  0.0980  0.0208
  842loPI   PO412452   9.733  13.175   5.670  0.0582 -0.0287 -0.0115
  842loPI   GL112453   9.705  13.026   6.076  0.0664 -0.0917  0.0836
  842loPI   GL212454   9.460  13.183   6.199 -0.0452 -0.0044  0.2387
  842loPI   C1A12455   9.645  12.721   6.416  0.0128  0.0605  0.0687
  842loPI   C2A12456   9.628  12.673   6.833 -0.1674 -0.0026  0.4540
  842loPI   C3A12457   9.564  12.642   7.225  0.1451  0.1825 -0.0128
  842loPI   C4A12458   9.549  12.533   7.640  0.2119 -0.0807  0.0172
  842loPI   C5A12459   9.762  12.725   7.937  0.1286  0.2753 -0.0793
  842loPI   C6A12460   9.886  12.528   8.375  0.1047  0.1087  0.1926
  842loPI   C1B12461   9.687  13.162   6.652  0.1818 -0.0302  0.0928
  842loPI   C2B12462   9.612  13.131   7.144  0.0568 -0.1581 -0.0276
  842loPI   C3B12463   9.645  13.069   7.485  0.0199 -0.0911 -0.4686
  842loPI   C4B12464   9.589  13.247   7.927 -0.1113  0.3832 -0.3613
  843loPI    C112465  17.641   2.095   5.314  0.1126 -0.1200  0.1130
  843loPI    C212466  17.424   2.387   5.480  0.3376  0.1367 -0.0379
  843loPI    C312467  17.381   2.302   5.091  0.1924 -0.1085  0.0300
  843loPI   PO412468  17.600   1.920   5.478 -0.1378 -0.0741 -0.1055
  843loPI   GL112469  17.816   1.715   5.687 -0.1575 -0.1590 -0.1166
  843loPI   GL212470  17.744   1.453   5.686  0.0650  0.0045  0.0981
  843loPI   C1A12471  17.834   1.794   6.120 -0.1394 -0.1012 -0.1785
  843loPI   C2A12472  18.040   1.719   6.515 -0.0057  0.1074  0.3338
  843loPI   C3A12473  18.164   1.431   6.879  0.0640  0.0703  0.0445
  843loPI   C4A12474  18.300   1.293   7.305 -0.0501 -0.0005 -0.0945
  843loPI   C5A12475  18.104   1.298   7.686  0.3425 -0.2755  0.0806
  843loPI   C6A12476  17.950   0.877   7.900 -0.0970 -0.1235 -0.2504
  843loPI   C1B12477  17.573   1.400   6.052 -0.1302  0.1299  0.4367
  843loPI   C2B12478  17.649   1.412   6.478 -0.0464  0.2782  0.0600
  843loPI   C3B12479  17.702   1.511   6.875  0.2981 -0.1691  0.3871
  843loPI   C4B12480  17.786   1.366   7.338  0.1864  0.0869 -0.1232
  844loPI    C112481  17.785  12.226   5.772 -0.1790  0.1282  0.0270
  844loPI    C212482  17.856  12.272   5.381  0.1595 -0.0991  0.0571
  844loPI    C312483  17.894  11.912   5.550 -0.0522 -0.0163  0.2882
  844loPI   PO412484  17.441  12.227   5.818  0.0613 -0.4067  0.0477
  844loPI   GL112485  17.171  12.377   6.073  0.2136 -0.3116  0.1675
  844loPI   GL212486  17.120  12.683   6.163  0.1081 -0.3530  0.0850
  844loPI   C1A12487  17.559  12.523   6.419 -0.3553 -0.3538 -0.1117
  844loPI   C2A12488  17.681  12.764   6.770  0.0579  0.1617  0.0478
  844loPI   C3A12489  17.616  13.099   6.998 -0.0911 -0.3336 -0.2045
  844loPI   C4A12490  17.526  13.262   7.419 -0.3064  0.2731  0.0225
  844loPI   C5A12491  17.611  13.398   7.781 -0.0592  0.3706  0.3371
  844loPI   C6A12492  17.578  13.237   8.174  0.1028  0.2768 -0.1463
  844loPI   C1B12493  16.812  13.018   6.262 -0.4347  0.0705  0.0192
  844loPI   C2B12494  16.738  13.079   6.661 -0.0717 -0.2022  0.3332
  844loPI   C3B12495  16.674  13.069   7.153 -0.0471  0.1054  0.1202
  844loPI   C4B12496  16.717  13.269   7.507 -0.0465 -0.1564  0.2906
  845loPI    C112497   5.457  11.965   5.271  0.0206  0.1469 -0.0259
  845loPI    C212498   5.108  11.775   5.317  0.1080  0.0404  0.2141
  845loPI    C312499   5.357  11.667   5.023  0.1023 -0.1343  0.2723
  845loPI   PO412500   5.569  11.953   5.570 -0.1509 -0.2095 -0.0362
  845loPI   GL112501   5.592  11.942   5.971  0.0707  0.1907 -0.0432
  845loPI   GL212502   5.744  12.245   6.164  0.0222  0.2675 -0.4250
  845loPI   C1A12503   5.343  11.906   6.440  0.1267  0.0070  0.2389
  845loPI   C2A12504   5.354  11.956   6.919 -0.0804 -0.0343 -0.0881
  845loPI   C3A12505   5.359  12.037   7.446  0.0110 -0.1627 -0.0384
  845loPI   C4A12506   5.364  12.092   7.895  0.1198  0.3590 -0.1633
  845loPI   C5A12507   5.404  12.412   8.212 -0.2163 -0.1750 -0.0052
  845loPI   C6A12508   5.570  12.827   8.491 -0.0882  0.1932  0.3004
  845loPI   C1B12509   5.826  12.016   6.512  0.3175 -0.0319  0.0100
  845loPI   C2B12510   5.919  12.183   6.928  0.0289 -0.1167 -0.0072
  845loPI   C3B12511   5.871  12.236   7.349 -0.1986 -0.0502 -0.1860
  845loPI   C4B12512   5.791  12.370   7.705  0.0288  0.1921  0.0462
  846loPI    C112513   3.196  10.847   5.729  0.1194 -0.2354 -0.0095
  846loPI    C212514   2.995  11.025   6.026  0.2748  0.2217 -0.1708
  846loPI    C312515   2.796  10.844   5.730  0.1133  0.1492 -0.0194
  846loPI   PO412516   3.403  10.738   5.871  0.0358 -0.2407  0.2200
  846loPI   GL112517   3.366  10.723   6.312 -0.0034  0.1723 -0.4103
  846loPI   GL212518   2.953  10.642   6.298 -0.1861 -0.1532  0.0522
  846loPI   C1A12519   3.365  10.709   6.794 -0.3599 -0.1275 -0.3683
  846loPI   C2A12520   3.331  10.617   7.244 -0.0010  0.1039 -0.0407
  846loPI   C3A12521   3.281  10.538   7.719  0.0595 -0.0590 -0.3292
  846loPI   C4A12522   3.269  10.770   8.028  0.0955  0.1389 -0.2956
  846loPI   C5A12523   3.179  11.083   8.322  0.2116  0.2909  0.4208
  846loPI   C6A12524   3.024  11.464   8.364 -0.1651  0.1713  0.0297
  846loPI   C1B12525   2.967  10.974   6.553 -0.3996 -0.1839 -0.0319
  846loPI   C2B12526   2.918  10.958   6.947  0.0125  0.2662 -0.0808
  846loPI   C3B12527   2.932  10.973   7.315  0.1477 -0.2468 -0.0226
  846loPI   C4B12528   2.886  10.896   7.763  0.1013  0.0871  0.1209
  847loPI    C112529  13.800  12.259   5.119  0.3767  0.2980 -0.1033
  847loPI    C212530  13.529  12.520   4.983  0.0712  0.1215  0.1521
  847loPI    C312531  13.503  12.133   4.883  0.2377  0.1053  0.1679
  847loPI   PO412532  13.817  12.290   5.409 -0.1324  0.2112 -0.0018
  847loPI   GL112533  13.593  12.190   5.801  0.2279  0.0198  0.0089
  847loPI   GL212534  13.315  12.424   5.939 -0.0491  0.0008 -0.0873
  847loPI   C1A12535  13.745  12.185   6.242  0.3283 -0.1255  0.3009
  847loPI   C2A12536  13.968  12.186   6.623 -0.5550  0.1652 -0.1659
  847loPI   C3A12537  13.911  12.093   7.105  0.2256 -0.0679  0.0465
  847loPI   C4A12538  13.981  12.274   7.525 -0.3446 -0.1455 -0.3191
  847loPI   C5A12539  14.269  12.068   7.946  0.2003  0.1092  0.3731
  847loPI   C6A12540  14.181  11.815   8.424 -0.0466  0.0183 -0.3888
  847loPI   C1B12541  13.321  12.448   6.405  0.0039  0.2779 -0.2712
  847loPI   C2B12542  13.089  12.167   6.708  0.0714  0.1542 -0.0836
  847loPI   C3B12543  12.985  12.063   7.128 -0.1570  0.0998 -0.3861
  847loPI   C4B12544  13.080  12.239   7.561  0.0227 -0.0618  0.1211
  848loPI    C112545  11.498  12.114   5.671  0.0801  0.1215 -0.1634
  848loPI    C212546  11.495  12.325   5.332  0.3200  0.0761 -0.1956
  848loPI    C312547  11.473  11.926   5.319 -0.0133  0.0896 -0.1401
  848loPI   PO412548  11.638  12.233   5.808  0.1123  0.1071 -0.0946
  848loPI   GL112549  11.667  12.344   6.211  0.2599 -0.2139  0.2600
  848loPI   GL212550  11.447  12.482   6.172 -0.0061  0.2768  0.1903
  848loPI   C1A12551  11.741  12.546   6.595 -0.1769 -0.0420  0.0544
  848loPI   C2A12552  11.802  12.654   7.018 -0.2500 -0.3458 -0.0397
  848loPI   C3A12553  11.453  12.828   7.338 -0.0748 -0.0179 -0.4080
  848loPI   C4A12554  11.046  13.090   7.443 -0.0103 -0.0230  0.0292
  848loPI   C5A12555  10.929  13.324   7.831  0.2486  0.0380  0.1529
  848loPI   C6A12556  10.897  13.668   8.081  0.0830 -0.1494  0.2180
  848loPI   C1B12557  11.239  12.268   6.614  0.0347 -0.1518  0.1239
  848loPI   C2B12558  11.201  11.853   6.898 -0.1467  0.2298  0.1991
  848loPI   C3B12559  11.274  11.779   7.302  0.3624  0.1617 -0.0687
  848loPI   C4B12560  11.117  11.671   7.810 -0.0919  0.1180 -0.1456
  849loPI    C112561   6.125  15.718   5.546  0.1445 -0.1971 -0.1549
  849loPI    C212562   5.797  15.541   5.693  0.0260  0.0791 -0.0806
  849loPI    C312563   5.798  15.935   5.624  0.4314  0.1291  0.1752
  849loPI   PO412564   6.313  15.664   5.731  0.0285 -0.1462 -0.2138
  849loPI   GL112565   6.599  15.722   6.060  0.3142 -0.0524 -0.1621
  849loPI   GL212566   6.508  16.022   6.045 -0.2400 -0.1285 -0.3633
  849loPI   C1A12567   6.434  15.567   6.399 -0.0879 -0.2402  0.1096
  849loPI   C2A12568   6.610  15.417   6.665 -0.1986 -0.0200 -0.3437
  849loPI   C3A12569   6.894  15.358   7.029 -0.0660  0.0213 -0.1801
  849loPI   C4A12570   7.008  15.117   7.326  0.0382 -0.0705 -0.0778
  849loPI   C5A12571   6.889  14.994   7.738 -0.0188  0.1599  0.1366
  849loPI   C6A12572   6.585  15.013   7.991 -0.2897  0.0488  0.3775
  849loPI   C1B12573   6.305  16.064   6.410  0.0182 -0.3546 -0.1376
  849loPI   C2B12574   6.366  16.325   6.872 -0.2832  0.3971  0.0384
  849loPI   C3B12575   6.794  16.553   6.949 -0.0181  0.1791  0.0833
  849loPI   C4B12576   6.936  16.871   6.848 -0.1304  0.4021 -0.1896
  850loPI    C112577   2.059  16.429   5.136 -0.2586 -0.1606  0.0711
  850loPI    C212578   2.043  16.199   5.463 -0.0598 -0.2758  0.0014
  850loPI    C312579   2.202  16.056   5.125  0.2726  0.0354  0.0201
  850loPI   PO412580   1.939  16.648   5.265 -0.1118  0.1979 -0.0332
  850loPI   GL112581   1.506  16.603   5.473  0.1372  0.0416  0.1669
  850loPI   GL212582   1.599  16.396   5.566  0.0576 -0.1932 -0.0895
  850loPI   C1A12583   1.579  16.744   5.904  0.1687 -0.1460 -0.1834
  850loPI   C2A12584   1.579  16.775   6.344  0.2260  0.3172 -0.0457
  850loPI   C3A12585   1.695  16.711   6.725 -0.0352 -0.0347  0.0416
  850loPI   C4A12586   1.662  16.715   7.220  0.0997 -0.1611  0.4297
  850loPI   C5A12587   1.541  17.010   7.574 -0.0245  0.1642  0.0263
  850loPI   C6A12588   1.368  17.246   7.906  0.0205  0.3197  0.1050
  850loPI   C1B12589   1.625  16.282   6.043  0.1606  0.1605  0.0616
  850loPI   C2B12590   1.575  16.274   6.458  0.0810  0.0729 -0.1211
  850loPI   C3B12591   1.606  16.171   6.942 -0.0558  0.0030 -0.1527
  850loPI   C4B12592   1.668  16.263   7.410 -0.2741  0.2250 -0.0853
  851loPI    C112593   2.838   1.630   5.125 -0.0105 -0.2474  0.0658
  851loPI    C212594   3.091   1.544   4.827 -0.1003 -0.4493  0.0460
  851loPI    C312595   2.710   1.638   4.745 -0.0005 -0.0037  0.0657
  851loPI   PO412596   2.966   1.639   5.367  0.1585 -0.0135 -0.0518
  851loPI   GL112597   3.214   1.582   5.805 -0.1598 -0.1455 -0.0040
  851loPI   GL212598   3.179   1.236   5.948  0.1084 -0.1849  0.2254
  851loPI   C1A12599   3.034   1.541   6.292  0.3481  0.2132  0.2322
  851loPI   C2A12600   3.159   1.481   6.737  0.1674 -0.2564  0.1989
  851loPI   C3A12601   2.971   1.538   7.132  0.2502  0.0762 -0.0577
  851loPI   C4A12602   2.829   1.586   7.605  0.1591 -0.1796  0.2836
  851loPI   C5A12603   2.456   1.684   7.767 -0.0593 -0.0430  0.0614
  851loPI   C6A12604   2.039   1.751   7.736 -0.1725 -0.2744  0.2497
  851loPI   C1B12605   3.268   1.141   6.367 -0.1502 -0.0727 -0.0754
  851loPI   C2B12606   3.472   1.025   6.773 -0.0085  0.0873 -0.0902
  851loPI   C3B12607   3.298   1.160   7.176  0.0810  0.0497 -0.0589
  851loPI   C4B12608   3.325   1.433   7.531 -0.0076  0.2692  0.1217
  852loPI    C112609  10.190   5.422   5.636 -0.0918 -0.0067  0.0895
  852loPI    C212610  10.169   5.137   5.356 -0.0889  0.0477  0.0338
  852loPI    C312611  10.462   5.409   5.343 -0.0842  0.0457  0.0942
  852loPI   PO412612   9.987   5.387   5.725  0.1028  0.0292 -0.4422
  852loPI   GL112613   9.709   5.378   5.948 -0.1086  0.0200 -0.0744
  852loPI   GL212614   9.410   5.443   6.115  0.1687  0.0784  0.0172
  852loPI   C1A12615   9.768   5.262   6.392 -0.2156  0.1120  0.0585
  852loPI   C2A12616   9.795   5.193   6.890 -0.1285  0.0316  0.0483
  852loPI   C3A12617   9.665   5.155   7.348 -0.1117  0.0370  0.1525
  852loPI   C4A12618   9.586   5.244   7.758  0.1047 -0.0343 -0.1631
  852loPI   C5A12619   9.456   5.344   8.192  0.0369  0.2950 -0.0215
  852loPI   C6A12620   9.216   5.262   8.515  0.0464  0.1879  0.0214
  852loPI   C1B12621   9.358   5.581   6.645 -0.0419 -0.1809 -0.2656
  852loPI   C2B12622   9.529   5.562   7.081 -0.0979  0.0804  0.1466
  852loPI   C3B12623   9.756   5.637   7.509 -0.2260  0.1779  0.1828
  852loPI   C4B12624  10.226   5.675   7.611  0.1269  0.2064 -0.0151
  853loPI    C112625  17.227   7.329   6.248  0.2764  0.0416 -0.0972
  853loPI    C212626  17.500   7.601   6.141  0.1460  0.1273 -0.2164
  853loPI    C312627  17.144   7.593   5.959 -0.0554  0.2309  0.1631
  853loPI   PO412628  17.243   7.321   6.531  0.1562  0.2677 -0.3474
  853loPI   GL112629  17.416   7.617   6.820 -0.1268 -0.3510  0.0169
  853loPI   GL212630  17.728   7.596   6.573 -0.1117  0.2104 -0.1835
  853loPI   C1A12631  17.497   7.585   7.274 -0.0502  0.0204  0.0850
  853loPI   C2A12632  17.418   7.301   7.678 -0.0766  0.0322  0.0313
  853loPI   C3A12633  17.193   7.054   7.817 -0.1227 -0.4081 -0.1395
  853loPI   C4A12634  17.159   6.681   8.079  0.2815 -0.0879  0.0850
  853loPI   C5A12635  17.185   6.273   8.043 -0.2918  0.1305  0.1442
  853loPI   C6A12636  16.800   6.105   8.177 -0.2315 -0.4651  0.1394
  853loPI   C1B12637  17.953   7.576   6.993 -0.1179 -0.2475 -0.1289
  853loPI   C2B12638  17.899   7.335   7.290 -0.2210  0.1642 -0.1514
  853loPI   C3B12639  17.978   7.100   7.741 -0.1774  0.1520  0.0123
  853loPI   C4B12640  17.726   6.952   8.022 -0.2258 -0.0806 -0.0335
  854loPI    C112641   1.045   4.761   5.609 -0.2958  0.0186 -0.1271
  854loPI    C212642   1.267   5.081   5.518  0.1120 -0.2152  0.0161
  854loPI    C312643   1.162   4.822   5.231  0.2705 -0.2543 -0.0077
  854loPI   PO412644   1.159   4.632   5.765 -0.1252  0.0331 -0.3309
  854loPI   GL112645   1.354   4.496   6.232 -0.2495 -0.3616  0.1294
  854loPI   GL212646   1.585   4.727   6.023  0.0652  0.0378 -0.1576
  854loPI   C1A12647   1.353   4.416   6.731  0.1631  0.0187  0.0877
  854loPI   C2A12648   1.143   4.382   7.067  0.0501  0.0884  0.0046
  854loPI   C3A12649   1.040   4.146   7.435  0.0349  0.0748  0.2637
  854loPI   C4A12650   0.721   3.870   7.525  0.2582  0.0193  0.0050
  854loPI   C5A12651   0.676   3.446   7.373  0.1167 -0.0927 -0.1328
  854loPI   C6A12652   0.526   3.094   7.142  0.0459  0.2226  0.1149
  854loPI   C1B12653   1.682   5.012   6.285  0.0671  0.1541 -0.1570
  854loPI   C2B12654   1.814   4.989   6.677  0.0165 -0.2055  0.0416
  854loPI   C3B12655   1.959   5.036   7.029 -0.1744 -0.2751  0.0723
  854loPI   C4B12656   1.792   5.092   7.413  0.2918 -0.0503 -0.0770
  855loPI    C112657   9.269  15.833   5.052  0.2267 -0.0117 -0.0143
  855loPI    C212658   9.240  15.436   5.016 -0.0037 -0.0090  0.1207
  855loPI    C312659   9.003  15.674   4.799  0.0625  0.0528  0.1158
  855loPI   PO412660   9.271  15.913   5.311 -0.0172 -0.0230  0.1388
  855loPI   GL112661   9.508  15.861   5.717 -0.2683  0.0094 -0.0960
  855loPI   GL212662   9.794  15.731   5.854  0.1296  0.0548 -0.0037
  855loPI   C1A12663   9.532  16.211   6.063  0.1151  0.3343 -0.0782
  855loPI   C2A12664   9.750  16.270   6.497 -0.0298  0.0842 -0.1634
  855loPI   C3A12665   9.872  16.148   6.913  0.3080 -0.2354  0.3306
  855loPI   C4A12666   9.841  16.207   7.352  0.0367  0.0893  0.2709
  855loPI   C5A12667   9.881  15.863   7.549 -0.2321  0.1948  0.1447
  855loPI   C6A12668  10.009  15.488   7.789  0.3752 -0.2057  0.0606
  855loPI   C1B12669   9.939  15.416   6.097 -0.0326 -0.0292  0.2172
  855loPI   C2B12670   9.800  15.334   6.518 -0.0436  0.1326 -0.2028
  855loPI   C3B12671   9.621  15.100   6.782  0.0062 -0.2031 -0.4583
  855loPI   C4B12672   9.531  15.032   7.162  0.0107 -0.1632 -0.1103
  856loPI    C112673  14.452  17.504   5.591 -0.0226 -0.1366  0.0798
  856loPI    C212674  14.286  17.435   5.233 -0.0585  0.0370  0.0622
  856loPI    C312675  14.139  17.257   5.560 -0.0216 -0.1272 -0.0095
  856loPI   PO412676  14.495  17.745   5.665  0.1008 -0.1073 -0.0606
  856loPI   GL112677  14.559  17.954   6.097  0.0071  0.0719 -0.0676
  856loPI   GL212678  14.250  18.026   5.987  0.1699  0.1191  0.0430
  856loPI   C1A12679  14.716  18.080   6.485 -0.0157  0.2805  0.3054
  856loPI   C2A12680  14.683  18.223   6.822  0.2645 -0.1346 -0.4432
  856loPI   C3A12681  14.490  18.432   7.164  0.0699  0.0407  0.0722
  856loPI   C4A12682  14.559  18.457   7.568  0.2158 -0.2735 -0.3027
  856loPI   C5A12683  14.574  18.691   7.836  0.1794  0.1125  0.0877
  856loPI   C6A12684  14.282  18.969   8.137  0.1409  0.2996  0.0657
  856loPI   C1B12685  14.228  17.991   6.456  0.1518  0.2064 -0.1442
  856loPI   C2B12686  14.240  17.952   6.855  0.1134  0.2254  0.0141
  856loPI   C3B12687  14.595  17.896   7.219  0.2142  0.2002 -0.0768
  856loPI   C4B12688  14.746  17.991   7.652 -0.1242  0.0696  0.2473
  857loPI    C112689  10.044   1.279   5.634 -0.1733  0.1348  0.0295
  857loPI    C212690  10.035   1.285   5.234 -0.1991 -0.0118  0.0272
  857loPI    C312691  10.195   0.973   5.426 -0.0458  0.1284  0.1306
  857loPI   PO412692  10.167   1.529   5.744 -0.1785  0.3246 -0.1157
  857loPI   GL112693  10.047   1.388   6.189  0.0830 -0.2657  0.1156
  857loPI   GL212694  10.341   1.192   6.116  0.1940  0.3721 -0.0670
  857loPI   C1A12695  10.091   1.442   6.669  0.0795 -0.2447 -0.0280
  857loPI   C2A12696  10.266   1.439   7.082  0.1631  0.0464 -0.1348
  857loPI   C3A12697  10.321   1.444   7.477  0.0929  0.0312 -0.0552
  857loPI   C4A12698  10.498   1.478   7.934 -0.0804  0.0717 -0.0801
  857loPI   C5A12699  10.517   1.368   8.294 -0.3572  0.1230 -0.2605
  857loPI   C6A12700  10.679   1.452   8.630  0.0616  0.0275 -0.2515
  857loPI   C1B12701  10.351   0.962   6.499  0.2202  0.1051 -0.0369
  857loPI   C2B12702  10.464   0.952   6.887  0.2522 -0.0895 -0.1122
  857loPI   C3B12703  10.813   0.738   7.090  0.2095  0.0015 -0.0619
  857loPI   C4B12704  10.948   0.622   7.617  0.1538  0.1055 -0.0500
  858loPI    C112705  15.323   5.205   5.865  0.0082  0.0811  0.0182
  858loPI    C212706  15.110   5.276   5.533 -0.0423 -0.0079  0.0313
  858loPI    C312707  15.393   5.534   5.649 -0.1473  0.1143  0.0171
  858loPI   PO412708  15.147   5.242   6.080  0.0286 -0.0734  0.1139
  858loPI   GL112709  15.049   4.938   6.315 -0.2076 -0.4728  0.0864
  858loPI   GL212710  14.733   4.975   6.386  0.1105 -0.1918  0.1131
  858loPI   C1A12711  15.044   4.750   6.776  0.2170  0.0446  0.1113
  858loPI   C2A12712  15.043   4.716   7.172 -0.3125  0.0792 -0.0247
  858loPI   C3A12713  15.159   4.710   7.627 -0.1820  0.0715  0.3565
  858loPI   C4A12714  15.064   4.792   8.093  0.2040  0.0390  0.1414
  858loPI   C5A12715  15.274   4.799   8.557 -0.1100  0.0629  0.2207
  858loPI   C6A12716  15.034   4.874   8.939 -0.0117  0.1506 -0.0224
  858loPI   C1B12717  14.675   5.197   6.684 -0.0769 -0.0894 -0.0633
  858loPI   C2B12718  14.660   5.079   7.033 -0.4596 -0.0240  0.2406
  858loPI   C3B12719  14.587   5.063   7.411 -0.1188  0.1864 -0.0650
  858loPI   C4B12720  14.613   5.146   7.711  0.1298 -0.0562  0.1103
  859loPI    C112721   1.256  12.139   5.182 -0.1732  0.3062 -0.1086
  859loPI    C212722   0.927  12.106   4.956 -0.0224  0.0362 -0.2946
  859loPI    C312723   1.277  12.199   4.787  0.0237  0.1922 -0.1166
  859loPI   PO412724   1.164  11.997   5.455 -0.2712 -0.1228  0.0441
  859loPI   GL112725   1.498  11.724   5.793  0.2407 -0.3245 -0.1300
  859loPI   GL212726   1.472  11.436   5.916 -0.1325  0.1187  0.0944
  859loPI   C1A12727   1.670  11.773   6.293  0.0230 -0.0593 -0.0246
  859loPI   C2A12728   1.597  11.872   6.666  0.2492 -0.2406 -0.1333
  859loPI   C3A12729   1.699  11.777   7.103 -0.0274  0.0114 -0.0943
  859loPI   C4A12730   1.724  11.692   7.525  0.0304 -0.0379  0.0761
  859loPI   C5A12731   1.744  11.691   7.947  0.1969  0.1727 -0.1302
  859loPI   C6A12732   1.968  11.900   8.270 -0.2922 -0.1938 -0.1334
  859loPI   C1B12733   1.626  11.229   6.331 -0.2244  0.1286  0.0323
  859loPI   C2B12734   1.656  11.361   6.742  0.2404  0.2571 -0.0237
  859loPI   C3B12735   1.693  11.266   7.254  0.1569  0.0374 -0.1055
  859loPI   C4B12736   1.707  11.155   7.687 -0.2182 -0.0119 -0.0835
  860loPI    C112737   6.470  11.890   5.127  0.1687  0.0734 -0.1181
  860loPI    C212738   6.354  11.508   5.106  0.0238  0.0955  0.2259
  860loPI    C312739   6.687  11.626   4.919 -0.1039 -0.1274 -0.1529
  860loPI   PO412740   6.526  11.949   5.513 -0.0559  0.1935  0.1073
  860loPI   GL112741   6.451  11.894   6.008  0.3606 -0.2414  0.1744
  860loPI   GL212742   6.706  11.918   6.037  0.1645  0.0404 -0.3324
  860loPI   C1A12743   6.259  12.209   6.325 -0.2005  0.1257 -0.1898
  860loPI   C2A12744   6.428  12.283   6.662 -0.0744  0.1125  0.1708
  860loPI   C3A12745   6.338  12.408   7.152 -0.2053  0.1739 -0.1498
  860loPI   C4A12746   6.269  12.522   7.478  0.2888  0.2079  0.1319
  860loPI   C5A12747   6.149  12.693   7.851  0.1462  0.4152 -0.1486
  860loPI   C6A12748   5.953  12.587   8.294  0.0400  0.0173  0.1793
  860loPI   C1B12749   6.733  11.882   6.435  0.0132  0.1139 -0.2284
  860loPI   C2B12750   6.695  11.993   6.924 -0.2551  0.2520  0.1951
  860loPI   C3B12751   6.851  12.081   7.286 -0.0270 -0.2010  0.0048
  860loPI   C4B12752   6.755  12.168   7.645  0.1576 -0.2783 -0.1359
  861loPI    C112753  17.427   8.063   5.535 -0.3064  0.0640  0.0432
  861loPI    C212754  17.143   8.324   5.427 -0.1606  0.1419 -0.1582
  861loPI    C312755  17.499   8.329   5.245 -0.0573 -0.0096  0.0356
  861loPI   PO412756  17.405   8.038   5.812 -0.2007 -0.2790 -0.0447
  861loPI   GL112757  17.483   8.199   6.234 -0.1895 -0.0339  0.1447
  861loPI   GL212758  17.526   8.056   6.542 -0.2060  0.0665  0.0472
  861loPI   C1A12759  17.082   8.356   6.579  0.0323  0.0031 -0.0713
  861loPI   C2A12760  16.866   8.403   6.956 -0.0378  0.0214  0.2433
  861loPI   C3A12761  16.876   8.147   7.256 -0.0819 -0.2944  0.4049
  861loPI   C4A12762  16.891   8.024   7.644 -0.0414  0.2401 -0.0478
  861loPI   C5A12763  16.815   8.099   8.146 -0.0925  0.2040  0.0023
  861loPI   C6A12764  16.538   8.132   8.497 -0.0659  0.3064 -0.5445
  861loPI   C1B12765  17.431   8.128   7.004 -0.0600 -0.1501  0.0154
  861loPI   C2B12766  17.426   8.084   7.362 -0.0095  0.0680 -0.1377
  861loPI   C3B12767  17.408   7.889   7.683  0.1825  0.1842 -0.0669
  861loPI   C4B12768  17.132   7.652   7.821 -0.1837  0.0539 -0.0544
  862loPI    C112769   1.982  14.849   5.492  0.0089 -0.1343  0.0409
  862loPI    C212770   2.329  14.741   5.327  0.0276 -0.1299  0.0773
  862loPI    C312771   2.067  14.960   5.118  0.1023 -0.0228  0.0946
  862loPI   PO412772   1.896  14.658   5.634  0.0593  0.1819  0.2000
  862loPI   GL112773   1.938  14.497   5.977  0.0974  0.2836  0.5313
  862loPI   GL212774   1.924  14.879   6.071 -0.4799  0.3687  0.0688
  862loPI   C1A12775   1.996  14.386   6.335 -0.1887 -0.0922  0.0558
  862loPI   C2A12776   1.980  14.393   6.814  0.0709  0.0052 -0.1505
  862loPI   C3A12777   1.892  14.340   7.292  0.1795  0.2296 -0.0298
  862loPI   C4A12778   1.936  14.355   7.774  0.2216  0.2783  0.1368
  862loPI   C5A12779   1.676  14.224   8.153  0.0525  0.0189  0.3017
  862loPI   C6A12780   1.310  14.203   8.189 -0.2648  0.1745  0.0994
  862loPI   C1B12781   1.941  14.899   6.422  0.2706 -0.1203  0.0730
  862loPI   C2B12782   2.011  14.871   6.875  0.3262 -0.1297  0.1850
  862loPI   C3B12783   1.956  14.872   7.338  0.2952  0.0210 -0.0514
  862loPI   C4B12784   1.949  15.023   7.729 -0.1010  0.3247  0.1946
  863loPI    C112785   8.039  17.230   5.470 -0.0438  0.1303  0.1922
  863loPI    C212786   7.890  16.891   5.317  0.0875  0.0604  0.2173
  863loPI    C312787   7.938  17.213   5.084  0.1239  0.0079  0.1522
  863loPI   PO412788   7.986  17.215   5.819  0.2018 -0.1227  0.2312
  863loPI   GL112789   8.075  16.905   6.122  0.0489  0.0242 -0.1587
  863loPI   GL212790   7.784  16.871   6.257  0.1425  0.1494  0.1464
  863loPI   C1A12791   8.169  17.241   6.413  0.0047 -0.0475 -0.0108
  863loPI   C2A12792   8.357  17.428   6.748 -0.2025  0.0388  0.1640
  863loPI   C3A12793   8.531  17.511   7.178  0.3009  0.1621  0.1271
  863loPI   C4A12794   8.727  17.607   7.618 -0.1222 -0.1525  0.1099
  863loPI   C5A12795   8.708  17.417   7.899  0.0192  0.1431 -0.2107
  863loPI   C6A12796   8.823  17.059   8.148  0.0876  0.1222  0.0087
  863loPI   C1B12797   7.897  16.921   6.698  0.1483  0.1998  0.2584
  863loPI   C2B12798   8.265  16.963   6.914 -0.2033  0.3365  0.1708
  863loPI   C3B12799   8.758  17.159   6.802  0.3732  0.1942  0.1245
  863loPI   C4B12800   9.162  17.337   6.765 -0.3216  0.3415 -0.0253
  864loPI    C112801  10.504   7.579   5.509 -0.0647  0.0350  0.0959
  864loPI    C212802  10.195   7.742   5.315 -0.1498 -0.0907  0.1248
  864loPI    C312803  10.225   7.344   5.345  0.0226 -0.0795  0.1099
  864loPI   PO412804  10.470   7.614   5.745 -0.1844 -0.1236  0.0744
  864loPI   GL112805  10.393   7.553   6.153 -0.0170 -0.0894 -0.1311
  864loPI   GL212806  10.094   7.350   6.317  0.1888  0.0454 -0.1062
  864loPI   C1A12807  10.506   7.539   6.592 -0.0273 -0.2474 -0.1279
  864loPI   C2A12808  10.547   7.627   7.091  0.2185  0.0356  0.1080
  864loPI   C3A12809  10.541   7.706   7.440 -0.2419  0.0088  0.0655
  864loPI   C4A12810  10.676   7.907   7.662  0.0187 -0.0448 -0.2164
  864loPI   C5A12811  10.746   8.211   7.915 -0.0082  0.1625 -0.2645
  864loPI   C6A12812  10.733   8.410   8.252  0.1733 -0.1049 -0.4469
  864loPI   C1B12813   9.816   7.146   6.728 -0.0866 -0.1466  0.4487
  864loPI   C2B12814   9.942   7.075   7.126  0.1432  0.0901 -0.2194
  864loPI   C3B12815  10.101   6.980   7.516  0.0930 -0.0708  0.3419
  864loPI   C4B12816   9.920   7.155   7.860 -0.2367  0.0029  0.1623
  865loPI    C112817  16.041   1.726   5.143 -0.3023  0.0126  0.3129
  865loPI    C212818  15.743   1.475   5.050 -0.0791 -0.1082 -0.0992
  865loPI    C312819  15.722   1.860   4.943 -0.0624 -0.1300 -0.1818
  865loPI   PO412820  16.070   1.859   5.367  0.0621 -0.0269  0.0395
  865loPI   GL112821  15.868   1.981   5.702 -0.0049  0.1288  0.0043
  865loPI   GL212822  15.555   2.067   5.817 -0.0212 -0.1162 -0.0974
  865loPI   C1A12823  16.075   1.816   5.989  0.0580  0.0837  0.0084
  865loPI   C2A12824  16.253   1.615   6.354  0.0605 -0.0376  0.4606
  865loPI   C3A12825  16.198   1.458   6.798  0.2813  0.1869  0.3272
  865loPI   C4A12826  16.194   1.437   7.242 -0.0919  0.0465  0.0628
  865loPI   C5A12827  16.167   1.485   7.710  0.0414 -0.0753 -0.2496
  865loPI   C6A12828  15.853   1.474   8.030 -0.1165 -0.2336  0.0551
  865loPI   C1B12829  15.458   2.062   6.293  0.1513 -0.2080  0.1051
  865loPI   C2B12830  15.456   2.076   6.712 -0.2144 -0.2228 -0.3325
  865loPI   C3B12831  15.515   2.064   7.141 -0.0278  0.0152  0.0520
  865loPI   C4B12832  15.641   1.815   7.553  0.1726 -0.0434 -0.1468
  866loPI    C112833   6.192   1.257   5.214  0.0886 -0.2271  0.0792
  866loPI    C212834   6.003   1.019   4.954  0.1276 -0.0233 -0.1394
  866loPI    C312835   6.115   1.386   4.843  0.1739  0.0546  0.1574
  866loPI   PO412836   6.119   1.223   5.441 -0.1892 -0.2739  0.2516
  866loPI   GL112837   6.210   1.066   5.835 -0.0923  0.0902 -0.0387
  866loPI   GL212838   6.393   0.860   5.828 -0.0583 -0.0661  0.1254
  866loPI   C1A12839   6.184   1.157   6.321  0.1372  0.1749 -0.2091
  866loPI   C2A12840   6.038   1.259   6.699  0.3087 -0.1610 -0.0282
  866loPI   C3A12841   6.071   1.171   7.085 -0.0548  0.1256  0.0473
  866loPI   C4A12842   6.072   1.257   7.485 -0.1892 -0.1570  0.1219
  866loPI   C5A12843   5.831   1.150   7.800 -0.2990  0.2780  0.1945
  866loPI   C6A12844   5.378   1.207   7.876 -0.2668 -0.0090 -0.1033
  866loPI   C1B12845   6.453   0.730   6.308  0.3604 -0.4249 -0.0955
  866loPI   C2B12846   6.244   0.776   6.720 -0.1414 -0.1746 -0.1648
  866loPI   C3B12847   6.214   0.667   7.129  0.0013 -0.3788  0.0502
  866loPI   C4B12848   6.138   0.778   7.536 -0.1669  0.2622 -0.0046
  867loPI    C112849  11.856   2.015   5.031  0.0394 -0.1432  0.0433
  867loPI    C212850  11.601   2.193   5.282 -0.0704 -0.2373 -0.0006
  867loPI    C312851  11.595   2.284   4.893  0.0201 -0.1784  0.0113
  867loPI   PO412852  12.042   2.013   5.242  0.2214 -0.0868  0.3074
  867loPI   GL112853  11.975   1.972   5.631 -0.1997  0.0063 -0.2662
  867loPI   GL212854  11.731   1.956   5.770 -0.1180  0.2429  0.0041
  867loPI   C1A12855  12.144   1.714   5.996 -0.0429  0.0825  0.2305
  867loPI   C2A12856  12.178   1.729   6.427 -0.1065  0.4637 -0.1954
  867loPI   C3A12857  12.092   1.701   6.838  0.0855 -0.1204 -0.3332
  867loPI   C4A12858  12.229   1.864   7.272 -0.2224 -0.1651  0.0367
  867loPI   C5A12859  12.389   1.800   7.647 -0.1435  0.1698  0.1675
  867loPI   C6A12860  12.530   1.661   8.123 -0.0877 -0.0835  0.1190
  867loPI   C1B12861  11.704   1.796   6.161 -0.1173  0.0516 -0.0444
  867loPI   C2B12862  11.652   1.628   6.487 -0.1286  0.0397  0.1293
  867loPI   C3B12863  11.605   1.661   6.879 -0.0565 -0.1086  0.0773
  867loPI   C4B12864  11.727   1.778   7.227 -0.0708 -0.1151 -0.2037
  868loPI    C112865  12.748  10.557   5.467 -0.2971  0.4756 -0.3972
  868loPI    C212866  12.976  10.849   5.618  0.0998 -0.1459  0.2751
  868loPI    C312867  13.144  10.552   5.410 -0.2640 -0.0452 -0.1805
  868loPI   PO412868  12.505  10.631   5.640 -0.0549  0.3255  0.0999
  868loPI   GL112869  12.573  10.909   5.977  0.1202  0.1825 -0.0905
  868loPI   GL212870  12.206  11.017   5.866  0.3709  0.1313 -0.2055
  868loPI   C1A12871  12.629  10.835   6.401 -0.0085  0.1286 -0.0162
  868loPI   C2A12872  12.556  10.921   6.757 -0.0291 -0.1031 -0.0919
  868loPI   C3A12873  12.560  10.809   7.154  0.2008 -0.1396  0.0441
  868loPI   C4A12874  12.393  10.730   7.503 -0.1153 -0.0618 -0.1222
  868loPI   C5A12875  12.172  10.681   7.812 -0.1942 -0.0309 -0.1520
  868loPI   C6A12876  11.996  10.369   8.018 -0.0786 -0.1123 -0.0156
  868loPI   C1B12877  12.247  11.187   6.218 -0.1090 -0.0350  0.2741
  868loPI   C2B12878  12.047  11.235   6.665  0.1367 -0.0165 -0.0482
  868loPI   C3B12879  12.093  11.107   7.141  0.1761 -0.0467 -0.2177
  868loPI   C4B12880  12.070  11.137   7.535  0.0142  0.2648 -0.5973
  869loPI    C112881   3.862   1.503   5.340 -0.0275 -0.0889  0.0952
  869loPI    C212882   3.897   1.617   4.959  0.4428 -0.2838  0.0727
  869loPI    C312883   3.712   1.854   5.223  0.0797 -0.1640 -0.2791
  869loPI   PO412884   4.092   1.422   5.389  0.2412 -0.0502  0.0671
  869loPI   GL112885   4.112   1.358   5.790 -0.0695  0.0289 -0.0329
  869loPI   GL212886   4.179   1.651   5.845 -0.2271 -0.0377  0.0630
  869loPI   C1A12887   3.999   1.197   6.198  0.1217  0.1561  0.0041
  869loPI   C2A12888   3.945   1.212   6.645 -0.2281 -0.1213  0.2105
  869loPI   C3A12889   4.133   1.197   6.955  0.0574  0.0684 -0.3211
  869loPI   C4A12890   4.361   1.424   7.334  0.1592  0.0663  0.0279
  869loPI   C5A12891   4.378   1.472   7.712  0.1079 -0.2266  0.1259
  869loPI   C6A12892   4.479   1.266   8.088  0.1469 -0.0150  0.3825
  869loPI   C1B12893   4.112   1.679   6.262 -0.0534 -0.1533 -0.1885
  869loPI   C2B12894   4.089   1.675   6.691 -0.1055  0.0996  0.3977
  869loPI   C3B12895   4.011   1.677   7.147  0.0874 -0.0851  0.1078
  869loPI   C4B12896   3.931   1.710   7.608  0.4044  0.0044 -0.2517
  870loPI    C112897   0.468   0.381   5.080 -0.1298  0.1706 -0.0626
  870loPI    C212898   0.113   0.366   4.895  0.0831  0.0416 -0.4726
  870loPI    C312899   0.301   0.027   4.997 -0.1831  0.1070  0.3007
  870loPI   PO412900   0.466   0.566   5.307 -0.0092 -0.3288 -0.0557
  870loPI   GL112901   0.230   0.611   5.686 -0.0038 -0.1459 -0.1528
  870loPI   GL212902   0.435   0.899   5.711 -0.0090  0.2876  0.1067
  870loPI   C1A12903   0.086   0.361   5.984  0.1144  0.1681  0.2370
  870loPI   C2A12904   0.183   0.052   6.275 -0.1376 -0.0002 -0.3894
  870loPI   C3A12905   0.159   0.109   6.621  0.1710 -0.1240  0.2514
  870loPI   C4A12906   0.282   0.140   7.016  0.0267  0.0187  0.0078
  870loPI   C5A12907   0.259   0.170   7.475 -0.1784 -0.2078 -0.4156
  870loPI   C6A12908   0.093   0.505   7.645 -0.0357  0.0657  0.1975
  870loPI   C1B12909   0.334   0.867   6.093 -0.1643 -0.1227  0.1608
  870loPI   C2B12910   0.120   0.635   6.369 -0.0286 -0.0185  0.2105
  870loPI   C3B12911  -0.005   0.523   6.729 -0.3030 -0.1419  0.1951
  870loPI   C4B12912  -0.112   0.382   7.209  0.2957 -0.3483 -0.0585
  871loPI    C112913  14.143  10.331   5.305 -0.0195 -0.0138  0.1586
  871loPI    C212914  14.496  10.145   5.339  0.0680  0.1432  0.1153
  871loPI    C312915  14.473  10.498   5.152 -0.1552  0.0115 -0.1129
  871loPI   PO412916  13.949  10.290   5.553  0.4993 -0.0177  0.1661
  871loPI   GL112917  13.978  10.340   6.010  0.1116 -0.0009 -0.2491
  871loPI   GL212918  13.888  10.677   6.123 -0.1385 -0.1721 -0.0335
  871loPI   C1A12919  13.668  10.192   6.293  0.0176  0.0223 -0.2468
  871loPI   C2A12920  13.510  10.322   6.702 -0.0903  0.1403  0.0754
  871loPI   C3A12921  13.400  10.409   7.188  0.0569  0.0804 -0.0439
  871loPI   C4A12922  13.397  10.403   7.687  0.0996 -0.0181 -0.2868
  871loPI   C5A12923  13.476  10.286   8.082  0.2461 -0.0458  0.1291
  871loPI   C6A12924  13.431  10.403   8.513 -0.0764  0.2083 -0.1809
  871loPI   C1B12925  14.011  10.524   6.545  0.2122  0.1300  0.2613
  871loPI   C2B12926  13.880  10.572   6.940  0.0565 -0.1858 -0.3477
  871loPI   C3B12927  13.776  10.638   7.440 -0.2234 -0.0448 -0.3241
  871loPI   C4B12928  13.834  10.682   7.832 -0.4067 -0.4530  0.0295
  872loPI    C112929   9.548  12.676   5.756 -0.1046  0.2334 -0.0268
  872loPI    C212930   9.940  12.689   5.673 -0.0897  0.0474  0.0118
  872loPI    C312931   9.672  12.733   5.380 -0.0407  0.2242 -0.0073
  872loPI   PO412932   9.520  12.461   5.880 -0.2618  0.2070 -0.0605
  872loPI   GL112933   9.425  12.241   6.202 -0.1864 -0.1568  0.2897
  872loPI   GL212934   9.734  12.150   6.312  0.0189  0.0514  0.0587
  872loPI   C1A12935   9.254  12.351   6.489 -0.0761  0.0020  0.0704
  872loPI   C2A12936   9.137  12.493   6.858  0.2491 -0.1525 -0.2597
  872loPI   C3A12937   9.104  12.742   7.086 -0.0061 -0.1005 -0.3740
  872loPI   C4A12938   9.138  12.881   7.446 -0.1354  0.1274  0.3931
  872loPI   C5A12939   9.175  13.240   7.578 -0.0204 -0.0204 -0.1569
  872loPI   C6A12940   9.103  13.405   8.016 -0.0164 -0.0376  0.0695
  872loPI   C1B12941   9.856  12.222   6.734  0.0172  0.2371 -0.2291
  872loPI   C2B12942   9.895  12.297   7.089  0.0355 -0.2225  0.1288
  872loPI   C3B12943   9.951  12.319   7.438 -0.0103 -0.3818  0.3772
  872loPI   C4B12944   9.966  12.220   7.900 -0.1612  0.3624  0.0635
  873loPI    C112945   6.743   5.681   5.366 -0.0224  0.0441  0.2188
  873loPI    C212946   6.348   5.626   5.393 -0.0203  0.0020  0.1648
  873loPI    C312947   6.594   5.310   5.394  0.0159  0.0302  0.2411
  873loPI   PO412948   6.941   5.832   5.570  0.3862  0.2128 -0.1903
  873loPI   GL112949   7.025   6.016   5.961 -0.1367 -0.0235 -0.0470
  873loPI   GL212950   7.190   6.275   6.068  0.0982 -0.1003  0.0576
  873loPI   C1A12951   6.912   5.828   6.413  0.1289 -0.1107 -0.0640
  873loPI   C2A12952   7.071   5.946   6.904  0.2199 -0.4504  0.0547
  873loPI   C3A12953   7.155   5.926   7.365  0.0923 -0.1936  0.1126
  873loPI   C4A12954   7.374   5.854   7.863 -0.1459  0.2513  0.0380
  873loPI   C5A12955   7.552   5.590   8.077 -0.1061 -0.1806 -0.0307
  873loPI   C6A12956   7.604   5.656   8.444 -0.2382 -0.1596 -0.0966
  873loPI   C1B12957   7.203   6.281   6.585 -0.0070 -0.0128  0.0420
  873loPI   C2B12958   7.227   6.358   7.129  0.3164 -0.3287  0.0688
  873loPI   C3B12959   7.299   6.340   7.534  0.0443  0.2238  0.3814
  873loPI   C4B12960   7.335   6.361   7.985 -0.0744 -0.4467 -0.2432
  874loPI    C112961  12.448   5.509   6.144  0.0169 -0.3840 -0.1675
  874loPI    C212962  12.654   5.637   5.826  0.0756 -0.0488  0.0006
  874loPI    C312963  12.256   5.677   5.835  0.1218  0.4404  0.1880
  874loPI   PO412964  12.567   5.265   6.223 -0.1085  0.1967  0.0177
  874loPI   GL112965  12.518   5.171   6.658 -0.0783 -0.2031 -0.0624
  874loPI   GL212966  12.219   5.325   6.595 -0.0351 -0.1229  0.1482
  874loPI   C1A12967  12.484   5.153   7.099 -0.1095  0.1595  0.0216
  874loPI   C2A12968  12.605   5.257   7.495 -0.3854  0.0967  0.0230
  874loPI   C3A12969  12.743   5.463   7.835 -0.0507  0.2311  0.1204
  874loPI   C4A12970  13.056   5.298   8.129  0.1098  0.2389  0.1295
  874loPI   C5A12971  13.426   5.218   8.330  0.0134 -0.0058  0.1975
  874loPI   C6A12972  13.778   5.385   8.544  0.0197  0.2686  0.1598
  874loPI   C1B12973  12.302   5.632   6.974  0.0817  0.2598 -0.0348
  874loPI   C2B12974  12.453   5.753   7.451  0.0921  0.1202  0.2604
  874loPI   C3B12975  12.444   5.871   7.892 -0.1894  0.0208  0.1789
  874loPI   C4B12976  12.548   6.010   8.211 -0.0308 -0.0318  0.2853
  875loPI    C112977   4.340   0.264   5.594  0.1040 -0.0590  0.1436
  875loPI    C212978   4.147   0.100   5.284 -0.0238  0.1439  0.1146
  875loPI    C312979   4.074  -0.028   5.656  0.2192 -0.1849  0.0534
  875loPI   PO412980   4.346   0.590   5.565 -0.0845 -0.1999  0.1053
  875loPI   GL112981   4.355   0.962   5.914  0.2418 -0.0125  0.1013
  875loPI   GL212982   4.448   0.674   6.088  0.2109  0.0642  0.1343
  875loPI   C1A12983   4.432   1.212   6.326 -0.0278  0.0298  0.1333
  875loPI   C2A12984   4.603   1.132   6.785  0.0496 -0.0413  0.5336
  875loPI   C3A12985   4.685   1.037   7.206  0.0728  0.0699 -0.1173
  875loPI   C4A12986   4.621   1.056   7.610 -0.1946 -0.1817 -0.1896
  875loPI   C5A12987   4.926   1.028   7.977 -0.2647  0.2986  0.0806
  875loPI   C6A12988   5.243   0.818   8.207  0.0367  0.0906 -0.0727
  875loPI   C1B12989   4.347   0.664   6.548  0.1141  0.2419  0.1022
  875loPI   C2B12990   4.289   0.717   6.964  0.2539 -0.0730 -0.3598
  875loPI   C3B12991   4.168   0.886   7.397 -0.3362 -0.3056 -0.3336
  875loPI   C4B12992   4.052   1.088   7.711  0.1225  0.1427  0.5999
  876loPI    C112993   5.238   9.622   5.575  0.2209  0.0506 -0.0027
  876loPI    C212994   5.306   9.838   5.246 -0.2433  0.2504  0.0242
  876loPI    C312995   5.541   9.883   5.566  0.2555  0.0040 -0.2933
  876loPI   PO412996   4.977   9.642   5.710 -0.1602 -0.1277 -0.0030
  876loPI   GL112997   4.968   9.510   6.209  0.0936 -0.1477  0.2217
  876loPI   GL212998   5.242   9.722   6.321 -0.0658  0.1309 -0.1455
  876loPI   C1A12999   4.811   9.724   6.593 -0.1128 -0.1420 -0.2585
  876loPI   C2A13000   5.041   9.909   6.888  0.1033 -0.1251 -0.3237
  876loPI   C3A13001   5.123  10.217   7.094  0.2035 -0.1903  0.1123
  876loPI   C4A13002   5.117  10.179   7.645 -0.0843  0.0397  0.1918
  876loPI   C5A13003   5.156  10.122   8.006 -0.0926 -0.1169  0.0361
  876loPI   C6A13004   5.274   9.898   8.407 -0.1940 -0.1718 -0.2103
  876loPI   C1B13005   5.390  10.035   6.598  0.1542 -0.0990  0.1303
  876loPI   C2B13006   5.771  10.244   6.921  0.0516 -0.2381  0.0947
  876loPI   C3B13007   5.898  10.276   7.323 -0.2394  0.2114  0.1533
  876loPI   C4B13008   5.971  10.443   7.692 -0.0283  0.0882  0.1499
  877loPI    C113009   6.332  10.261   5.445  0.2138  0.2431 -0.1601
  877loPI    C213010   6.549   9.925   5.452  0.1093  0.1776 -0.0269
  877loPI    C313011   6.605  10.193   5.161  0.1203 -0.0039 -0.1936
  877loPI   PO413012   6.138  10.074   5.683  0.3687 -0.0325  0.1736
  877loPI   GL113013   5.946  10.289   6.118 -0.0308 -0.3126 -0.1694
  877loPI   GL213014   5.587  10.386   6.258 -0.0428  0.0303 -0.2736
  877loPI   C1A13015   6.236  10.092   6.590  0.2082 -0.0348  0.4002
  877loPI   C2A13016   6.249  10.082   7.019  0.1371  0.1567  0.4536
  877loPI   C3A13017   6.402  10.174   7.465  0.0271 -0.1466  0.1577
  877loPI   C4A13018   6.533  10.154   7.827 -0.1140  0.2801 -0.2403
  877loPI   C5A13019   6.835  10.232   8.121 -0.0582  0.2150 -0.2010
  877loPI   C6A13020   7.139  10.010   8.252 -0.1027 -0.0586 -0.0074
  877loPI   C1B13021   5.534  10.575   6.652 -0.1660 -0.2050 -0.1219
  877loPI   C2B13022   5.432  10.601   7.014  0.1278 -0.1791 -0.3203
  877loPI   C3B13023   5.553  10.712   7.474  0.0007  0.2336 -0.1203
  877loPI   C4B13024   5.543  10.486   7.928 -0.1822  0.1240 -0.1284
  878loPI    C113025   8.089  14.918   5.699 -0.0369 -0.1307 -0.0584
  878loPI    C213026   7.926  14.734   5.384 -0.1674  0.0517 -0.0989
  878loPI    C313027   7.957  15.133   5.389  0.2113  0.0257 -0.0587
  878loPI   PO413028   7.923  14.807   5.952  0.2645 -0.0877  0.0441
  878loPI   GL113029   8.015  14.922   6.402 -0.0043  0.0116  0.0804
  878loPI   GL213030   8.105  15.251   6.524 -0.2219 -0.2097  0.1516
  878loPI   C1A13031   8.139  14.825   6.779 -0.1828  0.0123 -0.2508
  878loPI   C2A13032   8.022  14.929   7.262 -0.1218  0.0135  0.2110
  878loPI   C3A13033   7.784  14.818   7.551  0.2496  0.2565 -0.2351
  878loPI   C4A13034   7.752  14.429   7.747  0.1652  0.1651  0.1487
  878loPI   C5A13035   7.989  14.124   7.888 -0.1219 -0.0500  0.1238
  878loPI   C6A13036   8.154  13.733   8.069  0.3576 -0.0184  0.0707
  878loPI   C1B13037   8.279  15.258   6.915  0.1884  0.1600  0.2466
  878loPI   C2B13038   8.443  15.154   7.385  0.0086  0.0043  0.1411
  878loPI   C3B13039   8.724  15.274   7.737  0.0385  0.2015 -0.0533
  878loPI   C4B13040   8.903  15.477   8.111  0.0548  0.1204 -0.0074
  879loPI    C113041  15.309   9.640   5.489 -0.2701 -0.0597 -0.1628
  879loPI    C213042  15.506   9.292   5.467 -0.2168 -0.0442  0.0495
  879loPI    C313043  15.185   9.355   5.237 -0.0564 -0.1222 -0.1994
  879loPI   PO413044  15.306   9.642   5.774 -0.2170 -0.1162 -0.2024
  879loPI   GL113045  15.457   9.544   6.171 -0.0538 -0.1965  0.1135
  879loPI   GL213046  15.714   9.752   6.156  0.0551 -0.1142  0.1473
  879loPI   C1A13047  15.452   9.545   6.601  0.0657 -0.1058 -0.0004
  879loPI   C2A13048  15.333   9.655   6.990 -0.0557 -0.1189 -0.0142
  879loPI   C3A13049  15.395   9.589   7.406 -0.1694 -0.0808 -0.0997
  879loPI   C4A13050  15.319   9.598   7.784 -0.1536 -0.0442 -0.1509
  879loPI   C5A13051  15.064   9.492   8.063  0.0432  0.1135 -0.0211
  879loPI   C6A13052  14.911   9.302   8.395  0.0862 -0.4417 -0.1053
  879loPI   C1B13053  15.476  10.010   6.412  0.0255  0.2664 -0.1081
  879loPI   C2B13054  15.502  10.099   6.800  0.0751 -0.2544 -0.0357
  879loPI   C3B13055  15.531  10.168   7.173  0.1041  0.2608 -0.0851
  879loPI   C4B13056  15.538  10.039   7.615  0.2575 -0.2075  0.1806
  880loPI    C113057  12.358  16.671   5.053  0.0477 -0.2007 -0.1421
  880loPI    C213058  12.003  16.490   5.014 -0.0997  0.0509  0.0057
  880loPI    C313059  12.100  16.795   4.773  0.1540 -0.2275 -0.2528
  880loPI   PO413060  12.350  16.715   5.331 -0.0391  0.1911 -0.2879
  880loPI   GL113061  12.670  16.787   5.673 -0.1272  0.3086 -0.1259
  880loPI   GL213062  12.573  16.532   5.797 -0.2276  0.3696 -0.2823
  880loPI   C1A13063  12.595  17.022   6.097  0.0751 -0.0297  0.1900
  880loPI   C2A13064  12.513  17.228   6.407 -0.1669 -0.1422 -0.2179
  880loPI   C3A13065  12.543  17.268   6.841  0.2552 -0.1781  0.0731
  880loPI   C4A13066  12.551  17.283   7.249  0.0165 -0.1848  0.1911
  880loPI   C5A13067  12.631  17.282   7.648  0.2590 -0.1135 -0.1835
  880loPI   C6A13068  12.726  16.975   7.893 -0.0332 -0.0085 -0.0405
  880loPI   C1B13069  12.613  16.506   6.150  0.0903 -0.1153 -0.1467
  880loPI   C2B13070  12.704  16.691   6.568 -0.3603 -0.1149 -0.0815
  880loPI   C3B13071  12.800  16.819   6.966 -0.0199 -0.0290 -0.0793
  880loPI   C4B13072  12.856  16.806   7.384  0.2851 -0.3303 -0.0373
  881loPI    C113073   6.657   8.298   5.851 -0.1172  0.1071 -0.0702
  881loPI    C213074   6.373   8.263   5.572 -0.0603  0.2330 -0.1447
  881loPI    C313075   6.700   8.482   5.498 -0.0191  0.2209  0.0002
  881loPI   PO413076   6.524   8.298   6.086 -0.0722  0.0944 -0.2199
  881loPI   GL113077   6.449   8.097   6.390 -0.0392 -0.0449 -0.0494
  881loPI   GL213078   6.312   7.858   6.447  0.0318 -0.0221 -0.0498
  881loPI   C1A13079   6.811   8.090   6.759  0.0721 -0.1595  0.0772
  881loPI   C2A13080   7.161   7.925   6.912 -0.0119 -0.0265  0.1447
  881loPI   C3A13081   7.542   7.873   7.186 -0.2058 -0.0252  0.0989
  881loPI   C4A13082   7.779   7.754   7.580  0.2214  0.1145  0.0554
  881loPI   C5A13083   7.797   7.926   8.034  0.0489  0.0309  0.1046
  881loPI   C6A13084   7.781   7.633   8.450  0.0372  0.0526  0.0840
  881loPI   C1B13085   6.284   7.771   6.864 -0.4782 -0.2890 -0.1229
  881loPI   C2B13086   6.043   7.834   7.234  0.1812  0.0683  0.1986
  881loPI   C3B13087   5.855   7.795   7.633  0.1554  0.1253 -0.0759
  881loPI   C4B13088   5.507   7.800   7.972  0.1194  0.2023 -0.2479
  882loPI    C113089   7.225  10.263   5.687  0.1434  0.0176 -0.0270
  882loPI    C213090   7.053  10.044   5.400  0.1382  0.0356 -0.0377
  882loPI    C313091   7.452  10.066   5.423  0.1422 -0.1624  0.1043
  882loPI   PO413092   7.158  10.194   5.946  0.3970 -0.3526 -0.2046
  882loPI   GL113093   7.289  10.183   6.254 -0.1822 -0.3760  0.0636
  882loPI   GL213094   7.627  10.022   6.433  0.4026 -0.1343  0.0220
  882loPI   C1A13095   7.155  10.192   6.760 -0.1081 -0.0983  0.1768
  882loPI   C2A13096   7.150  10.405   7.082  0.2705 -0.3742 -0.1224
  882loPI   C3A13097   7.269  10.602   7.374 -0.0036  0.2250 -0.0465
  882loPI   C4A13098   7.654  10.836   7.543 -0.1320 -0.1359  0.1826
  882loPI   C5A13099   7.878  11.222   7.723  0.0245  0.2401  0.0431
  882loPI   C6A13100   8.110  11.328   8.063  0.3057 -0.0819 -0.0783
  882loPI   C1B13101   7.674   9.999   6.845 -0.2476  0.4726  0.1519
  882loPI   C2B13102   7.603  10.162   7.253  0.3172  0.0501 -0.1678
  882loPI   C3B13103   7.723  10.306   7.633  0.0310  0.1310 -0.1013
  882loPI   C4B13104   7.978  10.374   8.079  0.0730  0.2756  0.0112
  883loPI    C113105   1.497   8.038   5.427  0.1267 -0.1186 -0.1202
  883loPI    C213106   1.583   7.965   5.043 -0.0962  0.1724 -0.2289
  883loPI    C313107   1.502   8.339   5.162  0.0516  0.0967  0.1188
  883loPI   PO413108   1.691   7.847   5.595 -0.0943 -0.1159  0.1235
  883loPI   GL113109   1.578   7.617   5.991 -0.4162 -0.1358 -0.0749
  883loPI   GL213110   1.595   7.902   6.259  0.0270  0.0568 -0.0633
  883loPI   C1A13111   1.820   7.586   6.484 -0.1102  0.1231  0.1550
  883loPI   C2A13112   1.800   7.339   6.824 -0.2350  0.1471  0.0735
  883loPI   C3A13113   1.810   7.354   7.351 -0.2649 -0.2031  0.0599
  883loPI   C4A13114   1.798   7.274   7.729  0.1723 -0.3679  0.3308
  883loPI   C5A13115   2.037   7.194   8.165 -0.0485  0.2381  0.0108
  883loPI   C6A13116   2.091   7.321   8.539 -0.3749 -0.1836 -0.1093
  883loPI   C1B13117   1.667   7.944   6.819  0.0531  0.0970  0.1348
  883loPI   C2B13118   1.893   7.875   7.216  0.0969 -0.1758 -0.1662
  883loPI   C3B13119   1.981   7.754   7.701 -0.1630 -0.0561  0.2898
  883loPI   C4B13120   2.028   7.695   8.066  0.0443 -0.2205 -0.2110
  884loPI    C113121  17.937   9.114   5.741 -0.0880 -0.0481 -0.0254
  884loPI    C213122  17.563   8.987   5.802 -0.1823  0.1941 -0.0888
  884loPI    C313123  17.658   9.172   5.460 -0.0318  0.2343 -0.0259
  884loPI   PO413124  18.029   9.200   5.922 -0.1837  0.1578  0.2272
  884loPI   GL113125  18.127   9.222   6.331 -0.1765 -0.2872  0.0282
  884loPI   GL213126  18.349   9.464   6.379  0.3004  0.1572 -0.4096
  884loPI   C1A13127  18.177   9.158   6.781  0.0916  0.3581  0.1196
  884loPI   C2A13128  18.010   8.956   7.163  0.0658 -0.3760  0.2461
  884loPI   C3A13129  18.096   8.777   7.464 -0.1403  0.0921  0.1574
  884loPI   C4A13130  18.044   8.705   7.931  0.0348 -0.0101  0.2160
  884loPI   C5A13131  18.018   8.574   8.314  0.2518  0.1424  0.0013
  884loPI   C6A13132  17.650   8.366   8.535  0.2061  0.1700  0.0434
  884loPI   C1B13133  18.476   9.529   6.809  0.2094 -0.2168 -0.1745
  884loPI   C2B13134  18.389   9.369   7.218  0.2395 -0.3740  0.1494
  884loPI   C3B13135  18.364   9.155   7.684 -0.0202  0.0066 -0.0622
  884loPI   C4B13136  18.420   8.986   8.187  0.0678 -0.2061 -0.5339
  885loPI    C113137  13.221  14.416   5.472 -0.1716  0.1612  0.0635
  885loPI    C213138  13.179  14.496   5.082 -0.2448 -0.2797 -0.0247
  885loPI    C313139  12.857  14.485   5.320 -0.2203 -0.1872  0.0132
  885loPI   PO413140  13.440  14.520   5.511  0.1152 -0.0335 -0.2135
  885loPI   GL113141  13.736  14.756   5.771 -0.1339 -0.1579  0.0831
  885loPI   GL213142  14.053  14.887   5.864  0.2114  0.0148  0.0963
  885loPI   C1A13143  13.725  14.898   6.228  0.0135 -0.0337 -0.0169
  885loPI   C2A13144  13.835  14.868   6.592  0.0227  0.2204 -0.0872
  885loPI   C3A13145  13.814  14.873   7.067  0.4499 -0.0674 -0.1072
  885loPI   C4A13146  13.920  14.883   7.524  0.1241  0.0740  0.1690
  885loPI   C5A13147  14.082  15.212   7.767 -0.4756  0.1771  0.1720
  885loPI   C6A13148  13.818  15.504   8.009  0.3748 -0.1663 -0.2565
  885loPI   C1B13149  14.234  14.835   6.288 -0.0983 -0.0963 -0.0785
  885loPI   C2B13150  14.370  14.868   6.743  0.1898  0.0059 -0.0655
  885loPI   C3B13151  14.632  14.964   7.124 -0.3683  0.1075 -0.1474
  885loPI   C4B13152  14.530  15.115   7.595  0.3703  0.1120 -0.1546
  886loPI    C113153   4.924   5.081   5.195 -0.1644  0.2508  0.0521
  886loPI    C213154   4.989   4.733   5.009  0.0615  0.1752  0.2669
  886loPI    C313155   4.663   4.948   4.922 -0.0206 -0.0324  0.0491
  886loPI   PO413156   4.933   5.034   5.479  0.0191 -0.0881 -0.2790
  886loPI   GL113157   5.065   5.174   5.889  0.0797 -0.1091 -0.1026
  886loPI   GL213158   5.303   5.320   6.026  0.1063  0.2186 -0.1822
  886loPI   C1A13159   4.916   4.997   6.279 -0.0733  0.0868  0.2467
  886loPI   C2A13160   4.890   4.904   6.685  0.0077 -0.0597  0.3215
  886loPI   C3A13161   5.028   4.917   7.082  0.1984  0.0799 -0.2653
  886loPI   C4A13162   5.235   4.940   7.495 -0.0989  0.2793  0.3362
  886loPI   C5A13163   5.168   4.917   7.850 -0.1024 -0.0393  0.1073
  886loPI   C6A13164   5.065   4.952   8.247  0.0941  0.2315 -0.0254
  886loPI   C1B13165   5.245   5.358   6.475  0.1238  0.3861 -0.1552
  886loPI   C2B13166   5.171   5.372   6.897  0.3169 -0.1939  0.1631
  886loPI   C3B13167   5.305   5.382   7.290  0.0828 -0.0722  0.4414
  886loPI   C4B13168   5.474   5.410   7.630  0.1755 -0.2050 -0.0164
  887loPI    C113169   0.085   5.340   5.820 -0.0449 -0.3073  0.2281
  887loPI    C213170  -0.153   5.353   5.499  0.0963  0.1004  0.1337
  887loPI    C313171   0.016   5.008   5.609 -0.1181 -0.0845 -0.1062
  887loPI   PO413172   0.020   5.487   6.000 -0.0083  0.1077 -0.4651
  887loPI   GL113173  -0.094   5.381   6.338 -0.0206 -0.1054 -0.0795
  887loPI   GL213174  -0.145   5.119   6.513  0.1826 -0.2518  0.0554
  887loPI   C1A13175  -0.208   5.625   6.736 -0.0853  0.0957 -0.0883
  887loPI   C2A13176  -0.152   5.719   7.189 -0.0575  0.3022 -0.0459
  887loPI   C3A13177   0.012   5.624   7.593  0.0188 -0.0032 -0.0921
  887loPI   C4A13178  -0.209   5.638   7.970 -0.0513 -0.3569  0.1197
  887loPI   C5A13179  -0.499   5.442   8.212 -0.1169 -0.2217  0.0687
  887loPI   C6A13180  -0.924   5.315   8.215  0.0059  0.0748 -0.0211
  887loPI   C1B13181  -0.222   5.148   6.982  0.0791 -0.0440 -0.1381
  887loPI   C2B13182  -0.194   5.240   7.389 -0.1262 -0.0295 -0.0628
  887loPI   C3B13183  -0.357   5.060   7.882  0.1178 -0.0654  0.0642
  887loPI   C4B13184  -0.740   4.886   8.070  0.0199  0.0280 -0.1574
  888loPI    C113185  11.662  10.064   5.392 -0.3085  0.0706  0.2357
  888loPI    C213186  11.568  10.421   5.238 -0.1407  0.0462  0.0731
  888loPI    C313187  11.673  10.120   4.996  0.2099  0.0316  0.2378
  888loPI   PO413188  11.911  10.200   5.628 -0.2680  0.1700 -0.0680
  888loPI   GL113189  11.981  10.002   6.045  0.1835 -0.1028  0.1244
  888loPI   GL213190  12.325   9.973   6.078  0.0538 -0.1336  0.1403
  888loPI   C1A13191  12.083   9.628   6.340 -0.2060  0.3460  0.1761
  888loPI   C2A13192  12.070   9.274   6.632 -0.1350 -0.0783  0.0408
  888loPI   C3A13193  12.123   9.199   7.022  0.2872 -0.0656  0.0413
  888loPI   C4A13194  12.178   9.195   7.435 -0.0860 -0.0319 -0.1038
  888loPI   C5A13195  12.124   8.872   7.766 -0.2289 -0.0996 -0.1769
  888loPI   C6A13196  12.460   8.733   8.073 -0.1168 -0.2021 -0.1583
  888loPI   C1B13197  12.295  10.071   6.435 -0.0188  0.1585 -0.1672
  888loPI   C2B13198  12.194   9.775   6.790 -0.2625 -0.1502  0.0093
  888loPI   C3B13199  12.217   9.657   7.177  0.2182 -0.1410  0.1240
  888loPI   C4B13200  12.355   9.673   7.572 -0.1332 -0.0525 -0.0393
  889loPI    C113201  12.481   7.218   5.859  0.1921  0.2513 -0.3063
  889loPI    C213202  12.196   7.432   6.040  0.0721 -0.1312 -0.0309
  889loPI    C313203  12.206   7.411   5.641 -0.2284 -0.0374 -0.0459
  889loPI   PO413204  12.704   7.261   6.116  0.2566 -0.1683  0.1477
  889loPI   GL113205  12.747   7.380   6.569  0.0211 -0.1108 -0.1443
  889loPI   GL213206  12.387   7.314   6.541 -0.1134  0.3838  0.0431
  889loPI   C1A13207  12.887   7.428   6.959  0.0747  0.3460  0.0292
  889loPI   C2A13208  12.937   7.157   7.260 -0.1952 -0.0810  0.0310
  889loPI   C3A13209  13.106   7.247   7.595  0.1411  0.2203 -0.1844
  889loPI   C4A13210  13.156   7.156   7.953 -0.3207 -0.3803 -0.0750
  889loPI   C5A13211  13.145   6.697   8.131  0.1552  0.0718  0.1665
  889loPI   C6A13212  13.025   6.369   8.364 -0.0553 -0.1283 -0.0177
  889loPI   C1B13213  12.429   7.139   6.957  0.0797  0.0240  0.0167
  889loPI   C2B13214  12.561   6.855   7.212  0.2173 -0.0109  0.0726
  889loPI   C3B13215  12.610   6.459   7.520  0.0572  0.3052 -0.1785
  889loPI   C4B13216  12.807   6.352   7.916 -0.0797 -0.0566 -0.0609
  890loPI    C113217   3.346   9.894   6.320 -0.1183 -0.0929  0.2135
  890loPI    C213218   3.026  10.132   6.292 -0.0159  0.0352  0.1195
  890loPI    C313219   3.368  10.235   6.111 -0.0210 -0.2692 -0.0706
  890loPI   PO413220   3.235   9.665   6.171 -0.2657 -0.1879  0.1857
  890loPI   GL113221   2.782   9.659   6.346 -0.0128  0.0345 -0.2351
  890loPI   GL213222   2.889   9.400   6.450 -0.0493 -0.0038  0.1587
  890loPI   C1A13223   2.952   9.862   6.716 -0.2304 -0.0258  0.1761
  890loPI   C2A13224   3.036   9.690   7.149 -0.1350  0.1502 -0.2569
  890loPI   C3A13225   3.213   9.622   7.570  0.0290 -0.2993 -0.3586
  890loPI   C4A13226   3.520   9.439   7.846  0.0047  0.3012 -0.0953
  890loPI   C5A13227   3.505   9.018   7.900 -0.2062 -0.0403 -0.3423
  890loPI   C6A13228   3.499   8.679   8.275  0.2124  0.1444 -0.0114
  890loPI   C1B13229   2.832   9.299   6.853 -0.0615 -0.0171 -0.0230
  890loPI   C2B13230   2.897   9.085   7.233 -0.2322 -0.1584  0.0802
  890loPI   C3B13231   3.082   9.188   7.628 -0.0743 -0.0257  0.0547
  890loPI   C4B13232   3.060   8.809   7.962  0.0635  0.1362 -0.0572
  891loPI    C113233   1.186   9.615   5.454 -0.2093  0.1816 -0.1995
  891loPI    C213234   1.236   9.934   5.690 -0.0359  0.1267 -0.1611
  891loPI    C313235   0.888   9.878   5.501 -0.2415  0.0776  0.2215
  891loPI   PO413236   1.260   9.406   5.582  0.2529 -0.0487 -0.0971
  891loPI   GL113237   1.418   9.332   6.056  0.0435 -0.0150 -0.2864
  891loPI   GL213238   1.278   9.579   6.077 -0.1292 -0.2084  0.0036
  891loPI   C1A13239   1.426   9.336   6.506  0.1353 -0.1467 -0.1101
  891loPI   C2A13240   1.628   9.586   6.841 -0.2109  0.3200  0.1740
  891loPI   C3A13241   1.556   9.765   7.236 -0.2273  0.1502 -0.0442
  891loPI   C4A13242   1.734   9.710   7.645  0.0726  0.0153 -0.2134
  891loPI   C5A13243   1.581   9.942   7.976 -0.1238 -0.1858 -0.2483
  891loPI   C6A13244   1.138  10.019   8.138  0.1208 -0.2945  0.1929
  891loPI   C1B13245   1.310   9.811   6.523  0.2244 -0.1868  0.0041
  891loPI   C2B13246   1.235   9.928   6.893  0.1787 -0.3597 -0.1076
  891loPI   C3B13247   1.162  10.103   7.287  0.0252  0.2014 -0.2126
  891loPI   C4B13248   1.234  10.084   7.684  0.0054 -0.0368 -0.0141
  892loPI    C113249  10.730  16.554   5.445 -0.0910  0.1124  0.0874
  892loPI    C213250  10.420  16.786   5.345 -0.1769 -0.0866 -0.1185
  892loPI    C313251  10.571  16.529   5.078 -0.0371 -0.2165  0.0831
  892loPI   PO413252  10.761  16.301   5.568  0.0611  0.0697 -0.0399
  892loPI   GL113253  10.994  16.089   5.877  0.0904 -0.1134  0.1443
  892loPI   GL213254  11.005  16.464   5.959 -0.1549  0.0789  0.0421
  892loPI   C1A13255  10.977  16.047   6.280 -0.2201 -0.2033 -0.0311
  892loPI   C2A13256  11.136  16.092   6.625  0.0190  0.3222 -0.2521
  892loPI   C3A13257  11.307  16.402   6.796 -0.0610  0.0413 -0.1861
  892loPI   C4A13258  11.400  16.435   7.245  0.1323  0.1679 -0.0812
  892loPI   C5A13259  11.467  16.519   7.614  0.1922  0.0787  0.1445
  892loPI   C6A13260  11.712  16.388   7.932  0.1034 -0.0002 -0.1971
  892loPI   C1B13261  10.961  16.506   6.443  0.4872 -0.0524  0.3282
  892loPI   C2B13262  10.763  16.296   6.857 -0.1227 -0.0161  0.0676
  892loPI   C3B13263  10.794  16.438   7.206  0.4597 -0.1014 -0.1655
  892loPI   C4B13264  10.648  16.610   7.581  0.1083 -0.0842  0.2831
  893loPI    C113265  14.702  17.154   5.232  0.0360  0.0821  0.0824
  893loPI    C213266  14.876  16.907   4.969 -0.0490  0.0358  0.0693
  893loPI    C313267  14.558  17.124   4.860 -0.1719 -0.0897  0.1750
  893loPI   PO413268  14.703  17.094   5.473  0.3827 -0.0552 -0.0670
  893loPI   GL113269  14.707  16.877   5.734  0.0385  0.1622 -0.1812
  893loPI   GL213270  14.763  16.628   5.862  0.2648 -0.1167 -0.1687
  893loPI   C1A13271  14.573  17.033   6.116 -0.1593  0.0910 -0.0046
  893loPI   C2A13272  14.723  17.069   6.446 -0.0516  0.0608 -0.1127
  893loPI   C3A13273  14.616  17.114   6.859 -0.1989 -0.2034  0.0183
  893loPI   C4A13274  14.779  16.981   7.175 -0.0936 -0.1343 -0.3122
  893loPI   C5A13275  14.836  16.861   7.614  0.1203  0.0697 -0.0870
  893loPI   C6A13276  14.518  16.895   7.951 -0.3904 -0.1835 -0.3394
  893loPI   C1B13277  14.881  16.604   6.250 -0.2089 -0.0546 -0.0249
  893loPI   C2B13278  14.919  16.685   6.708  0.1157 -0.0936 -0.0975
  893loPI   C3B13279  15.251  16.774   7.095 -0.1153  0.2661 -0.0504
  893loPI   C4B13280  15.616  16.634   7.220 -0.0698  0.1019  0.0873
  894loPI    C113281   3.799  15.711   5.512  0.2085  0.3205  0.1314
  894loPI    C213282   3.780  15.797   5.121  0.1205 -0.1061  0.0366
  894loPI    C313283   4.026  15.510   5.251 -0.1522 -0.2532  0.2405
  894loPI   PO413284   3.727  15.933   5.600  0.1266 -0.1304  0.0230
  894loPI   GL113285   3.581  16.147   5.869  0.0494 -0.1523 -0.1117
  894loPI   GL213286   3.819  16.038   6.074  0.0782 -0.2256  0.0075
  894loPI   C1A13287   3.227  16.213   6.048 -0.1164 -0.0252  0.0564
  894loPI   C2A13288   3.031  16.286   6.440 -0.0218  0.3280 -0.0749
  894loPI   C3A13289   3.004  16.291   6.953 -0.0466  0.0782  0.0181
  894loPI   C4A13290   2.900  16.502   7.369  0.0638 -0.0897  0.0211
  894loPI   C5A13291   2.934  16.687   7.802 -0.3836 -0.3595  0.2807
  894loPI   C6A13292   2.717  16.980   8.062  0.2002  0.5047  0.3048
  894loPI   C1B13293   3.494  15.996   6.474  0.1142 -0.0803  0.2454
  894loPI   C2B13294   3.444  16.046   6.968  0.0633 -0.1287 -0.0051
  894loPI   C3B13295   3.336  16.279   7.407 -0.0271 -0.2206  0.3829
  894loPI   C4B13296   3.394  16.397   7.880 -0.0160 -0.0373 -0.0910
  895loPI    C113297   4.364  10.523   5.737  0.1407  0.2013 -0.0240
  895loPI    C213298   4.038  10.637   5.535  0.1680  0.2034 -0.0670
  895loPI    C313299   4.127  10.248   5.567 -0.0388  0.1791  0.2566
  895loPI   PO413300   4.344  10.612   5.947 -0.1933 -0.0551 -0.1108
  895loPI   GL113301   4.446  10.681   6.334 -0.1534  0.2353 -0.0745
  895loPI   GL213302   4.146  10.494   6.388 -0.2804  0.0759 -0.3660
  895loPI   C1A13303   4.784  10.908   6.506  0.2171  0.0219  0.1204
  895loPI   C2A13304   4.861  11.297   6.815 -0.1397 -0.1163  0.0133
  895loPI   C3A13305   4.783  11.302   7.188  0.0320  0.1367 -0.0659
  895loPI   C4A13306   4.610  11.331   7.621 -0.3362  0.0069  0.0500
  895loPI   C5A13307   4.889  11.403   8.006  0.0576  0.0558 -0.1239
  895loPI   C6A13308   4.782  11.659   8.448  0.0802 -0.1362 -0.2452
  895loPI   C1B13309   4.251  10.568   6.784 -0.1266 -0.3862 -0.0919
  895loPI   C2B13310   4.261  10.568   7.298 -0.2601  0.0077  0.0928
  895loPI   C3B13311   4.386  10.620   7.709  0.0525  0.1242 -0.0322
  895loPI   C4B13312   4.614  10.921   8.004  0.2576  0.0808 -0.2306
  896loPI    C113313  12.321  14.116   4.995  0.0759 -0.2343 -0.1960
  896loPI    C213314  11.940  14.155   4.879  0.0591  0.3333  0.0173
  896loPI    C313315  12.216  14.025   4.620 -0.2632 -0.0277 -0.1556
  896loPI   PO413316  12.457  14.354   5.081  0.2814  0.0326 -0.0423
  896loPI   GL113317  12.371  14.466   5.571  0.3385 -0.1457  0.0098
  896loPI   GL213318  12.483  14.213   5.785  0.0413 -0.0363 -0.3415
  896loPI   C1A13319  12.333  14.745   5.953 -0.0378  0.0374 -0.1204
  896loPI   C2A13320  12.326  14.841   6.335 -0.2207  0.1974 -0.3429
  896loPI   C3A13321  12.437  14.840   6.783 -0.0888 -0.4628 -0.1132
  896loPI   C4A13322  12.504  14.776   7.229  0.0095  0.1546  0.1606
  896loPI   C5A13323  12.437  14.764   7.664 -0.3087  0.0614 -0.2327
  896loPI   C6A13324  12.621  14.612   7.976  0.0281  0.1149  0.0070
  896loPI   C1B13325  12.439  14.306   6.243  0.0830  0.0721  0.3367
  896loPI   C2B13326  12.544  14.310   6.619 -0.1756  0.0923 -0.1144
  896loPI   C3B13327  12.598  14.321   6.956  0.0387  0.1151 -0.0799
  896loPI   C4B13328  12.635  14.318   7.529  0.0129  0.2047  0.2283
  897loPI    C113329   8.007   4.801   5.491 -0.1201 -0.0441  0.0081
  897loPI    C213330   7.984   4.969   5.129 -0.2313 -0.0562  0.0093
  897loPI    C313331   8.297   5.046   5.365 -0.1413 -0.0752 -0.1025
  897loPI   PO413332   7.875   4.617   5.398 -0.2065 -0.0431  0.0382
  897loPI   GL113333   7.784   4.295   5.679 -0.0113 -0.2850  0.3405
  897loPI   GL213334   7.523   4.136   5.742 -0.0899  0.0111  0.1894
  897loPI   C1A13335   7.823   4.218   6.123 -0.2217  0.1408 -0.0977
  897loPI   C2A13336   7.711   4.110   6.502 -0.2239 -0.1836  0.2166
  897loPI   C3A13337   7.709   4.093   6.969  0.2590 -0.2172 -0.2961
  897loPI   C4A13338   7.364   4.107   7.220 -0.0049 -0.1860 -0.1781
  897loPI   C5A13339   7.163   4.153   7.626 -0.0209 -0.2763 -0.1361
  897loPI   C6A13340   7.204   3.749   7.912 -0.1512 -0.0481 -0.1404
  897loPI   C1B13341   7.364   4.429   6.122 -0.3325  0.1366  0.0651
  897loPI   C2B13342   7.257   4.754   6.252  0.2267 -0.0704 -0.2734
  897loPI   C3B13343   7.062   4.929   6.579 -0.0117 -0.0284  0.2313
  897loPI   C4B13344   6.781   5.104   6.935 -0.1310 -0.1305  0.1013
  898loPI    C113345   7.424   3.614   5.089  0.2183 -0.1137  0.2805
  898loPI    C213346   7.555   3.495   4.731  0.0243  0.0027  0.1695
  898loPI    C313347   7.768   3.758   4.943 -0.0889  0.2903 -0.0670
  898loPI   PO413348   7.433   3.402   5.254 -0.0023  0.1881 -0.1308
  898loPI   GL113349   7.796   3.123   5.440  0.0208 -0.0397  0.1118
  898loPI   GL213350   7.800   3.318   5.740  0.2688  0.0564  0.0649
  898loPI   C1A13351   7.553   2.880   5.751  0.1500  0.2102  0.0430
  898loPI   C2A13352   7.451   2.892   6.204 -0.0792 -0.1719  0.0379
  898loPI   C3A13353   7.437   2.780   6.585 -0.0297 -0.2901 -0.1080
  898loPI   C4A13354   7.297   2.817   6.973 -0.1725  0.2128  0.2658
  898loPI   C5A13355   7.340   2.805   7.404  0.3594 -0.1048 -0.3026
  898loPI   C6A13356   7.369   2.886   7.793 -0.0035 -0.2114 -0.0187
  898loPI   C1B13357   7.760   3.251   6.198  0.2142 -0.0985 -0.0705
  898loPI   C2B13358   7.725   3.182   6.593 -0.1585  0.1857 -0.2415
  898loPI   C3B13359   7.657   3.181   7.074 -0.3686 -0.1685 -0.3543
  898loPI   C4B13360   7.607   3.186   7.504 -0.2956 -0.1345 -0.1008
  899loPI    C113361   6.815   4.040   5.034  0.0252  0.1643 -0.0959
  899loPI    C213362   6.736   4.161   4.661  0.1253  0.0846 -0.1434
  899loPI    C313363   7.106   4.045   4.759  0.0749  0.0044 -0.0470
  899loPI   PO413364   6.603   3.922   5.128  0.0359 -0.0638 -0.0427
  899loPI   GL113365   6.623   3.892   5.543 -0.1304 -0.0661  0.2179
  899loPI   GL213366   6.697   3.523   5.638  0.0474  0.2467 -0.0646
  899loPI   C1A13367   6.556   3.831   6.051 -0.1824 -0.0721  0.4856
  899loPI   C2A13368   6.514   3.855   6.530 -0.1120  0.3034  0.0823
  899loPI   C3A13369   6.408   3.904   6.998 -0.4157 -0.0557 -0.2573
  899loPI   C4A13370   6.349   3.800   7.457 -0.0711  0.1993  0.0353
  899loPI   C5A13371   6.656   3.544   7.735 -0.1291  0.1367 -0.0421
  899loPI   C6A13372   6.663   3.394   8.134  0.2166  0.2089  0.0009
  899loPI   C1B13373   6.790   3.375   5.982 -0.2045 -0.1543  0.0264
  899loPI   C2B13374   6.738   3.427   6.416 -0.2214 -0.2529  0.0477
  899loPI   C3B13375   6.688   3.428   6.851  0.2691 -0.0058 -0.2031
  899loPI   C4B13376   6.633   3.349   7.262 -0.1323  0.1032 -0.0580
  900loPI    C113377   2.433  11.932   5.046 -0.0401  0.0987 -0.1485
  900loPI    C213378   2.155  11.685   4.901 -0.0067 -0.1264  0.1609
  900loPI    C313379   2.152  12.072   4.798 -0.2872 -0.1753 -0.0279
  900loPI   PO413380   2.469  11.791   5.326 -0.0740 -0.1406  0.1259
  900loPI   GL113381   2.252  11.827   5.676 -0.1946  0.0287 -0.2164
  900loPI   GL213382   2.324  11.863   5.899 -0.2504 -0.1983 -0.0297
  900loPI   C1A13383   1.849  12.055   5.945 -0.0420 -0.2370 -0.1049
  900loPI   C2A13384   1.753  12.285   6.346  0.0406  0.2247 -0.0164
  900loPI   C3A13385   1.766  12.380   6.730  0.0279 -0.0758 -0.2131
  900loPI   C4A13386   1.703  12.335   7.144  0.1762  0.2493  0.1242
  900loPI   C5A13387   1.752  12.367   7.562 -0.0793 -0.0578 -0.0050
  900loPI   C6A13388   1.737  12.195   7.918  0.0428 -0.0708  0.3089
  900loPI   C1B13389   2.178  12.086   6.292 -0.0718  0.1512 -0.3294
  900loPI   C2B13390   2.114  11.987   6.658  0.1158  0.1363 -0.2436
  900loPI   C3B13391   2.103  12.072   7.107 -0.0656  0.1868  0.1504
  900loPI   C4B13392   2.105  12.083   7.592  0.0736 -0.2413 -0.5079
  901loPI    C113393  10.168  10.758   5.275 -0.0647 -0.1268  0.3932
  901loPI    C213394  10.165  11.153   5.208  0.3071 -0.1698  0.0887
  901loPI    C313395   9.859  10.980   5.399 -0.0216  0.2115 -0.0785
  901loPI   PO413396  10.389  10.758   5.421 -0.1429 -0.2571  0.2925
  901loPI   GL113397  10.296  10.682   5.748 -0.1865 -0.2874 -0.0688
  901loPI   GL213398  10.006  10.678   5.856 -0.0213 -0.0757  0.1998
  901loPI   C1A13399  10.312  11.017   6.157 -0.0648 -0.0503  0.0324
  901loPI   C2A13400  10.345  10.992   6.580  0.0038  0.1776  0.1213
  901loPI   C3A13401  10.523  11.026   6.970 -0.2334 -0.1400 -0.1537
  901loPI   C4A13402  10.740  11.126   7.358 -0.0038 -0.1693 -0.0055
  901loPI   C5A13403  10.856  11.200   7.750 -0.1578 -0.3576  0.1061
  901loPI   C6A13404  10.851  11.156   8.184 -0.1755 -0.0055 -0.1665
  901loPI   C1B13405   9.804  10.707   6.171 -0.2212  0.1176  0.0770
  901loPI   C2B13406   9.906  10.758   6.573 -0.2069 -0.2170 -0.2648
  901loPI   C3B13407  10.102  10.716   6.993 -0.0721 -0.0646  0.1437
  901loPI   C4B13408  10.192  10.950   7.410  0.3629  0.1811  0.0028
  902loPI    C113409   1.288   6.779   5.755  0.0894  0.2143  0.0554
  902loPI    C213410   0.918   6.636   5.799  0.2045 -0.0542  0.1751
  902loPI    C313411   0.988   6.932   5.538 -0.0654 -0.1070  0.0380
  902loPI   PO413412   1.376   6.509   5.838 -0.1436 -0.2656  0.0141
  902loPI   GL113413   1.331   6.324   6.139  0.2428 -0.1619 -0.3779
  902loPI   GL213414   1.223   6.765   6.248 -0.0764  0.0021 -0.5096
  902loPI   C1A13415   1.128   6.115   6.481  0.0138  0.2746 -0.1439
  902loPI   C2A13416   1.129   5.986   6.863 -0.2578 -0.0227  0.2232
  902loPI   C3A13417   1.385   5.831   7.250  0.1328  0.0068 -0.0986
  902loPI   C4A13418   1.397   5.974   7.719 -0.0482  0.0512  0.0773
  902loPI   C5A13419   1.233   5.908   8.066  0.0401 -0.1227 -0.0871
  902loPI   C6A13420   0.990   5.775   8.296  0.1486  0.0002 -0.0359
  902loPI   C1B13421   1.279   6.776   6.580  0.1582 -0.1907 -0.0689
  902loPI   C2B13422   1.452   6.977   6.958  0.0143 -0.2168 -0.0209
  902loPI   C3B13423   1.612   6.881   7.445 -0.2527  0.0686 -0.1392
  902loPI   C4B13424   1.346   6.743   7.636  0.0699 -0.3302  0.0633
  903loPI    C113425  11.524  14.388   5.142 -0.0664 -0.0505 -0.0125
  903loPI    C213426  11.365  14.365   4.776 -0.1491 -0.0762  0.0247
  903loPI    C313427  11.693  14.585   4.838 -0.2309  0.0630 -0.0318
  903loPI   PO413428  11.549  14.175   5.236  0.1071  0.2458  0.2172
  903loPI   GL113429  11.712  14.019   5.640  0.0260  0.0162 -0.1797
  903loPI   GL213430  11.368  14.052   5.723  0.3192 -0.1037  0.1340
  903loPI   C1A13431  12.006  14.329   5.875  0.2323 -0.2477 -0.1041
  903loPI   C2A13432  11.978  14.530   6.180  0.0154 -0.0327 -0.0382
  903loPI   C3A13433  12.024  14.518   6.552  0.1742 -0.1094  0.0277
  903loPI   C4A13434  12.174  14.480   6.918  0.1414  0.1348 -0.0402
  903loPI   C5A13435  12.173  14.401   7.348 -0.0229  0.0626  0.1801
  903loPI   C6A13436  12.222  14.295   7.816 -0.1658 -0.0805 -0.0042
  903loPI   C1B13437  11.680  14.001   6.103 -0.1338  0.2346 -0.2420
  903loPI   C2B13438  11.652  14.154   6.504  0.2193 -0.0839  0.0227
  903loPI   C3B13439  11.752  14.191   6.942  0.1483 -0.3603 -0.1474
  903loPI   C4B13440  11.761  14.096   7.305  0.0999 -0.1601  0.0455
  904loPI    C113441  15.297   1.297   5.143 -0.0598  0.0051 -0.0453
  904loPI    C213442  15.045   1.052   4.952  0.0560  0.0102 -0.2059
  904loPI    C313443  15.160   1.395   4.780 -0.1426  0.2024  0.0379
  904loPI   PO413444  15.416   1.092   5.335  0.1847 -0.0814  0.0246
  904loPI   GL113445  15.730   0.929   5.718  0.2295  0.4041 -0.0006
  904loPI   GL213446  15.986   1.006   5.693  0.3942 -0.0447 -0.0530
  904loPI   C1A13447  15.632   0.942   6.160  0.1628 -0.2340 -0.0016
  904loPI   C2A13448  15.461   1.117   6.654 -0.1195  0.1665 -0.2362
  904loPI   C3A13449  15.322   1.085   7.076  0.1885  0.0526 -0.1665
  904loPI   C4A13450  15.260   0.957   7.518  0.2783  0.0210  0.3820
  904loPI   C5A13451  15.521   0.941   7.908  0.0092 -0.0066  0.0532
  904loPI   C6A13452  15.330   0.701   8.344  0.1231 -0.1378  0.0656
  904loPI   C1B13453  15.976   1.241   6.074 -0.0239  0.0278  0.2585
  904loPI   C2B13454  16.029   1.086   6.495 -0.0929  0.1096 -0.0486
  904loPI   C3B13455  16.076   0.738   6.761 -0.1467  0.1698 -0.1979
  904loPI   C4B13456  16.046   0.505   7.076 -0.1044 -0.0944  0.0259
  905loPI    C113457  11.267  17.803   5.599  0.2413 -0.0103 -0.0527
  905loPI    C213458  11.169  17.640   5.247 -0.2765 -0.0942  0.1214
  905loPI    C313459  11.041  18.008   5.340  0.3488  0.1682 -0.0071
  905loPI   PO413460  11.483  17.757   5.688  0.0248 -0.0343 -0.1064
  905loPI   GL113461  11.615  17.446   6.001 -0.2465 -0.1389  0.1127
  905loPI   GL213462  11.745  17.691   6.130 -0.0226  0.0319 -0.2777
  905loPI   C1A13463  11.445  17.381   6.373 -0.2692  0.0310 -0.4170
  905loPI   C2A13464  11.356  17.285   6.806  0.0782 -0.1434  0.1491
  905loPI   C3A13465  11.252  17.327   7.211  0.2257  0.0291  0.0443
  905loPI   C4A13466  11.292  17.356   7.646 -0.0405  0.1283  0.1293
  905loPI   C5A13467  11.027  17.316   7.979  0.0213 -0.1589  0.0995
  905loPI   C6A13468  10.824  17.444   8.415 -0.2482  0.0601 -0.2570
  905loPI   C1B13469  11.787  17.719   6.549  0.0355  0.0192  0.3080
  905loPI   C2B13470  11.724  17.529   6.979  0.2653 -0.0043 -0.0598
  905loPI   C3B13471  11.757  17.507   7.410  0.0730  0.0930 -0.0398
  905loPI   C4B13472  11.779  17.477   7.828 -0.0217 -0.0254 -0.1713
  906loPI    C113473   0.489   6.893   5.743  0.0771 -0.1596  0.0181
  906loPI    C213474   0.135   7.074   5.702  0.1448 -0.0001  0.1285
  906loPI    C313475   0.195   6.713   5.541 -0.1478 -0.1375  0.3201
  906loPI   PO413476   0.544   6.852   6.074 -0.1774 -0.0535 -0.0726
  906loPI   GL113477   0.750   7.009   6.439  0.1760  0.3991  0.1306
  906loPI   GL213478   0.764   7.376   6.415  0.0809 -0.1392 -0.0548
  906loPI   C1A13479   0.942   7.127   6.840  0.2704  0.2207 -0.4484
  906loPI   C2A13480   1.168   7.257   7.255 -0.0335  0.0284  0.0209
  906loPI   C3A13481   1.237   7.263   7.655  0.0509 -0.0821  0.0537
  906loPI   C4A13482   1.143   7.068   8.006 -0.1356 -0.0758  0.0831
  906loPI   C5A13483   0.915   6.699   8.091  0.0897 -0.1549  0.3298
  906loPI   C6A13484   0.926   6.358   8.322 -0.1032  0.0541  0.2638
  906loPI   C1B13485   0.710   7.625   6.738 -0.0566 -0.0075  0.0487
  906loPI   C2B13486   0.935   7.783   7.051  0.2902 -0.0064  0.2647
  906loPI   C3B13487   0.882   7.737   7.515 -0.1807 -0.3244  0.0964
  906loPI   C4B13488   0.732   7.387   7.730 -0.0972  0.0251 -0.3522
  907loPI    C113489  16.192  14.431   5.232 -0.2131 -0.2130  0.0218
  907loPI    C213490  16.106  14.706   4.955  0.3178  0.0959  0.1496
  907loPI    C313491  16.282  14.363   4.849 -0.0875 -0.0808  0.0271
  907loPI   PO413492  16.128  14.602   5.500 -0.0516  0.0068 -0.0999
  907loPI   GL113493  15.858  14.655   5.774 -0.2379 -0.0873  0.1484
  907loPI   GL213494  15.792  14.981   5.736  0.1485 -0.0137 -0.4090
  907loPI   C1A13495  15.875  14.762   6.218  0.1215  0.0137  0.0864
  907loPI   C2A13496  15.834  14.659   6.621 -0.1425  0.0319 -0.0070
  907loPI   C3A13497  15.920  14.634   6.986  0.1965 -0.0228  0.0677
  907loPI   C4A13498  16.054  14.844   7.266  0.0674  0.1033 -0.0163
  907loPI   C5A13499  16.362  14.922   7.550 -0.0342 -0.0189 -0.0135
  907loPI   C6A13500  16.760  15.072   7.737 -0.0470  0.2476  0.1300
  907loPI   C1B13501  15.983  15.348   5.903  0.3495  0.3535 -0.1396
  907loPI   C2B13502  16.255  15.268   6.226  0.2645 -0.0239 -0.1704
  907loPI   C3B13503  16.445  15.320   6.701 -0.1650  0.0341  0.1072
  907loPI   C4B13504  16.486  15.144   7.099 -0.3119  0.1119  0.3183
  908loPI    C113505  17.874   4.000   5.372  0.1113 -0.2930  0.1113
  908loPI    C213506  17.659   3.728   5.173  0.0721 -0.1655 -0.0222
  908loPI    C313507  18.029   3.819   5.051 -0.0389  0.0839 -0.1811
  908loPI   PO413508  17.800   3.967   5.645  0.0329  0.0161  0.0416
  908loPI   GL113509  18.070   3.958   5.981  0.0137 -0.0041 -0.1088
  908loPI   GL213510  17.794   4.146   6.123 -0.4328  0.0559 -0.2733
  908loPI   C1A13511  18.291   3.932   6.365  0.0531  0.0957 -0.2979
  908loPI   C2A13512  18.290   3.936   6.849 -0.0180  0.0088 -0.1477
  908loPI   C3A13513  18.356   3.910   7.208  0.0332  0.1684  0.0395
  908loPI   C4A13514  18.249   3.823   7.579  0.0552  0.0481  0.0716
  908loPI   C5A13515  18.497   3.804   7.972  0.2231  0.2615  0.0886
  908loPI   C6A13516  18.883   4.113   8.023 -0.1426 -0.1680 -0.0472
  908loPI   C1B13517  17.866   4.123   6.598  0.1855 -0.2591 -0.0259
  908loPI   C2B13518  17.899   4.163   7.074 -0.0875 -0.0685  0.1584
  908loPI   C3B13519  17.885   4.170   7.520 -0.2431  0.1044  0.1895
  908loPI   C4B13520  18.024   4.163   8.004  0.1790 -0.1700  0.1707
  909loPI    C113521   3.605   2.387   5.353  0.0464  0.1806  0.0873
  909loPI    C213522   3.955   2.356   5.162 -0.1304 -0.0015 -0.2146
  909loPI    C313523   3.612   2.322   4.958 -0.3249 -0.1402  0.1278
  909loPI   PO413524   3.661   2.286   5.569 -0.1952 -0.3333  0.0286
  909loPI   GL113525   3.929   2.065   5.789 -0.1931 -0.1659  0.0869
  909loPI   GL213526   3.685   1.772   5.727 -0.3507 -0.1101  0.0637
  909loPI   C1A13527   3.844   2.148   6.213 -0.0174  0.0200  0.0348
  909loPI   C2A13528   3.791   2.117   6.564  0.2500 -0.1562 -0.0736
  909loPI   C3A13529   3.687   2.051   6.974 -0.3848 -0.3420  0.2309
  909loPI   C4A13530   3.463   1.906   7.318  0.0451  0.0512  0.1949
  909loPI   C5A13531   3.472   1.896   7.695  0.1679  0.1166 -0.4546
  909loPI   C6A13532   3.706   1.955   8.193 -0.1637 -0.0200 -0.0018
  909loPI   C1B13533   3.617   1.544   6.036  0.0675 -0.1226 -0.0180
  909loPI   C2B13534   3.631   1.605   6.424  0.2893  0.1452 -0.1430
  909loPI   C3B13535   3.632   1.471   6.880  0.0326 -0.2403  0.3455
  909loPI   C4B13536   3.753   1.250   7.258 -0.0912 -0.0412  0.0193
  910loPI    C113537  17.531  15.404   5.185  0.1983 -0.1319  0.0369
  910loPI    C213538  17.564  15.207   4.838  0.0243 -0.1862  0.0504
  910loPI    C313539  17.449  15.591   4.841 -0.1404 -0.2346  0.0579
  910loPI   PO413540  17.407  15.201   5.334  0.0825  0.0382  0.0719
  910loPI   GL113541  17.181  15.248   5.790 -0.5809 -0.1585 -0.0508
  910loPI   GL213542  17.524  15.373   5.768  0.3180 -0.1592 -0.1350
  910loPI   C1A13543  16.842  15.105   6.064  0.3096  0.1728  0.2062
  910loPI   C2A13544  16.884  14.926   6.483  0.1524  0.0118  0.2516
  910loPI   C3A13545  16.895  14.842   6.929 -0.1028 -0.1671  0.1381
  910loPI   C4A13546  16.806  14.766   7.272 -0.0328  0.1927 -0.1866
  910loPI   C5A13547  16.802  14.570   7.553 -0.4151  0.0289  0.0090
  910loPI   C6A13548  16.828  14.550   7.964 -0.2237 -0.0801 -0.1827
  910loPI   C1B13549  17.804  15.274   6.132 -0.3136  0.0195  0.2314
  910loPI   C2B13550  17.791  15.228   6.496 -0.2095  0.1617  0.0839
  910loPI   C3B13551  17.757  15.310   6.884 -0.3446  0.1024  0.3999
  910loPI   C4B13552  17.750  15.209   7.355  0.0118 -0.1227  0.1415
  911loPI    C113553   3.852   5.259   4.987  0.1293 -0.2211 -0.0264
  911loPI    C213554   3.571   4.979   4.936  0.1606 -0.2244 -0.1872
  911loPI    C313555   3.564   5.312   4.715 -0.1129  0.0945  0.2834
  911loPI   PO413556   3.919   5.292   5.273 -0.1206  0.1369  0.0437
  911loPI   GL113557   4.001   5.168   5.793  0.1117 -0.2368 -0.0738
  911loPI   GL213558   4.079   4.900   5.583  0.1935 -0.2626 -0.0235
  911loPI   C1A13559   3.848   5.047   6.163  0.2413  0.0112  0.1149
  911loPI   C2A13560   3.912   4.871   6.509 -0.0478  0.3150 -0.1502
  911loPI   C3A13561   3.955   4.897   6.906  0.1516 -0.0080 -0.2491
  911loPI   C4A13562   3.935   4.901   7.314  0.0993 -0.0675 -0.2997
  911loPI   C5A13563   3.884   4.762   7.729 -0.1143  0.4194  0.1455
  911loPI   C6A13564   4.108   4.794   8.153  0.1133 -0.1127  0.3575
  911loPI   C1B13565   4.170   4.684   6.021  0.1724  0.0425  0.0960
  911loPI   C2B13566   4.607   4.582   6.241  0.2673  0.1416 -0.2513
  911loPI   C3B13567   4.685   4.431   6.737 -0.0040 -0.2131 -0.0178
  911loPI   C4B13568   4.691   4.513   7.160  0.1685 -0.2712  0.1962
  912loPI    C113569   8.746   1.108   5.333  0.1045  0.1306  0.0217
  912loPI    C213570   8.765   0.780   5.562  0.0350  0.1468  0.0510
  912loPI    C313571   8.590   0.764   5.203  0.5024  0.0201 -0.1795
  912loPI   PO413572   8.594   1.264   5.455  0.2154  0.0757 -0.0475
  912loPI   GL113573   8.748   1.466   5.841  0.1207  0.1206 -0.0631
  912loPI   GL213574   8.973   1.177   5.854 -0.2726 -0.0879  0.0581
  912loPI   C1A13575   8.559   1.589   6.193  0.2831  0.0204 -0.1272
  912loPI   C2A13576   8.333   1.792   6.480  0.1587  0.2238  0.0052
  912loPI   C3A13577   8.262   1.813   6.919  0.0123 -0.1986  0.1227
  912loPI   C4A13578   8.211   1.853   7.311  0.2228  0.1268 -0.2501
  912loPI   C5A13579   8.089   1.669   7.732  0.0610  0.2006  0.0161
  912loPI   C6A13580   7.857   1.850   7.960 -0.2816 -0.2736  0.2465
  912loPI   C1B13581   8.902   1.243   6.263  0.0997 -0.1086  0.0280
  912loPI   C2B13582   8.541   1.226   6.507  0.1250  0.2377  0.2808
  912loPI   C3B13583   8.494   1.310   6.949 -0.0409 -0.2193  0.2333
  912loPI   C4B13584   8.321   1.312   7.394 -0.1989 -0.0484 -0.1252
  913loPI    C113585   6.515   7.673   5.272  0.0426 -0.0734  0.1277
  913loPI    C213586   6.190   7.905   5.251 -0.0955 -0.2785 -0.0348
  913loPI    C313587   6.178   7.531   5.110  0.1709 -0.3341  0.0850
  913loPI   PO413588   6.625   7.816   5.539  0.1218  0.0655 -0.0871
  913loPI   GL113589   6.589   7.497   5.932  0.0598  0.2485  0.0729
  913loPI   GL213590   6.391   7.443   6.183  0.2682 -0.0974  0.1814
  913loPI   C1A13591   6.798   7.722   6.329  0.0683  0.1020  0.2534
  913loPI   C2A13592   6.768   7.622   6.761  0.2540  0.1461  0.1705
  913loPI   C3A13593   6.629   7.672   7.196  0.0399 -0.1771  0.1557
  913loPI   C4A13594   6.379   7.717   7.552  0.0013 -0.3986  0.1695
  913loPI   C5A13595   6.423   7.839   7.904 -0.4508 -0.1226  0.0714
  913loPI   C6A13596   6.247   7.742   8.251  0.0009 -0.0460  0.1987
  913loPI   C1B13597   6.407   7.246   6.604 -0.0885  0.0271 -0.2129
  913loPI   C2B13598   6.304   7.265   7.083 -0.1834 -0.2094  0.2450
  913loPI   C3B13599   6.199   7.232   7.422 -0.1909 -0.2955 -0.2739
  913loPI   C4B13600   6.103   7.443   7.867  0.3030 -0.1312  0.0343
  914loPI    C113601  14.693  13.132   5.202  0.2388 -0.0104  0.0288
  914loPI    C213602  14.357  12.967   5.343  0.1743 -0.0267 -0.1417
  914loPI    C313603  14.553  12.793   5.041  0.3279 -0.0085 -0.0533
  914loPI   PO413604  14.719  13.269   5.388  0.0465  0.0436 -0.2184
  914loPI   GL113605  14.526  13.129   5.798  0.0599  0.0809 -0.1495
  914loPI   GL213606  14.515  12.962   6.107 -0.2480  0.0106 -0.0273
  914loPI   C1A13607  14.299  13.415   6.090 -0.1119 -0.1430 -0.1104
  914loPI   C2A13608  14.325  13.414   6.485 -0.2320 -0.1049  0.1646
  914loPI   C3A13609  14.369  13.394   6.868  0.0900  0.3758 -0.1069
  914loPI   C4A13610  14.428  13.423   7.272 -0.1300 -0.1746 -0.1957
  914loPI   C5A13611  14.544  13.251   7.652 -0.0580  0.0516 -0.0790
  914loPI   C6A13612  14.619  12.909   7.974  0.0478  0.2755 -0.1132
  914loPI   C1B13613  14.548  13.000   6.536  0.0156 -0.1430  0.3371
  914loPI   C2B13614  14.515  12.910   6.951 -0.1833 -0.1409 -0.1230
  914loPI   C3B13615  14.207  12.964   7.288  0.0078 -0.2544  0.0883
  914loPI   C4B13616  14.185  12.890   7.709 -0.3210 -0.1488  0.1488
  915loPI    C113617  11.810  17.987   5.349  0.1345  0.0712 -0.0530
  915loPI    C213618  11.515  18.245   5.430 -0.0675 -0.1689 -0.0118
  915loPI    C313619  11.474  17.982   5.131  0.1217 -0.1786 -0.0302
  915loPI   PO413620  12.028  18.108   5.376  0.1691  0.0401 -0.2109
  915loPI   GL113621  12.265  18.097   5.839  0.0223  0.0448  0.2629
  915loPI   GL213622  12.040  17.741   5.732 -0.0099  0.0067 -0.3076
  915loPI   C1A13623  12.135  18.081   6.341  0.4103 -0.1802  0.0309
  915loPI   C2A13624  12.049  18.055   6.812  0.0625  0.1052  0.2663
  915loPI   C3A13625  11.890  18.035   7.251  0.0594  0.2016  0.0079
  915loPI   C4A13626  12.018  17.924   7.666 -0.0130  0.0381  0.1903
  915loPI   C5A13627  12.005  17.970   8.084  0.1379 -0.0644 -0.1550
  915loPI   C6A13628  11.987  18.188   8.495 -0.2191  0.1303  0.0233
  915loPI   C1B13629  12.107  17.284   6.002  0.0407 -0.1436  0.1364
  915loPI   C2B13630  11.901  17.264   6.378  0.2098  0.1849 -0.0374
  915loPI   C3B13631  11.909  17.059   6.772  0.3476  0.0657  0.0242
  915loPI   C4B13632  12.009  17.172   7.150 -0.0726  0.1397 -0.1948
  916loPI    C113633   9.703  17.489   5.581  0.0302  0.1787 -0.0538
  916loPI    C213634   9.655  17.407   5.192 -0.2666  0.2502 -0.0349
  916loPI    C313635   9.498  17.741   5.347 -0.0359  0.2889  0.1207
  916loPI   PO413636   9.990  17.480   5.671  0.1181  0.1687  0.1192
  916loPI   GL113637  10.327  17.366   6.025  0.1341  0.1719 -0.1552
  916loPI   GL213638  10.193  17.023   5.894 -0.0103  0.1627  0.1943
  916loPI   C1A13639  10.581  17.293   6.355  0.0205 -0.0544  0.1176
  916loPI   C2A13640  10.643  17.175   6.757 -0.3028  0.0494 -0.1562
  916loPI   C3A13641  10.657  17.163   7.217 -0.0379 -0.1145  0.0070
  916loPI   C4A13642  10.693  17.117   7.680  0.1195 -0.0713  0.0172
  916loPI   C5A13643  10.505  17.155   8.076 -0.3803  0.0997 -0.2737
  916loPI   C6A13644  10.515  16.963   8.447  0.1306 -0.0912 -0.1491
  916loPI   C1B13645  10.022  17.048   6.349  0.1225  0.1571 -0.0681
  916loPI   C2B13646  10.042  17.187   6.786  0.2244  0.1576 -0.2346
  916loPI   C3B13647   9.958  17.261   7.199 -0.0343  0.3315  0.1238
  916loPI   C4B13648   9.902  17.236   7.641  0.2355 -0.0011 -0.1067
  917loPI    C113649  17.215  17.642   5.241  0.6646 -0.0885 -0.1502
  917loPI    C213650  16.938  17.805   5.003  0.3281 -0.2441  0.1264
  917loPI    C313651  17.277  18.002   5.079  0.1446  0.1056  0.0584
  917loPI   PO413652  17.095  17.362   5.288  0.2114 -0.2268  0.3825
  917loPI   GL113653  17.106  17.247   5.709 -0.1475  0.2935 -0.0918
  917loPI   GL213654  17.399  17.072   5.694  0.0259 -0.1862  0.2291
  917loPI   C1A13655  16.999  17.246   6.106  0.1852 -0.1284 -0.1150
  917loPI   C2A13656  16.985  16.939   6.377  0.1868 -0.0959  0.1334
  917loPI   C3A13657  17.080  16.901   6.870  0.2203  0.0027 -0.1091
  917loPI   C4A13658  16.828  16.991   7.281  0.2029 -0.2003  0.4838
  917loPI   C5A13659  16.598  16.885   7.564 -0.1675  0.3275  0.2548
  917loPI   C6A13660  16.336  16.786   7.880  0.0831  0.2456 -0.0393
  917loPI   C1B13661  17.453  16.752   5.950 -0.4168  0.1611 -0.1519
  917loPI   C2B13662  17.388  16.648   6.312  0.0355  0.0258  0.1994
  917loPI   C3B13663  17.474  16.639   6.689  0.1500 -0.0388 -0.4415
  917loPI   C4B13664  17.382  16.730   7.212  0.0086  0.1333 -0.2245
  918loPI    C113665   8.706   2.871   5.261 -0.1648 -0.1588  0.0492
  918loPI    C213666   9.048   2.798   5.067 -0.1637 -0.0612  0.0138
  918loPI    C313667   8.794   3.074   4.928 -0.2735 -0.1579  0.0206
  918loPI   PO413668   8.799   2.889   5.533  0.4819  0.1683  0.0406
  918loPI   GL113669   8.883   3.125   5.890  0.0673  0.1732 -0.0993
  918loPI   GL213670   9.037   3.383   5.809 -0.0454  0.0257  0.0245
  918loPI   C1A13671   8.722   3.133   6.317  0.0736 -0.0646  0.2390
  918loPI   C2A13672   8.729   3.144   6.700  0.2846 -0.1962 -0.0759
  918loPI   C3A13673   8.967   3.406   7.049  0.1637 -0.0298 -0.0677
  918loPI   C4A13674   9.126   3.374   7.477  0.2202 -0.1450 -0.0163
  918loPI   C5A13675   9.462   3.609   7.705  0.0031  0.2698  0.0247
  918loPI   C6A13676   9.544   4.053   7.606 -0.1616 -0.1085  0.2626
  918loPI   C1B13677   9.026   3.566   6.138  0.0187  0.0807 -0.2546
  918loPI   C2B13678   9.152   3.574   6.605 -0.1511 -0.2394 -0.0864
  918loPI   C3B13679   9.212   3.898   6.766 -0.0389 -0.0138 -0.0965
  918loPI   C4B13680   9.209   4.187   7.057 -0.0896  0.2372 -0.2028
  919loPI    C113681   3.381  13.167   5.461 -0.0573  0.0584 -0.0005
  919loPI    C213682   3.736  13.143   5.279 -0.0154  0.1199  0.0726
  919loPI    C313683   3.544  12.809   5.388 -0.0637  0.0813 -0.1280
  919loPI   PO413684   3.460  13.307   5.664 -0.3551 -0.0725  0.1899
  919loPI   GL113685   3.220  13.342   5.998  0.1184 -0.1547  0.3435
  919loPI   GL213686   2.969  13.250   5.860  0.1478  0.0862  0.3040
  919loPI   C1A13687   3.321  13.479   6.461  0.1238 -0.0928 -0.0211
  919loPI   C2A13688   3.288  13.448   6.872  0.3066 -0.0401 -0.0493
  919loPI   C3A13689   3.178  13.565   7.262  0.1406  0.0315 -0.2952
  919loPI   C4A13690   3.120  13.609   7.769 -0.0190 -0.0285 -0.1659
  919loPI   C5A13691   3.159  13.787   8.170 -0.2309  0.1117 -0.1304
  919loPI   C6A13692   3.019  13.536   8.506  0.1159  0.0449 -0.2961
  919loPI   C1B13693   2.813  13.299   6.317 -0.1063  0.1975 -0.0526
  919loPI   C2B13694   2.736  13.242   6.802 -0.3157  0.1024 -0.2576
  919loPI   C3B13695   2.660  13.374   7.330  0.2199 -0.0071  0.2471
  919loPI   C4B13696   2.542  13.488   7.767 -0.0435  0.1834  0.0413
  920loPI    C113697   8.215   8.397   5.812  0.0785  0.0041 -0.1831
  920loPI    C213698   8.403   8.683   5.605  0.0211  0.1910  0.0184
  920loPI    C313699   8.235   8.374   5.413  0.2259  0.2053 -0.1887
  920loPI   PO413700   8.089   8.572   6.070 -0.3592  0.0702  0.2643
  920loPI   GL113701   8.266   8.671   6.448  0.0642 -0.2176  0.1117
  920loPI   GL213702   8.465   8.325   6.362  0.1366 -0.3480  0.0702
  920loPI   C1A13703   8.250   8.749   6.840 -0.1828  0.1800  0.1533
  920loPI   C2A13704   8.163   8.689   7.292 -0.1904  0.3711  0.1993
  920loPI   C3A13705   8.147   8.887   7.670 -0.0293 -0.0918 -0.2530
  920loPI   C4A13706   8.156   9.065   8.021  0.0744 -0.1691  0.0536
  920loPI   C5A13707   8.369   9.281   8.332  0.2026  0.0118  0.0501
  920loPI   C6A13708   8.639   9.060   8.655 -0.1952 -0.1640 -0.0508
  920loPI   C1B13709   8.486   8.213   6.799  0.3588  0.1604  0.0652
  920loPI   C2B13710   8.488   8.302   7.203  0.1345 -0.0846 -0.1495
  920loPI   C3B13711   8.482   8.356   7.553  0.0480  0.3975 -0.1982
  920loPI   C4B13712   8.545   8.600   7.789 -0.0515  0.0878  0.3309
  921loPI    C113713   8.169   1.099   5.234  0.0662 -0.3163  0.0342
  921loPI    C213714   8.002   1.334   4.957  0.0999 -0.1430  0.1589
  921loPI    C313715   8.372   1.194   4.903  0.0817 -0.1638  0.0867
  921loPI   PO413716   8.086   1.173   5.428  0.0385 -0.1182 -0.0446
  921loPI   GL113717   8.169   1.468   5.763  0.0633  0.0199  0.1593
  921loPI   GL213718   8.373   1.175   5.936 -0.4125 -0.0333  0.2646
  921loPI   C1A13719   8.013   1.364   6.250  0.2110  0.1566 -0.2497
  921loPI   C2A13720   7.934   1.364   6.746  0.1230  0.1469 -0.1168
  921loPI   C3A13721   7.933   1.459   7.085  0.1634 -0.2135  0.1405
  921loPI   C4A13722   7.810   1.315   7.475  0.0366 -0.0385  0.0166
  921loPI   C5A13723   7.839   1.186   7.861 -0.1464 -0.0508 -0.1416
  921loPI   C6A13724   7.865   0.776   7.986  0.1549 -0.1504 -0.1635
  921loPI   C1B13725   8.238   0.828   6.215  0.0782  0.0637 -0.1819
  921loPI   C2B13726   8.146   0.798   6.594  0.1376  0.1485  0.3640
  921loPI   C3B13727   8.122   1.006   6.973 -0.0061  0.0807  0.1760
  921loPI   C4B13728   8.086   0.897   7.504 -0.0463 -0.0635  0.1586
  922loPI    C113729   1.254  17.491   5.305  0.0622  0.2659  0.2074
  922loPI    C213730   1.161  17.652   4.951 -0.0372 -0.1607  0.0330
  922loPI    C313731   1.463  17.392   4.979 -0.1158 -0.2326  0.2358
  922loPI   PO413732   1.012  17.488   5.434 -0.1181  0.1116 -0.0725
  922loPI   GL113733   0.861  17.324   5.842 -0.0538 -0.0398  0.0952
  922loPI   GL213734   0.547  17.309   5.687 -0.1204 -0.4598 -0.0041
  922loPI   C1A13735   0.791  17.419   6.301 -0.0804  0.2116  0.1848
  922loPI   C2A13736   0.761  17.427   6.717  0.0768 -0.3328 -0.3301
  922loPI   C3A13737   0.645  17.420   7.197 -0.0294 -0.1195 -0.1585
  922loPI   C4A13738   0.501  17.582   7.623  0.2400 -0.3054  0.1389
  922loPI   C5A13739   0.243  17.781   7.732  0.1420 -0.0323 -0.2148
  922loPI   C6A13740   0.206  18.199   7.959  0.0275 -0.0868 -0.1568
  922loPI   C1B13741   0.384  17.154   6.038  0.1640  0.0780  0.0903
  922loPI   C2B13742   0.291  17.127   6.514  0.0007 -0.0602  0.1185
  922loPI   C3B13743   0.259  17.103   6.939 -0.0765  0.0759  0.1349
  922loPI   C4B13744   0.294  17.117   7.385  0.0502  0.1373 -0.1682
  923loPI    C113745   0.715   8.715   5.619  0.0771  0.1922 -0.1399
  923loPI    C213746   0.323   8.680   5.547  0.0081 -0.0273  0.3074
  923loPI    C313747   0.585   8.455   5.345 -0.1082 -0.0054  0.1304
  923loPI   PO413748   0.733   8.746   5.901  0.1731  0.1038 -0.0273
  923loPI   GL113749   1.053   8.704   6.162  0.0989 -0.1721 -0.0367
  923loPI   GL213750   1.084   8.966   6.398  0.0096 -0.2243  0.1782
  923loPI   C1A13751   1.258   8.547   6.563 -0.2708 -0.0009  0.3318
  923loPI   C2A13752   1.351   8.643   6.974  0.0761  0.0533 -0.1792
  923loPI   C3A13753   1.288   8.745   7.432  0.0620 -0.1740  0.1962
  923loPI   C4A13754   0.958   8.654   7.677  0.1095 -0.0393  0.2263
  923loPI   C5A13755   0.911   8.753   8.096 -0.0805  0.1866  0.1163
  923loPI   C6A13756   0.770   8.520   8.347 -0.1233  0.2709  0.0929
  923loPI   C1B13757   1.108   9.007   6.834 -0.0160  0.0405  0.3276
  923loPI   C2B13758   0.926   8.949   7.153  0.1286  0.1335 -0.1963
  923loPI   C3B13759   0.842   9.206   7.502  0.0832  0.2515 -0.1393
  923loPI   C4B13760   0.813   9.273   7.909 -0.0191  0.0149  0.2745
  924loPI    C113761  16.622   4.130   5.563  0.0293 -0.0517 -0.1171
  924loPI    C213762  16.951   4.356   5.545  0.1167 -0.1860 -0.2242
  924loPI    C313763  16.689   4.359   5.242 -0.0420  0.0108 -0.0879
  924loPI   PO413764  16.654   4.089   5.866  0.1440 -0.0608  0.0536
  924loPI   GL113765  16.910   3.844   6.133 -0.1357 -0.0194  0.1251
  924loPI   GL213766  17.167   3.567   6.058  0.2801  0.1738  0.0032
  924loPI   C1A13767  16.928   3.764   6.636 -0.3533  0.0848 -0.0614
  924loPI   C2A13768  16.979   3.706   7.010 -0.2638  0.0708 -0.1281
  924loPI   C3A13769  16.913   3.536   7.405 -0.0122  0.0338  0.3949
  924loPI   C4A13770  16.774   3.332   7.727  0.0377  0.3568 -0.1041
  924loPI   C5A13771  16.866   3.151   8.165  0.0071 -0.1197 -0.0279
  924loPI   C6A13772  16.656   2.923   8.503  0.1992 -0.0723 -0.0501
  924loPI   C1B13773  17.311   3.476   6.407  0.0586  0.0789  0.0679
  924loPI   C2B13774  17.382   3.438   6.810 -0.1106  0.0920 -0.0912
  924loPI   C3B13775  17.703   3.278   7.196 -0.0204  0.1371 -0.1066
  924loPI   C4B13776  17.765   3.143   7.600  0.1803  0.3620  0.1142
  925loPI    C113777  13.206   6.350   5.598 -0.0923  0.1159  0.1080
  925loPI    C213778  13.453   6.145   5.359 -0.0785 -0.0094  0.2288
  925loPI    C313779  13.111   6.294   5.213 -0.0542 -0.0564  0.1231
  925loPI   PO413780  13.286   6.471   5.731 -0.1794  0.4511  0.2010
  925loPI   GL113781  13.144   6.572   6.090  0.0556 -0.1662 -0.2876
  925loPI   GL213782  12.955   6.787   6.329  0.0936 -0.4701  0.0742
  925loPI   C1A13783  13.215   6.343   6.456  0.0674  0.0238 -0.1116
  925loPI   C2A13784  13.384   6.028   6.712  0.0830  0.1001  0.3187
  925loPI   C3A13785  13.419   5.879   7.147  0.0456  0.2968  0.1135
  925loPI   C4A13786  13.488   5.919   7.548 -0.2717  0.1450  0.0299
  925loPI   C5A13787  13.503   5.821   7.945 -0.1649 -0.0163 -0.2164
  925loPI   C6A13788  13.456   6.146   8.270 -0.0086 -0.3188 -0.1166
  925loPI   C1B13789  12.853   6.867   6.824  0.2689  0.2556 -0.3537
  925loPI   C2B13790  13.033   6.707   7.117  0.1512 -0.1068  0.0613
  925loPI   C3B13791  13.184   6.687   7.609 -0.1014  0.2384  0.0558
  925loPI   C4B13792  13.299   6.329   7.793 -0.1564  0.0810 -0.6577
  926loPI    C113793  17.323  11.239   6.057  0.3160 -0.0564 -0.1689
  926loPI    C213794  17.296  11.181   5.662  0.0014  0.0714 -0.1685
  926loPI    C313795  17.069  11.459   5.840 -0.0582 -0.1703  0.1426
  926loPI   PO413796  17.618  11.175   6.050 -0.2899  0.1263 -0.2919
  926loPI   GL113797  17.941  11.219   6.298  0.0541  0.0253 -0.0703
  926loPI   GL213798  18.019  10.995   6.307 -0.0676 -0.1495 -0.2676
  926loPI   C1A13799  18.102  11.642   6.524 -0.0691  0.1069 -0.3116
  926loPI   C2A13800  18.180  11.950   6.936  0.2776 -0.2974  0.1125
  926loPI   C3A13801  18.291  12.110   7.362  0.2214 -0.0116 -0.0153
  926loPI   C4A13802  18.441  12.038   7.804  0.1054 -0.0240  0.0819
  926loPI   C5A13803  18.395  11.721   8.060 -0.2603 -0.0088 -0.0141
  926loPI   C6A13804  18.100  11.568   8.328 -0.3616  0.1588  0.0269
  926loPI   C1B13805  17.952  11.096   6.783 -0.1510 -0.1502 -0.5538
  926loPI   C2B13806  17.889  10.983   7.108  0.0019 -0.0010  0.1137
  926loPI   C3B13807  17.859  11.090   7.477 -0.1563 -0.0271  0.2082
  926loPI   C4B13808  17.545  11.305   7.780 -0.2971 -0.1987 -0.0712
  927loPI    C113809  14.069   4.616   5.875 -0.1452  0.1594 -0.1873
  927loPI    C213810  14.390   4.739   6.080 -0.2807  0.0950  0.0682
  927loPI    C313811  14.404   4.715   5.681  0.0441  0.0545  0.0796
  927loPI   PO413812  13.897   4.615   6.000 -0.0119 -0.1962  0.0411
  927loPI   GL113813  13.662   4.557   6.370  0.1939  0.2625  0.1420
  927loPI   GL213814  13.728   4.149   6.334 -0.2009 -0.2845 -0.3026
  927loPI   C1A13815  13.783   4.637   6.727  0.0984  0.2240  0.2084
  927loPI   C2A13816  13.774   4.518   7.151 -0.0697 -0.2821  0.0851
  927loPI   C3A13817  13.654   4.366   7.490  0.1361 -0.1622 -0.0505
  927loPI   C4A13818  13.524   4.314   7.879 -0.0142  0.0415  0.0601
  927loPI   C5A13819  13.452   4.219   8.269 -0.3751  0.0157  0.0708
  927loPI   C6A13820  13.334   4.195   8.594  0.2131 -0.1473  0.3242
  927loPI   C1B13821  13.722   4.072   6.746  0.0502 -0.0124 -0.2496
  927loPI   C2B13822  13.719   3.961   7.176  0.0688  0.0659  0.0861
  927loPI   C3B13823  13.738   3.831   7.655  0.1817 -0.0582 -0.0593
  927loPI   C4B13824  13.492   3.810   8.035 -0.0468 -0.0419  0.2920
  928loPI    C113825  14.918   2.894   5.455  0.1670  0.0401 -0.1595
  928loPI    C213826  14.843   3.088   5.113  0.0918 -0.0077 -0.1703
  928loPI    C313827  14.859   2.689   5.117 -0.2050 -0.0216 -0.0617
  928loPI   PO413828  14.782   3.004   5.620  0.1608  0.2880 -0.1669
  928loPI   GL113829  14.873   3.063   6.014 -0.0616 -0.1323 -0.1601
  928loPI   GL213830  14.736   3.363   6.167 -0.0504  0.3384 -0.0595
  928loPI   C1A13831  14.354   3.011   6.324  0.0899  0.1281  0.0333
  928loPI   C2A13832  14.359   2.787   6.719  0.1861  0.1139  0.0142
  928loPI   C3A13833  14.402   2.747   7.224  0.0677  0.0673 -0.2699
  928loPI   C4A13834  14.333   2.551   7.635  0.1791 -0.0367 -0.1582
  928loPI   C5A13835  14.103   2.471   7.936  0.1318 -0.0195  0.0954
  928loPI   C6A13836  13.895   2.430   8.296  0.0702  0.0566 -0.0276
  928loPI   C1B13837  14.778   3.127   6.566  0.2075  0.0553 -0.0291
  928loPI   C2B13838  14.760   3.053   7.026  0.2533  0.2333  0.0531
  928loPI   C3B13839  14.740   3.143   7.437  0.0540  0.0446  0.0984
  928loPI   C4B13840  14.642   3.550   7.738  0.0589 -0.0146  0.1723
  929loPI    C113841  16.436  17.746   5.332 -0.1684 -0.0360 -0.2365
  929loPI    C213842  16.110  17.704   5.104 -0.2268 -0.0051 -0.1585
  929loPI    C313843  16.422  17.914   4.969 -0.3844  0.2815 -0.0854
  929loPI   PO413844  16.463  17.572   5.444 -0.2055  0.1501 -0.2557
  929loPI   GL113845  16.365  17.262   5.818  0.4458  0.0525  0.2564
  929loPI   GL213846  16.087  17.043   5.699  0.2499  0.0166 -0.0256
  929loPI   C1A13847  16.507  17.508   6.146  0.1041 -0.0889  0.1456
  929loPI   C2A13848  16.382  17.765   6.461 -0.1222 -0.2569  0.3144
  929loPI   C3A13849  16.500  17.615   6.881  0.2459 -0.0090 -0.1203
  929loPI   C4A13850  16.538  17.382   7.304 -0.1456  0.1483 -0.1069
  929loPI   C5A13851  16.275  17.279   7.532 -0.0536  0.1869 -0.0914
  929loPI   C6A13852  16.064  17.448   7.867 -0.0847 -0.2783  0.2429
  929loPI   C1B13853  15.980  17.232   6.153 -0.0403  0.1070  0.3632
  929loPI   C2B13854  16.188  17.170   6.510  0.2378 -0.0366 -0.2033
  929loPI   C3B13855  16.080  17.346   7.036  0.0558 -0.1165 -0.1156
  929loPI   C4B13856  15.728  17.216   7.220  0.3297 -0.0820 -0.0259
  930loPI    C113857   6.758   0.899   5.022 -0.0571  0.0303 -0.0701
  930loPI    C213858   7.084   1.130   5.050 -0.0774  0.0618 -0.0928
  930loPI    C313859   7.005   0.936   4.709  0.0100 -0.0836 -0.0315
  930loPI   PO413860   6.628   0.992   5.127  0.0193 -0.1303  0.1025
  930loPI   GL113861   6.667   1.205   5.539  0.0234 -0.2545 -0.1081
  930loPI   GL213862   6.459   1.455   5.676 -0.0691 -0.1280  0.0485
  930loPI   C1A13863   6.739   1.121   6.048  0.2329  0.1545  0.0406
  930loPI   C2A13864   6.668   1.141   6.482 -0.1996  0.0879  0.4441
  930loPI   C3A13865   6.514   1.134   6.931 -0.0785 -0.2063 -0.2394
  930loPI   C4A13866   6.499   1.091   7.377 -0.0789 -0.1486  0.2368
  930loPI   C5A13867   6.533   0.876   7.848 -0.0081  0.0576  0.0458
  930loPI   C6A13868   6.521   0.641   8.221  0.0037  0.0077 -0.0459
  930loPI   C1B13869   6.452   1.542   6.062 -0.1007 -0.2343  0.2255
  930loPI   C2B13870   6.424   1.586   6.467  0.1567  0.0781 -0.0745
  930loPI   C3B13871   6.403   1.670   6.825  0.2398 -0.1038 -0.1758
  930loPI   C4B13872   6.378   1.612   7.302 -0.0560  0.1104 -0.0771
  931loPI    C113873  10.268   5.897   5.335  0.0919  0.2246  0.2769
  931loPI    C213874  10.499   6.145   5.122  0.1104 -0.2623 -0.2973
  931loPI    C313875  10.113   6.099   5.026 -0.0225 -0.0870  0.1268
  931loPI   PO413876  10.423   5.892   5.544  0.0288  0.0054 -0.1775
  931loPI   GL113877  10.254   5.717   6.019 -0.1415 -0.0744  0.1133
  931loPI   GL213878  10.416   6.067   6.002 -0.5095 -0.0141  0.2708
  931loPI   C1A13879  10.623   5.803   6.379 -0.0242  0.1577  0.3456
  931loPI   C2A13880  10.622   5.775   6.779  0.2273  0.2007  0.1466
  931loPI   C3A13881  10.570   5.850   7.213 -0.0770  0.1406  0.3106
  931loPI   C4A13882  10.768   5.674   7.537 -0.3399  0.0903  0.1866
  931loPI   C5A13883  10.962   5.928   7.820 -0.2072 -0.0564 -0.0210
  931loPI   C6A13884  11.293   6.300   7.833  0.1657  0.2457 -0.0408
  931loPI   C1B13885  10.518   6.465   6.224  0.0425  0.0726 -0.1664
  931loPI   C2B13886  10.536   6.636   6.657  0.1054 -0.2825 -0.1278
  931loPI   C3B13887  10.415   6.766   7.042 -0.0641  0.0699 -0.1654
  931loPI   C4B13888  10.456   7.156   7.195 -0.0454  0.2290 -0.1662
  932loPI    C113889  14.823  14.389   5.089  0.1349 -0.1249  0.0300
  932loPI    C213890  14.590  14.152   4.866 -0.1421 -0.0183  0.2008
  932loPI    C313891  14.922  14.005   5.034 -0.0819 -0.1712 -0.0466
  932loPI   PO413892  14.653  14.516   5.262  0.3251 -0.0011 -0.3539
  932loPI   GL113893  14.711  14.925   5.487 -0.0548 -0.0106  0.1666
  932loPI   GL213894  14.429  14.912   5.526 -0.3454 -0.0748 -0.1295
  932loPI   C1A13895  14.923  14.898   5.809 -0.0845 -0.1716  0.1846
  932loPI   C2A13896  15.061  15.095   6.156 -0.0327 -0.0987 -0.1913
  932loPI   C3A13897  14.927  15.268   6.539  0.1372  0.1416  0.1947
  932loPI   C4A13898  15.079  15.229   6.960 -0.0214  0.1209 -0.0980
  932loPI   C5A13899  15.062  15.240   7.429  0.0568  0.2050  0.2419
  932loPI   C6A13900  14.949  15.234   7.862  0.1237  0.1238  0.0274
  932loPI   C1B13901  14.512  14.679   5.919  0.1130  0.1168  0.1818
  932loPI   C2B13902  14.801  14.724   6.313  0.1624 -0.1270 -0.0255
  932loPI   C3B13903  14.919  14.757   6.674 -0.2068  0.2116 -0.2184
  932loPI   C4B13904  15.098  14.712   7.134  0.3710  0.0368 -0.0847
  933loPI    C113905   8.679   5.415   5.330 -0.1571 -0.1229 -0.1818
  933loPI    C213906   9.030   5.328   5.159  0.0136  0.1830  0.0038
  933loPI    C313907   8.780   5.585   4.983 -0.0419  0.0983 -0.0420
  933loPI   PO413908   8.781   5.429   5.609 -0.2318  0.0976 -0.2356
  933loPI   GL113909   8.517   5.157   5.932 -0.1156  0.0949  0.0741
  933loPI   GL213910   8.256   4.963   5.894 -0.0176 -0.1174 -0.0039
  933loPI   C1A13911   8.681   5.133   6.342 -0.0923 -0.0341  0.0585
  933loPI   C2A13912   8.717   5.032   6.709 -0.2460 -0.3964  0.1331
  933loPI   C3A13913   8.620   5.016   7.082  0.0655  0.1573 -0.0996
  933loPI   C4A13914   8.712   5.016   7.496  0.1204  0.0299 -0.1301
  933loPI   C5A13915   8.740   4.998   7.976 -0.0915 -0.1721  0.2244
  933loPI   C6A13916   9.059   4.802   8.221  0.1203 -0.0257 -0.1092
  933loPI   C1B13917   8.076   4.680   6.223  0.5150 -0.1569 -0.1432
  933loPI   C2B13918   7.711   4.643   6.429  0.1326  0.0440  0.0591
  933loPI   C3B13919   7.443   4.437   6.707  0.2240  0.1126 -0.1503
  933loPI   C4B13920   7.173   4.431   6.892  0.2516  0.0077 -0.1227
  934loPI    C113921   5.499   3.632   5.166  0.0095 -0.1123  0.0405
  934loPI    C213922   5.610   3.840   4.842  0.1665 -0.1157  0.0911
  934loPI    C313923   5.473   3.466   4.803  0.0161 -0.0536  0.0129
  934loPI   PO413924   5.624   3.738   5.344  0.0108 -0.1153  0.0028
  934loPI   GL113925   5.765   3.647   5.650  0.0710 -0.1432 -0.2327
  934loPI   GL213926   5.646   3.411   5.815  0.1107 -0.1123 -0.2342
  934loPI   C1A13927   5.678   3.899   6.018  0.4198  0.0028  0.3153
  934loPI   C2A13928   5.540   3.881   6.385  0.1025  0.0788 -0.0085
  934loPI   C3A13929   5.409   3.865   6.804 -0.4582  0.2749  0.1432
  934loPI   C4A13930   5.378   4.031   7.139 -0.0897  0.3183 -0.2743
  934loPI   C5A13931   5.317   4.009   7.507 -0.0713 -0.3761  0.0172
  934loPI   C6A13932   5.395   4.052   7.908  0.0327  0.3661 -0.1926
  934loPI   C1B13933   5.801   3.443   6.220  0.2075  0.1845  0.2593
  934loPI   C2B13934   5.649   3.455   6.700 -0.2273  0.2727 -0.1807
  934loPI   C3B13935   5.531   3.490   7.170  0.1910  0.1798 -0.1671
  934loPI   C4B13936   5.529   3.622   7.703 -0.0356 -0.1817 -0.0600
  935loPI    C113937   1.931  15.693   4.899 -0.0311 -0.2165  0.0551
  935loPI    C213938   2.314  15.719   4.784 -0.0334 -0.2518  0.0392
  935loPI    C313939   2.021  15.761   4.515 -0.0445 -0.0302  0.0839
  935loPI   PO413940   1.899  15.431   5.082 -0.0468 -0.1264 -0.0243
  935loPI   GL113941   1.910  15.416   5.540 -0.2433  0.0810 -0.1903
  935loPI   GL213942   2.046  15.735   5.481 -0.0710 -0.2143  0.2613
  935loPI   C1A13943   1.965  15.407   5.923  0.0728  0.2469 -0.2699
  935loPI   C2A13944   2.027  15.454   6.307 -0.0498 -0.3152 -0.3478
  935loPI   C3A13945   1.985  15.389   6.784  0.0644 -0.2090 -0.3768
  935loPI   C4A13946   2.079  15.413   7.303  0.0679 -0.2116  0.2095
  935loPI   C5A13947   2.132  15.518   7.723 -0.0096 -0.0215 -0.0905
  935loPI   C6A13948   2.228  15.447   8.161 -0.0704 -0.1125  0.0352
  935loPI   C1B13949   2.103  15.953   5.866 -0.5134  0.2397  0.0320
  935loPI   C2B13950   2.030  16.016   6.279 -0.1862 -0.0810  0.0944
  935loPI   C3B13951   1.998  15.954   6.753 -0.0423 -0.1219  0.0142
  935loPI   C4B13952   2.069  15.955   7.160  0.1590  0.2624  0.1617
  936loPI    C113953  13.963   2.631   5.157 -0.0152  0.0588  0.1248
  936loPI    C213954  14.304   2.538   4.968  0.1315 -0.1403  0.4761
  936loPI    C313955  14.252   2.905   5.120 -0.0480  0.0691 -0.0648
  936loPI   PO413956  13.954   2.437   5.363 -0.0868  0.0118 -0.0055
  936loPI   GL113957  13.944   2.351   5.788  0.1329  0.0266 -0.0068
  936loPI   GL213958  13.667   2.448   5.845 -0.0207  0.2607  0.2112
  936loPI   C1A13959  14.069   2.533   6.281  0.2400 -0.2322 -0.1359
  936loPI   C2A13960  13.926   2.411   6.735  0.1000 -0.0645  0.0013
  936loPI   C3A13961  13.969   2.468   7.154 -0.2223 -0.1847  0.0268
  936loPI   C4A13962  13.769   2.449   7.573 -0.1047  0.1384 -0.1979
  936loPI   C5A13963  13.516   2.504   7.959  0.1294  0.2777  0.2811
  936loPI   C6A13964  13.297   2.862   8.118  0.1525 -0.1521 -0.1495
  936loPI   C1B13965  13.531   2.186   6.222  0.3098  0.0644  0.1337
  936loPI   C2B13966  13.448   2.248   6.580  0.0539 -0.3781  0.0323
  936loPI   C3B13967  13.428   2.011   6.953  0.0839  0.1473  0.1684
  936loPI   C4B13968  13.229   1.854   7.333  0.1426 -0.0168  0.0233
  937loPI    C113969  15.798   8.068   5.895  0.0763  0.1557 -0.4427
  937loPI    C213970  15.894   8.305   6.202  0.2459 -0.2460 -0.1785
  937loPI    C313971  16.024   8.393   5.834  0.0206  0.2527 -0.1469
  937loPI   PO413972  15.776   7.733   5.914  0.0341 -0.1262  0.0972
  937loPI   GL113973  15.895   7.679   6.277 -0.2842  0.1597 -0.1114
  937loPI   GL213974  15.519   7.656   6.314 -0.0965  0.0690 -0.1299
  937loPI   C1A13975  15.975   8.054   6.605 -0.0775 -0.2034  0.1441
  937loPI   C2A13976  15.825   8.351   6.854 -0.3072  0.2241 -0.0926
  937loPI   C3A13977  15.702   8.374   7.308  0.0699  0.1167  0.2238
  937loPI   C4A13978  15.648   8.215   7.705 -0.1600 -0.1013  0.0781
  937loPI   C5A13979  15.530   8.295   8.131 -0.2239 -0.1103  0.2271
  937loPI   C6A13980  15.700   8.474   8.538 -0.0213  0.0958 -0.0694
  937loPI   C1B13981  15.569   7.765   6.786  0.1717 -0.4907 -0.0488
  937loPI   C2B13982  15.750   7.944   7.092 -0.2955  0.4186  0.2826
  937loPI   C3B13983  16.005   7.943   7.510 -0.1405  0.0516  0.1621
  937loPI   C4B13984  15.825   7.787   7.842 -0.2075  0.0533  0.0555
  938loPI    C113985   1.926   8.354   5.337 -0.1374  0.0596 -0.0053
  938loPI    C213986   2.040   8.717   5.459 -0.1120  0.0631 -0.0389
  938loPI    C313987   1.683   8.573   5.566 -0.0867  0.0625  0.0461
  938loPI   PO413988   2.245   8.159   5.402  0.2672 -0.1628 -0.0007
  938loPI   GL113989   2.471   8.089   5.828  0.0636 -0.1608 -0.1503
  938loPI   GL213990   2.197   7.810   5.693 -0.0500  0.0249  0.0939
  938loPI   C1A13991   2.327   8.263   6.228 -0.1835 -0.3280 -0.0195
  938loPI   C2A13992   2.333   8.332   6.674 -0.2547  0.1963 -0.0632
  938loPI   C3A13993   2.315   8.152   7.107 -0.3155  0.1846 -0.0842
  938loPI   C4A13994   2.463   8.204   7.518 -0.0451 -0.1579 -0.0125
  938loPI   C5A13995   2.443   8.478   7.937  0.1438  0.0205  0.0377
  938loPI   C6A13996   2.565   8.777   8.183 -0.1626  0.2955 -0.0443
  938loPI   C1B13997   2.091   7.862   6.161  0.0845  0.1012 -0.0237
  938loPI   C2B13998   2.182   7.841   6.618 -0.2047  0.1725 -0.3486
  938loPI   C3B13999   2.317   7.544   6.887  0.1428 -0.3189  0.1528
  938loPI   C4B14000   2.294   7.224   7.128 -0.2696  0.1142  0.2765
  939loPI    C114001  15.306  14.293   5.020  0.2070 -0.0155 -0.1412
  939loPI    C214002  15.350  14.071   4.691  0.1203  0.0727 -0.2126
  939loPI    C314003  15.090  14.375   4.694 -0.0636 -0.0837  0.0180
  939loPI   PO414004  15.353  14.095   5.246  0.2651 -0.1867  0.0068
  939loPI   GL114005  15.359  13.921   5.717  0.2046  0.2503 -0.0331
  939loPI   GL214006  15.171  13.827   5.901 -0.2080  0.3133  0.1744
  939loPI   C1A14007  15.564  14.237   6.100  0.0594  0.0281 -0.1422
  939loPI   C2A14008  15.542  14.217   6.636  0.2372  0.1145  0.1372
  939loPI   C3A14009  15.477  14.441   6.926  0.2145  0.1974  0.1503
  939loPI   C4A14010  15.559  14.568   7.321  0.0252  0.1836 -0.0414
  939loPI   C5A14011  15.869  14.524   7.627 -0.0738  0.1892 -0.1397
  939loPI   C6A14012  16.288  14.519   7.817  0.2184  0.2635 -0.0678
  939loPI   C1B14013  15.157  13.685   6.298 -0.1038  0.3016  0.0111
  939loPI   C2B14014  15.294  13.681   6.778  0.1563 -0.0559  0.1007
  939loPI   C3B14015  15.292  13.499   7.099  0.0028  0.0514 -0.1698
  939loPI   C4B14016  15.435  13.415   7.538  0.0902  0.0808 -0.0690
  940loPI    C114017  11.373   3.438   5.658 -0.0269 -0.0146 -0.0282
  940loPI    C214018  11.368   3.177   5.355 -0.1484  0.0666 -0.0967
  940loPI    C314019  11.655   3.455   5.375  0.0727 -0.1694  0.0604
  940loPI   PO414020  11.211   3.265   5.920 -0.1850 -0.1353 -0.2439
  940loPI   GL114021  10.905   3.028   6.234  0.0619  0.1148  0.2797
  940loPI   GL214022  10.640   2.855   6.333 -0.1221  0.1260 -0.0176
  940loPI   C1A14023  10.832   3.363   6.493 -0.1175  0.2126 -0.1144
  940loPI   C2A14024  10.758   3.509   6.857 -0.2270 -0.0661  0.1053
  940loPI   C3A14025  10.845   3.459   7.333  0.0035 -0.0025 -0.0982
  940loPI   C4A14026  10.671   3.509   7.687  0.2778 -0.2455 -0.0339
  940loPI   C5A14027  10.669   3.619   8.061 -0.1939  0.0413 -0.1010
  940loPI   C6A14028  10.425   3.675   8.310  0.0058 -0.0328  0.1416
  940loPI   C1B14029  10.724   2.955   6.716  0.0304  0.0725  0.0363
  940loPI   C2B14030  10.641   2.990   7.167 -0.5584 -0.2283  0.0390
  940loPI   C3B14031  10.644   2.974   7.628  0.1578 -0.0003  0.1181
  940loPI   C4B14032  10.546   3.138   8.029  0.2172 -0.0254  0.1756
  941loPI    C114033  14.810   5.647   5.851 -0.2652  0.0517 -0.0041
  941loPI    C214034  14.579   5.642   5.525 -0.0441  0.0844 -0.1635
  941loPI    C314035  14.957   5.770   5.500 -0.0149  0.0550  0.0997
  941loPI   PO414036  14.664   5.797   6.032  0.1194 -0.0371 -0.1676
  941loPI   GL114037  14.597   5.677   6.521 -0.1269  0.1987 -0.0974
  941loPI   GL214038  14.918   5.502   6.431 -0.0491 -0.1964 -0.0057
  941loPI   C1A14039  14.722   5.709   6.990  0.2251 -0.0354  0.0814
  941loPI   C2A14040  14.926   5.482   7.337  0.1436  0.2073  0.2809
  941loPI   C3A14041  15.107   5.174   7.447  0.2565 -0.1521 -0.1230
  941loPI   C4A14042  15.064   5.219   7.875 -0.0205  0.0943 -0.1790
  941loPI   C5A14043  14.751   5.201   8.175  0.0904  0.0768 -0.0154
  941loPI   C6A14044  14.412   5.147   8.396 -0.1169 -0.0514  0.4987
  941loPI   C1B14045  15.177   5.531   6.788  0.0838 -0.0842 -0.2094
  941loPI   C2B14046  15.423   5.516   7.204  0.2073 -0.2573 -0.1340
  941loPI   C3B14047  15.353   5.605   7.693  0.1453 -0.0745 -0.0293
  941loPI   C4B14048  15.470   5.833   8.069 -0.0872 -0.2576  0.1601
  942loPI    C114049   5.602   5.588   5.747  0.0227 -0.0528 -0.1719
  942loPI    C214050   5.440   5.836   5.477 -0.0218  0.0349 -0.0655
  942loPI    C314051   5.341   5.448   5.478 -0.4167  0.1302  0.1462
  942loPI   PO414052   5.591   5.713   5.936 -0.3613  0.0002 -0.2178
  942loPI   GL114053   5.567   6.037   6.319 -0.0110 -0.1580 -0.3406
  942loPI   GL214054   5.417   5.790   6.458  0.0887 -0.2065  0.0891
  942loPI   C1A14055   5.741   6.116   6.640 -0.1411 -0.5380  0.4609
  942loPI   C2A14056   5.710   6.331   7.113 -0.4209  0.1532 -0.2555
  942loPI   C3A14057   5.938   6.302   7.481 -0.1864  0.1805  0.0265
  942loPI   C4A14058   6.200   6.384   7.895  0.0138  0.1231  0.0688
  942loPI   C5A14059   6.525   6.235   8.126  0.1343 -0.0149 -0.1670
  942loPI   C6A14060   6.871   6.469   8.243 -0.0205 -0.0993 -0.1772
  942loPI   C1B14061   5.448   5.768   6.911 -0.0287 -0.1480 -0.1298
  942loPI   C2B14062   5.570   5.845   7.384  0.1576 -0.1211  0.0418
  942loPI   C3B14063   5.794   5.884   7.741 -0.0227  0.1230 -0.1897
  942loPI   C4B14064   6.144   5.914   8.147  0.3133  0.2395  0.0512
  943loPI    C114065  17.965   8.563   5.859 -0.1297 -0.0310  0.0305
  943loPI    C214066  17.854   8.268   5.613 -0.1461  0.0055 -0.0062
  943loPI    C314067  17.823   8.648   5.495 -0.1093  0.0213  0.0347
  943loPI   PO414068  17.876   8.516   6.072  0.0566 -0.0382  0.3632
  943loPI   GL114069  17.619   8.692   6.297 -0.0343 -0.1019 -0.0648
  943loPI   GL214070  17.898   8.819   6.499 -0.0765 -0.1188 -0.0488
  943loPI   C1A14071  17.315   8.804   6.510  0.1184  0.0764 -0.1681
  943loPI   C2A14072  17.216   8.716   6.933  0.1466 -0.2070  0.0643
  943loPI   C3A14073  17.224   8.494   7.299  0.2320 -0.1117  0.1069
  943loPI   C4A14074  17.297   8.428   7.733 -0.2096 -0.2605  0.2937
  943loPI   C5A14075  17.329   8.152   8.073 -0.2719  0.2070  0.1258
  943loPI   C6A14076  17.231   7.753   8.326  0.3124 -0.1323  0.1122
  943loPI   C1B14077  17.757   8.614   6.834  0.2417 -0.0380  0.1787
  943loPI   C2B14078  17.716   8.460   7.267  0.1055 -0.0166 -0.1267
  943loPI   C3B14079  17.815   8.352   7.628 -0.2224 -0.1516 -0.0352
  943loPI   C4B14080  17.797   8.166   7.927  0.0316  0.0656 -0.1646
  944loPI    C114081   8.901   8.517   5.809 -0.1165  0.1181 -0.1802
  944loPI    C214082   8.759   8.295   5.508  0.1000  0.0102 -0.2052
  944loPI    C314083   9.132   8.237   5.640  0.0062  0.0546  0.0871
  944loPI   PO414084   8.830   8.499   6.097 -0.2506 -0.1750 -0.1708
  944loPI   GL114085   8.871   8.528   6.517 -0.0393  0.1658 -0.0395
  944loPI   GL214086   9.172   8.815   6.449  0.1424 -0.1246 -0.0072
  944loPI   C1A14087   8.778   8.613   6.902 -0.2655  0.0669 -0.2339
  944loPI   C2A14088   8.715   8.798   7.344  0.0301 -0.3668  0.0896
  944loPI   C3A14089   9.082   8.790   7.640  0.0766 -0.0502  0.0880
  944loPI   C4A14090   9.491   8.767   7.837 -0.0624  0.1241  0.1340
  944loPI   C5A14091   9.689   8.721   8.173 -0.0137 -0.0626  0.0251
  944loPI   C6A14092   9.958   8.426   8.508  0.0121 -0.1309  0.1550
  944loPI   C1B14093   9.120   8.969   6.782 -0.0271 -0.0165  0.2193
  944loPI   C2B14094   9.034   9.132   7.188 -0.0701 -0.0590  0.0223
  944loPI   C3B14095   8.986   9.431   7.462 -0.1396  0.1402  0.1857
  944loPI   C4B14096   9.113   9.282   7.854  0.0438  0.0736 -0.1626
  945loPI    C114097  15.359  17.790   5.196 -0.0809 -0.1667  0.0279
  945loPI    C214098  15.648  17.810   4.920 -0.0929 -0.0875  0.0207
  945loPI    C314099  15.265  17.788   4.807 -0.1168  0.2330  0.0297
  945loPI   PO414100  15.483  17.625   5.462 -0.0887  0.0633 -0.0853
  945loPI   GL114101  15.591  17.825   5.863  0.1006 -0.0484 -0.0531
  945loPI   GL214102  15.296  17.671   5.905 -0.1741  0.1345  0.0781
  945loPI   C1A14103  15.548  18.031   6.207 -0.2316 -0.0589 -0.0569
  945loPI   C2A14104  15.595  18.120   6.605 -0.2196  0.0662 -0.0582
  945loPI   C3A14105  15.646  18.217   7.065 -0.1410  0.0356 -0.0881
  945loPI   C4A14106  15.903  18.145   7.472  0.1208 -0.3108  0.3105
  945loPI   C5A14107  16.189  18.019   7.764  0.0441 -0.1595 -0.2972
  945loPI   C6A14108  16.466  17.811   7.828  0.2244  0.0281  0.0315
  945loPI   C1B14109  15.498  17.434   6.170  0.1906 -0.0836 -0.0100
  945loPI   C2B14110  15.599  16.987   6.292  0.2158  0.0422  0.0404
  945loPI   C3B14111  15.437  16.686   6.405  0.0102  0.2442  0.1362
  945loPI   C4B14112  15.518  16.403   6.767  0.1000  0.0018  0.2431
  946loPI    C114113   2.159   2.415   5.135  0.1971  0.1194  0.0710
  946loPI    C214114   2.251   2.397   4.746  0.1154  0.2154  0.0470
  946loPI    C314115   2.271   2.746   4.941 -0.0616  0.2112  0.0749
  946loPI   PO414116   1.977   2.156   5.217  0.1479 -0.1715  0.2308
  946loPI   GL114117   1.929   2.117   5.671  0.3011 -0.0508 -0.1430
  946loPI   GL214118   1.611   2.372   5.756 -0.1670 -0.0870  0.2145
  946loPI   C1A14119   1.855   1.906   6.117 -0.2672  0.0254 -0.0444
  946loPI   C2A14120   1.971   1.749   6.498 -0.0381 -0.1536  0.0168
  946loPI   C3A14121   2.218   1.466   6.730 -0.1431 -0.0033 -0.0232
  946loPI   C4A14122   2.371   1.495   7.075 -0.0091  0.3265  0.1885
  946loPI   C5A14123   2.529   1.253   7.516  0.4434  0.1629 -0.1941
  946loPI   C6A14124   2.663   1.236   7.940  0.0011 -0.0152 -0.3087
  946loPI   C1B14125   1.627   2.313   6.208 -0.1752 -0.1665 -0.3358
  946loPI   C2B14126   1.677   2.323   6.641  0.0338 -0.0923 -0.1808
  946loPI   C3B14127   1.687   2.342   7.101  0.0067  0.1332  0.2190
  946loPI   C4B14128   1.874   2.264   7.539  0.3558  0.3808 -0.2455
  947loPI    C114129  18.001  11.333   5.793 -0.2889 -0.2327 -0.0476
  947loPI    C214130  17.767  11.387   5.473 -0.2150 -0.1768 -0.0926
  947loPI    C314131  18.116  11.196   5.435 -0.1236 -0.0145 -0.0802
  947loPI   PO414132  18.068  11.572   5.887 -0.2175  0.0139 -0.1787
  947loPI   GL114133  18.193  11.942   5.967 -0.0937 -0.0422  0.1775
  947loPI   GL214134  17.859  11.970   6.144  0.3452 -0.1577  0.1402
  947loPI   C1A14135  18.323  12.061   6.341  0.0723 -0.0912  0.0333
  947loPI   C2A14136  18.526  12.248   6.655  0.0267  0.1852  0.2460
  947loPI   C3A14137  18.889  12.380   6.962 -0.0366 -0.2814 -0.2032
  947loPI   C4A14138  18.928  12.307   7.383  0.0799  0.1945 -0.1724
  947loPI   C5A14139  18.848  12.320   7.837  0.0369  0.1590 -0.0161
  947loPI   C6A14140  18.721  12.157   8.254 -0.0360  0.0987 -0.1714
  947loPI   C1B14141  17.729  12.077   6.449 -0.1678  0.0401  0.0800
  947loPI   C2B14142  17.706  12.149   6.851 -0.0036  0.1581 -0.0819
  947loPI   C3B14143  17.630  12.176   7.341 -0.0107  0.2369 -0.2087
  947loPI   C4B14144  17.558  12.394   7.728 -0.1145  0.4000  0.0220
  948loPI    C114145  16.546  13.422   5.191 -0.3306 -0.0507 -0.0377
  948loPI    C214146  16.750  13.167   4.960  0.1415  0.1831  0.1080
  948loPI    C314147  16.728  13.554   4.860 -0.2414  0.1618  0.0941
  948loPI   PO414148  16.707  13.413   5.405  0.1918  0.3160 -0.0111
  948loPI   GL114149  16.793  13.476   5.770 -0.2148  0.0238  0.1712
  948loPI   GL214150  16.440  13.552   5.822  0.1289  0.2068  0.1293
  948loPI   C1A14151  17.074  13.429   6.123  0.1239  0.0650 -0.1399
  948loPI   C2A14152  17.222  13.341   6.607 -0.0591 -0.1506 -0.0829
  948loPI   C3A14153  17.254  13.529   7.105  0.1043 -0.1381 -0.1857
  948loPI   C4A14154  17.141  13.524   7.566 -0.2077  0.3078  0.2054
  948loPI   C5A14155  17.086  13.284   7.912 -0.2119  0.1023  0.1025
  948loPI   C6A14156  17.140  12.979   8.207 -0.0078  0.1521 -0.1883
  948loPI   C1B14157  16.544  13.450   6.196  0.1141  0.1404  0.0982
  948loPI   C2B14158  16.731  13.509   6.548 -0.2532 -0.0289 -0.0146
  948loPI   C3B14159  16.688  13.515   6.997  0.1588 -0.0708  0.0010
  948loPI   C4B14160  16.804  13.786   7.313  0.0339  0.1760 -0.1597
  949loPI    C114161  12.600   2.857   5.558 -0.0414  0.0551  0.1002
  949loPI    C214162  12.829   3.178   5.625 -0.0420  0.0598  0.0803
  949loPI    C314163  12.614   3.152   5.289  0.0641 -0.0239  0.0182
  949loPI   PO414164  12.582   2.749   5.746  0.1554 -0.1719 -0.1851
  949loPI   GL114165  12.672   2.362   5.891 -0.0981 -0.1330 -0.3904
  949loPI   GL214166  12.930   2.167   5.836  0.2270  0.1624 -0.1371
  949loPI   C1A14167  12.589   2.490   6.337 -0.0236 -0.1747  0.1568
  949loPI   C2A14168  12.546   2.410   6.791 -0.2285  0.1143 -0.1196
  949loPI   C3A14169  12.373   2.327   7.145 -0.1648  0.3333  0.0673
  949loPI   C4A14170  12.219   2.293   7.588 -0.2582 -0.2700  0.0404
  949loPI   C5A14171  12.183   2.137   7.968 -0.1863 -0.0893 -0.2547
  949loPI   C6A14172  12.223   2.130   8.446  0.0197 -0.2283 -0.1680
  949loPI   C1B14173  13.046   2.350   6.291  0.1690  0.0295  0.2024
  949loPI   C2B14174  12.999   2.308   6.738  0.1637  0.1122  0.0872
  949loPI   C3B14175  12.882   2.277   7.163  0.3038 -0.3126  0.0783
  949loPI   C4B14176  12.740   2.181   7.577 -0.0878  0.1518  0.1593
  950loPI    C114177   5.159  17.790   5.350  0.0191  0.2820 -0.2111
  950loPI    C214178   5.235  17.503   5.082  0.2277  0.0014  0.1385
  950loPI    C314179   5.522  17.761   5.185  0.2092 -0.0180  0.2397
  950loPI   PO414180   4.966  17.720   5.515 -0.0441  0.0817 -0.1462
  950loPI   GL114181   4.578  17.881   5.859  0.0833  0.0550  0.0703
  950loPI   GL214182   4.741  18.098   5.943  0.0804  0.0979 -0.1704
  950loPI   C1A14183   4.162  18.118   6.095 -0.0716  0.2695 -0.0760
  950loPI   C2A14184   3.987  18.216   6.500  0.1401  0.1201 -0.0661
  950loPI   C3A14185   4.041  18.355   6.926 -0.1110  0.4573 -0.0136
  950loPI   C4A14186   4.052  18.419   7.303  0.0804  0.0387  0.1788
  950loPI   C5A14187   4.156  18.516   7.716  0.0368  0.1313 -0.0027
  950loPI   C6A14188   4.158  18.331   8.134 -0.0801 -0.1329 -0.2698
  950loPI   C1B14189   4.630  18.299   6.310  0.1942 -0.2717  0.0166
  950loPI   C2B14190   4.479  18.231   6.687  0.0082 -0.1295 -0.0304
  950loPI   C3B14191   4.510  18.086   7.116 -0.1494  0.1080  0.1478
  950loPI   C4B14192   4.487  18.123   7.515 -0.0127  0.2441 -0.0910
  951loPI    C114193   3.051   0.772   5.063 -0.0956  0.2072  0.0875
  951loPI    C214194   3.375   0.646   4.865 -0.0640 -0.1171  0.3382
  951loPI    C314195   3.244   1.021   4.816  0.0266 -0.1460 -0.1816
  951loPI   PO414196   3.046   0.585   5.256 -0.2105  0.1004 -0.0329
  951loPI   GL114197   3.124   0.637   5.705  0.1363 -0.3041 -0.2550
  951loPI   GL214198   3.410   0.447   5.723 -0.0315  0.2266  0.0297
  951loPI   C1A14199   2.814   0.623   6.062 -0.2209 -0.1176 -0.1133
  951loPI   C2A14200   2.707   0.565   6.467 -0.1272  0.1361  0.2667
  951loPI   C3A14201   2.669   0.567   6.878 -0.0580 -0.4649 -0.0143
  951loPI   C4A14202   2.618   0.449   7.227 -0.2161  0.1770 -0.0060
  951loPI   C5A14203   2.620   0.381   7.723  0.0307 -0.1677  0.1346
  951loPI   C6A14204   3.055   0.242   8.000  0.2281  0.0753  0.2197
  951loPI   C1B14205   3.298   0.552   6.175 -0.0562 -0.0156  0.0087
  951loPI   C2B14206   3.191   0.665   6.606  0.2461  0.2080  0.2437
  951loPI   C3B14207   3.188   0.652   7.037  0.1311 -0.0071 -0.0755
  951loPI   C4B14208   3.115   0.460   7.488  0.1268 -0.0670 -0.1580
  952loPI    C114209   2.383  12.318   5.409  0.0733 -0.1343  0.0065
  952loPI    C214210   2.039  12.378   5.604  0.0696  0.0181 -0.0454
  952loPI    C314211   2.050  12.135   5.287  0.0230 -0.0345 -0.0070
  952loPI   PO414212   2.512  12.252   5.669 -0.0149 -0.2258 -0.0125
  952loPI   GL114213   2.767  12.196   6.009  0.0429  0.0137  0.0828
  952loPI   GL214214   3.137  12.001   6.102 -0.2282 -0.0886 -0.1347
  952loPI   C1A14215   2.741  12.288   6.377  0.0409 -0.0686  0.1153
  952loPI   C2A14216   2.613  12.256   6.785 -0.0498  0.0201 -0.3304
  952loPI   C3A14217   2.546  12.288   7.195  0.4228  0.0700  0.0872
  952loPI   C4A14218   2.535  12.398   7.660  0.3840  0.0370 -0.0743
  952loPI   C5A14219   2.764  12.327   8.074  0.2291  0.2470  0.0412
  952loPI   C6A14220   2.838  12.006   8.297  0.0499 -0.1376  0.4093
  952loPI   C1B14221   3.162  12.032   6.522 -0.1564  0.3370  0.0732
  952loPI   C2B14222   3.029  11.996   6.899 -0.1819  0.2158 -0.1515
  952loPI   C3B14223   3.032  12.041   7.360 -0.0082  0.0458 -0.1502
  952loPI   C4B14224   2.990  11.915   7.806  0.1344 -0.2484  0.0325
  953loPI    C114225  17.143  13.450   5.222 -0.0764  0.0604  0.0342
  953loPI    C214226  17.372  13.539   4.906  0.1809 -0.0029  0.1991
  953loPI    C314227  17.271  13.159   4.980 -0.2365  0.0542 -0.0437
  953loPI   PO414228  17.263  13.509   5.477 -0.0541 -0.5574 -0.1140
  953loPI   GL114229  17.309  13.943   5.772 -0.0562 -0.1077  0.0770
  953loPI   GL214230  17.189  14.266   5.737  0.0683  0.0903 -0.3087
  953loPI   C1A14231  17.488  13.697   6.161  0.1392  0.0677  0.0031
  953loPI   C2A14232  17.614  13.708   6.574 -0.0094  0.3278  0.1256
  953loPI   C3A14233  17.728  13.710   7.046 -0.1791 -0.0224 -0.0406
  953loPI   C4A14234  17.651  13.772   7.453  0.2205 -0.3233 -0.2486
  953loPI   C5A14235  17.449  13.863   7.829 -0.0110  0.1914 -0.0600
  953loPI   C6A14236  17.240  13.653   8.213 -0.0645  0.1903  0.0879
  953loPI   C1B14237  17.255  14.422   6.165 -0.3193  0.0614 -0.0561
  953loPI   C2B14238  17.182  14.536   6.588  0.0412 -0.0683  0.2897
  953loPI   C3B14239  17.272  14.493   6.997 -0.0658 -0.1551  0.2124
  953loPI   C4B14240  17.275  14.429   7.400  0.1281 -0.0427  0.0948
  954loPI    C114241   0.548  16.223   5.143  0.0286  0.2157 -0.0806
  954loPI    C214242   0.825  16.068   4.899 -0.1630 -0.1381 -0.0811
  954loPI    C314243   0.475  16.193   4.751 -0.1422 -0.0220 -0.0334
  954loPI   PO414244   0.536  16.081   5.377 -0.2015  0.2723  0.2988
  954loPI   GL114245   0.665  15.975   5.746 -0.2664  0.1690 -0.2844
  954loPI   GL214246   0.681  15.767   6.026  0.1108 -0.0566  0.0735
  954loPI   C1A14247   0.724  16.225   6.137 -0.2173 -0.0279  0.0720
  954loPI   C2A14248   0.698  16.319   6.610  0.2265  0.2535 -0.1537
  954loPI   C3A14249   0.676  16.292   6.964  0.1429 -0.1474 -0.2747
  954loPI   C4A14250   0.544  16.347   7.420 -0.2321 -0.0413  0.1579
  954loPI   C5A14251   0.439  16.724   7.588  0.1437  0.0450 -0.0424
  954loPI   C6A14252   0.454  17.123   7.837 -0.0652 -0.1574  0.1355
  954loPI   C1B14253   0.580  15.738   6.435  0.1897 -0.1531  0.0035
  954loPI   C2B14254   0.656  15.801   6.833  0.1900  0.2411 -0.0573
  954loPI   C3B14255   0.679  15.743   7.204 -0.0688  0.1534 -0.0944
  954loPI   C4B14256   0.449  15.862   7.496 -0.1536 -0.0034 -0.0373
  955loPI    C114257   2.588   3.618   5.268  0.0621  0.0219 -0.0923
  955loPI    C214258   2.235   3.511   5.115 -0.0458  0.0089  0.1606
  955loPI    C314259   2.490   3.231   5.244  0.1300  0.0097 -0.1750
  955loPI   PO414260   2.572   3.789   5.454 -0.1902  0.2235 -0.0253
  955loPI   GL114261   2.457   3.827   5.833 -0.0046 -0.2244  0.0101
  955loPI   GL214262   2.413   4.199   5.843 -0.1840 -0.0994 -0.3735
  955loPI   C1A14263   2.146   3.671   6.099 -0.0921 -0.0032 -0.0731
  955loPI   C2A14264   2.078   3.574   6.493  0.2754  0.2904  0.0904
  955loPI   C3A14265   2.062   3.537   6.918  0.1626  0.0365 -0.2231
  955loPI   C4A14266   2.046   3.307   7.224  0.0257 -0.3673  0.0588
  955loPI   C5A14267   1.894   3.349   7.596 -0.0181 -0.0742 -0.2576
  955loPI   C6A14268   2.076   3.211   7.923 -0.1010 -0.1653  0.0891
  955loPI   C1B14269   2.222   4.177   6.228 -0.1824  0.0438 -0.1450
  955loPI   C2B14270   2.185   4.072   6.636 -0.1544 -0.0011 -0.0837
  955loPI   C3B14271   2.224   4.075   7.098 -0.1819 -0.1946 -0.0345
  955loPI   C4B14272   2.131   4.121   7.523  0.2379  0.0717 -0.0994
  956loPI    C114273  12.764   4.632   5.640  0.0409  0.2002 -0.0085
  956loPI    C214274  12.915   4.910   5.396 -0.1865  0.2825 -0.0580
  956loPI    C314275  12.818   4.550   5.253  0.1083  0.1747  0.0062
  956loPI   PO414276  12.968   4.553   5.889 -0.1342  0.2348  0.0701
  956loPI   GL114277  13.122   4.430   6.303  0.2048 -0.1175 -0.1626
  956loPI   GL214278  12.856   4.225   6.264  0.1776  0.0030  0.1051
  956loPI   C1A14279  13.349   4.395   6.674  0.3942  0.0024  0.3300
  956loPI   C2A14280  13.345   4.278   7.110 -0.2425  0.0275 -0.0951
  956loPI   C3A14281  13.290   4.034   7.469 -0.1067 -0.1571  0.1395
  956loPI   C4A14282  13.105   4.035   7.866  0.1576 -0.1439 -0.0780
  956loPI   C5A14283  12.907   4.020   8.302 -0.0951  0.1279  0.0823
  956loPI   C6A14284  12.846   4.379   8.518  0.0021  0.0148 -0.0474
  956loPI   C1B14285  12.843   4.150   6.757 -0.1099  0.1484  0.2034
  956loPI   C2B14286  12.899   4.107   7.220 -0.3308  0.3552 -0.1439
  956loPI   C3B14287  12.701   4.218   7.553  0.2619 -0.0593 -0.2057
  956loPI   C4B14288  12.811   4.472   7.940 -0.2250 -0.1995 -0.2845
  957loPI    C114289  13.886   3.637   5.648 -0.1138  0.1664  0.1058
  957loPI    C214290  13.993   3.717   5.270  0.1164 -0.0950  0.1122
  957loPI    C314291  14.254   3.772   5.568 -0.0198 -0.0195  0.2193
  957loPI   PO414292  13.824   3.342   5.661 -0.1305 -0.4584  0.1203
  957loPI   GL114293  13.838   3.164   6.120 -0.0774  0.1474 -0.3746
  957loPI   GL214294  13.636   2.960   5.991 -0.1124 -0.0944  0.0693
  957loPI   C1A14295  13.886   3.056   6.535  0.0089  0.2141  0.2346
  957loPI   C2A14296  13.944   2.988   6.972 -0.0365  0.1823 -0.1091
  957loPI   C3A14297  14.000   2.961   7.394  0.0110  0.0440 -0.0992
  957loPI   C4A14298  14.012   2.962   7.818  0.0254  0.2587  0.2557
  957loPI   C5A14299  14.209   2.900   8.162 -0.2494  0.0602  0.1028
  957loPI   C6A14300  14.626   2.969   8.374 -0.0634 -0.1228  0.0494
  957loPI   C1B14301  13.524   2.702   6.354  0.0749 -0.2899 -0.2542
  957loPI   C2B14302  13.487   2.671   6.796  0.0131  0.0152 -0.2646
  957loPI   C3B14303  13.428   2.545   7.180 -0.0707  0.1995  0.2853
  957loPI   C4B14304  13.262   2.328   7.478 -0.1806 -0.0581  0.0325
  958loPI    C114305   0.739  11.101   5.427 -0.2371 -0.0701  0.2559
  958loPI    C214306   0.815  11.462   5.272  0.0267 -0.1958  0.0854
  958loPI    C314307   0.510  11.244   5.133  0.0169 -0.1399  0.0192
  958loPI   PO414308   0.867  11.156   5.649  0.3435 -0.4127  0.0541
  958loPI   GL114309   0.711  11.157   6.032  0.2382  0.0456 -0.1747
  958loPI   GL214310   0.376  11.285   6.183 -0.1916  0.0481 -0.0451
  958loPI   C1A14311   0.893  11.369   6.278  0.0494 -0.0095 -0.1352
  958loPI   C2A14312   0.764  11.436   6.687 -0.0699  0.0132 -0.3785
  958loPI   C3A14313   0.729  11.355   7.102  0.3427 -0.0925 -0.0024
  958loPI   C4A14314   0.795  11.310   7.542 -0.0002  0.0751 -0.1687
  958loPI   C5A14315   0.622  11.358   7.944  0.0362 -0.0097  0.2180
  958loPI   C6A14316   0.728  11.539   8.356 -0.0495 -0.0350 -0.0672
  958loPI   C1B14317   0.359  11.184   6.563 -0.2497 -0.1434 -0.1986
  958loPI   C2B14318   0.297  11.493   6.952 -0.2549 -0.1205  0.1047
  958loPI   C3B14319   0.275  11.243   7.218  0.4145 -0.1642 -0.0578
  958loPI   C4B14320   0.368  11.143   7.577 -0.0437 -0.0861 -0.0332
  959loPI    C114321  12.758  16.365   5.086  0.1282  0.0017 -0.2927
  959loPI    C214322  13.136  16.439   4.981  0.1107  0.2390 -0.1957
  959loPI    C314323  12.929  16.152   4.794  0.4328 -0.1009 -0.0452
  959loPI   PO414324  12.706  16.343   5.346 -0.1559  0.2242 -0.2059
  959loPI   GL114325  12.799  15.933   5.644  0.1366 -0.2930  0.2935
  959loPI   GL214326  12.503  15.994   5.791 -0.2909  0.2815  0.0104
  959loPI   C1A14327  12.966  16.168   5.919 -0.1932  0.3536 -0.0854
  959loPI   C2A14328  13.017  16.305   6.335  0.1333  0.0189 -0.1546
  959loPI   C3A14329  13.119  16.447   6.791  0.2024  0.2717 -0.2619
  959loPI   C4A14330  13.129  16.453   7.285  0.3925 -0.0454 -0.0843
  959loPI   C5A14331  13.295  16.320   7.588  0.0036 -0.1007  0.1711
  959loPI   C6A14332  13.470  16.383   8.035 -0.1128  0.0208 -0.4086
  959loPI   C1B14333  12.588  16.041   6.144 -0.3741  0.1234  0.1946
  959loPI   C2B14334  12.710  16.014   6.586  0.3309  0.3047 -0.1297
  959loPI   C3B14335  12.850  16.076   7.047  0.0677  0.1059  0.1878
  959loPI   C4B14336  12.920  15.956   7.436  0.1251  0.0619 -0.0898
  960loPI    C114337   4.753   6.081   5.648 -0.0562 -0.1850 -0.1321
  960loPI    C214338   4.608   5.960   5.295  0.0488  0.0046 -0.2417
  960loPI    C314339   4.983   6.098   5.321  0.0564 -0.0504 -0.0469
  960loPI   PO414340   4.589   5.891   5.829  0.1326  0.0024  0.0873
  960loPI   GL114341   4.248   5.845   6.056 -0.2393  0.1591 -0.1773
  960loPI   GL214342   4.099   5.599   6.085  0.2135 -0.0854 -0.2984
  960loPI   C1A14343   4.401   5.758   6.490 -0.0466  0.2042  0.1665
  960loPI   C2A14344   4.372   5.735   6.828  0.0018  0.1544  0.0248
  960loPI   C3A14345   4.438   5.828   7.139 -0.0192 -0.1491  0.0923
  960loPI   C4A14346   4.491   5.691   7.552  0.1182 -0.2571 -0.0400
  960loPI   C5A14347   4.524   5.524   7.914  0.0604  0.1276 -0.2660
  960loPI   C6A14348   4.607   5.770   8.324  0.1110  0.0839 -0.2485
  960loPI   C1B14349   4.083   5.378   6.563  0.3403  0.1912  0.3499
  960loPI   C2B14350   4.232   5.308   6.994 -0.0022 -0.0796 -0.0875
  960loPI   C3B14351   4.196   5.347   7.389 -0.1475 -0.0383 -0.0531
  960loPI   C4B14352   4.135   5.221   7.832  0.2720 -0.1789 -0.0172
  961loPI    C114353   9.658   4.260   5.577  0.0958  0.0714  0.1189
  961loPI    C214354   9.452   4.313   5.239  0.2609 -0.0487 -0.0023
  961loPI    C314355   9.581   3.948   5.338  0.4222  0.0267  0.0680
  961loPI   PO414356   9.830   4.442   5.541  0.0491 -0.0189  0.0575
  961loPI   GL114357  10.156   4.306   5.807 -0.0731  0.0607  0.3310
  961loPI   GL214358   9.969   4.573   6.002  0.0756 -0.0576  0.2269
  961loPI   C1A14359  10.388   4.406   6.194 -0.0870 -0.1377  0.0127
  961loPI   C2A14360  10.292   4.339   6.592 -0.2790 -0.0658  0.0317
  961loPI   C3A14361  10.130   4.326   7.015  0.1928  0.2059  0.0559
  961loPI   C4A14362  10.060   4.240   7.475  0.2502 -0.2173  0.2637
  961loPI   C5A14363  10.066   4.386   7.883 -0.1609 -0.1527  0.0368
  961loPI   C6A14364  10.188   4.111   8.354 -0.0649 -0.0976 -0.1924
  961loPI   C1B14365   9.908   4.549   6.390  0.2263 -0.0144  0.0920
  961loPI   C2B14366   9.859   4.662   6.743 -0.1767 -0.1471  0.2280
  961loPI   C3B14367   9.978   4.761   7.161 -0.0234 -0.0404  0.0216
  961loPI   C4B14368   9.815   4.744   7.651 -0.0606  0.2804  0.1302
  962loPI    C114369   6.199   7.227   5.486 -0.0087 -0.0985 -0.3914
  962loPI    C214370   5.957   7.541   5.541  0.1325 -0.0591  0.0424
  962loPI    C314371   5.830   7.226   5.330 -0.1892  0.0825  0.0182
  962loPI   PO414372   6.344   7.097   5.712  0.1050  0.0830  0.1322
  962loPI   GL114373   6.493   6.946   6.157  0.0117  0.1138 -0.0353
  962loPI   GL214374   6.192   6.930   6.137 -0.0519  0.4465  0.1304
  962loPI   C1A14375   6.457   6.762   6.567  0.2222  0.0774 -0.0587
  962loPI   C2A14376   6.578   6.774   7.023 -0.2513  0.0764  0.0247
  962loPI   C3A14377   6.645   7.034   7.499 -0.1027 -0.1548 -0.0355
  962loPI   C4A14378   6.875   7.212   7.767 -0.2232  0.0333 -0.1938
  962loPI   C5A14379   7.309   7.396   7.928 -0.1437 -0.1303  0.0222
  962loPI   C6A14380   7.678   7.416   8.030  0.1098  0.2414 -0.0257
  962loPI   C1B14381   5.952   6.965   6.500 -0.1056 -0.0940  0.1126
  962loPI   C2B14382   6.048   6.899   6.875 -0.2126 -0.1579  0.0482
  962loPI   C3B14383   5.895   6.812   7.219  0.3592 -0.1725  0.0853
  962loPI   C4B14384   5.972   6.803   7.713 -0.2815  0.0154 -0.1683
  963loPI    C114385   0.499   3.231   5.294 -0.0576  0.0046 -0.2108
  963loPI    C214386   0.695   2.885   5.336  0.0871  0.0806 -0.2530
  963loPI    C314387   0.341   2.893   5.150 -0.1492 -0.1211  0.1731
  963loPI   PO414388   0.455   3.331   5.498  0.1520  0.2065 -0.0113
  963loPI   GL114389   0.474   3.050   5.752  0.1064  0.0950  0.1941
  963loPI   GL214390   0.787   3.089   5.824 -0.0750  0.1611 -0.0060
  963loPI   C1A14391   0.648   2.703   6.041  0.0057  0.0597  0.0991
  963loPI   C2A14392   0.896   2.723   6.386 -0.2309 -0.1993  0.0990
  963loPI   C3A14393   0.866   2.784   6.804 -0.0324 -0.0028  0.2041
  963loPI   C4A14394   0.931   2.606   7.159 -0.1566  0.2913  0.0026
  963loPI   C5A14395   0.911   2.461   7.623 -0.1801 -0.2793  0.2067
  963loPI   C6A14396   0.789   2.541   7.978 -0.0502 -0.2531 -0.2160
  963loPI   C1B14397   0.632   3.157   6.198  0.1255  0.1080 -0.2197
  963loPI   C2B14398   0.691   3.223   6.625 -0.2306 -0.0843 -0.0631
  963loPI   C3B14399   0.756   3.557   6.823 -0.1363  0.1304  0.1518
  963loPI   C4B14400   0.796   4.051   6.938 -0.3031 -0.2889 -0.1597
  964loPI    C114401   0.992   6.120   5.560  0.0778  0.1341  0.0316
  964loPI    C214402   1.382   6.180   5.495  0.1835  0.0567  0.5532
  964loPI    C314403   1.114   6.445   5.361  0.3947  0.0205  0.0348
  964loPI   PO414404   0.952   6.155   5.838  0.1624 -0.2948 -0.2099
  964loPI   GL114405   0.764   5.860   6.188  0.0232 -0.0659 -0.1220
  964loPI   GL214406   0.584   6.008   6.214  0.0138  0.1294  0.1979
  964loPI   C1A14407   0.782   5.750   6.634 -0.3177 -0.0141 -0.0107
  964loPI   C2A14408   0.867   5.603   7.097 -0.1896 -0.1878 -0.0504
  964loPI   C3A14409   1.077   5.339   7.228  0.0029  0.0717 -0.1563
  964loPI   C4A14410   1.287   5.080   7.478  0.0274 -0.0065  0.0815
  964loPI   C5A14411   1.574   4.682   7.725  0.0780 -0.4173 -0.0428
  964loPI   C6A14412   1.723   4.240   7.808  0.0978  0.0508 -0.1411
  964loPI   C1B14413   0.597   6.244   6.650  0.2411  0.0597  0.0904
  964loPI   C2B14414   0.909   6.505   6.782  0.0713  0.2241 -0.5863
  964loPI   C3B14415   1.042   6.670   7.172  0.0651  0.2821  0.0917
  964loPI   C4B14416   0.895   6.935   7.524  0.0626 -0.1717 -0.0536
  965loPI    C114417  16.314   1.285   5.300  0.1705  0.0943  0.0213
  965loPI    C214418  16.381   0.892   5.263 -0.0685  0.0576 -0.0377
  965loPI    C314419  16.559   1.150   5.015 -0.1202 -0.0351 -0.1726
  965loPI   PO414420  16.311   1.316   5.511 -0.0212  0.3754 -0.2346
  965loPI   GL114421  16.508   1.284   5.867  0.0394  0.0104 -0.0339
  965loPI   GL214422  16.541   1.701   5.821 -0.0083 -0.0176 -0.0901
  965loPI   C1A14423  16.531   1.149   6.223  0.2208  0.0168 -0.3040
  965loPI   C2A14424  16.534   1.134   6.662 -0.1065  0.1237 -0.1606
  965loPI   C3A14425  16.575   1.193   7.077 -0.0407 -0.1551  0.3199
  965loPI   C4A14426  16.572   1.299   7.487  0.0233  0.0580 -0.2916
  965loPI   C5A14427  16.705   1.467   7.910  0.3803  0.0747 -0.1689
  965loPI   C6A14428  16.399   1.591   8.213 -0.1574 -0.3112 -0.0488
  965loPI   C1B14429  16.754   1.717   6.230 -0.1902 -0.0450 -0.1950
  965loPI   C2B14430  16.815   1.538   6.722  0.0743 -0.1833 -0.0101
  965loPI   C3B14431  16.888   1.585   7.169 -0.0955 -0.0627  0.0574
  965loPI   C4B14432  17.077   1.462   7.561 -0.1268 -0.0197  0.0884
  966loPI    C114433  10.868   2.391   5.529 -0.0325 -0.1971  0.0154
  966loPI    C214434  10.788   2.387   5.137  0.0742  0.1412 -0.0133
  966loPI    C314435  11.134   2.239   5.273  0.0728  0.0995 -0.0551
  966loPI   PO414436  10.674   2.572   5.580 -0.0139  0.1141 -0.0193
  966loPI   GL114437  10.423   2.640   5.952  0.0158  0.2439  0.1089
  966loPI   GL214438  10.154   2.551   5.835 -0.0388  0.1208  0.1578
  966loPI   C1A14439  10.516   2.369   6.283 -0.1377 -0.1607 -0.0222
  966loPI   C2A14440  10.471   2.403   6.683 -0.1563 -0.1636  0.2252
  966loPI   C3A14441  10.530   2.516   7.048 -0.0550 -0.2791 -0.0204
  966loPI   C4A14442  10.450   2.418   7.465  0.2279  0.3306 -0.1278
  966loPI   C5A14443  10.710   2.507   7.881  0.0020 -0.0378 -0.1042
  966loPI   C6A14444  10.874   2.731   8.247  0.1303  0.1851 -0.0090
  966loPI   C1B14445  10.085   2.557   6.301  0.0302  0.0346  0.0262
  966loPI   C2B14446   9.998   2.568   6.648 -0.1556  0.0384 -0.0673
  966loPI   C3B14447  10.015   2.380   7.057 -0.4584 -0.0650 -0.3567
  966loPI   C4B14448   9.940   2.340   7.426 -0.1105 -0.0247 -0.2299
  967loPI    C114449   7.799  12.488   5.826 -0.1006  0.2127 -0.0415
  967loPI    C214450   7.697  12.475   5.439  0.2759  0.1507 -0.1425
  967loPI    C314451   7.728  12.136   5.649  0.1071  0.1818 -0.0663
  967loPI   PO414452   8.067  12.579   5.829  0.2703 -0.0914 -0.1200
  967loPI   GL114453   8.280  12.300   6.124 -0.0086 -0.2134 -0.0780
  967loPI   GL214454   8.597  12.440   6.168  0.1587 -0.0650  0.2344
  967loPI   C1A14455   8.202  12.407   6.503  0.1789 -0.1619 -0.0696
  967loPI   C2A14456   8.123  12.215   6.845 -0.1328  0.1008  0.1447
  967loPI   C3A14457   7.897  12.105   7.145 -0.0163 -0.0176 -0.3615
  967loPI   C4A14458   7.438  12.020   7.365  0.2143  0.2534  0.1377
  967loPI   C5A14459   7.192  12.370   7.526  0.0653  0.0705  0.1494
  967loPI   C6A14460   7.021  12.596   7.869 -0.1902 -0.1250 -0.1221
  967loPI   C1B14461   8.606  12.713   6.581  0.0434 -0.1454 -0.2955
  967loPI   C2B14462   8.777  12.988   6.793 -0.1290  0.0932  0.1762
  967loPI   C3B14463   8.885  13.213   7.190 -0.2124  0.3616  0.0509
  967loPI   C4B14464   8.763  13.461   7.535 -0.1399  0.0326  0.2572
  968loPI    C114465  11.499   9.601   5.512 -0.0380 -0.3003 -0.1860
  968loPI    C214466  11.755   9.584   5.205  0.2913  0.1463  0.0520
  968loPI    C314467  11.376   9.699   5.144  0.2586 -0.0992 -0.2349
  968loPI   PO414468  11.588   9.741   5.752  0.0902 -0.2191  0.4615
  968loPI   GL114469  11.583   9.637   6.142  0.0181  0.1482  0.7123
  968loPI   GL214470  11.317   9.476   6.128 -0.0689 -0.0883 -0.0403
  968loPI   C1A14471  11.675   9.601   6.562 -0.1308 -0.1148 -0.1190
  968loPI   C2A14472  11.749   9.526   7.051  0.2319 -0.1965  0.1881
  968loPI   C3A14473  11.730   9.514   7.465 -0.0458  0.3079  0.1996
  968loPI   C4A14474  12.006   9.484   7.837  0.1512 -0.1029  0.1920
  968loPI   C5A14475  12.260   9.580   8.066 -0.0869 -0.4415  0.3931
  968loPI   C6A14476  12.484   9.763   8.498  0.0772 -0.2832  0.2639
  968loPI   C1B14477  11.174   9.336   6.531 -0.2036  0.1951 -0.0618
  968loPI   C2B14478  11.192   9.382   6.967 -0.0005  0.2304  0.0934
  968loPI   C3B14479  11.292   9.329   7.282 -0.1453 -0.0548  0.2388
  968loPI   C4B14480  11.275   9.460   7.706 -0.0074 -0.0087  0.0167
  969loPI    C114481   2.796   5.588   5.122 -0.0650  0.0566 -0.1413
  969loPI    C214482   2.469   5.766   5.266  0.0332  0.1030  0.0269
  969loPI    C314483   2.758   5.985   5.097  0.0569  0.0809  0.0388
  969loPI   PO414484   2.898   5.443   5.324 -0.0034  0.0845  0.3234
  969loPI   GL114485   3.173   5.482   5.670  0.4530 -0.0758  0.1296
  969loPI   GL214486   3.323   5.775   5.803 -0.2613  0.0381  0.0908
  969loPI   C1A14487   3.130   5.336   6.051  0.0261  0.2235 -0.2911
  969loPI   C2A14488   2.948   5.472   6.361  0.0038  0.0395 -0.1864
  969loPI   C3A14489   3.044   5.404   6.767  0.1359 -0.0817 -0.3309
  969loPI   C4A14490   3.064   5.346   7.189  0.0558  0.0361 -0.0378
  969loPI   C5A14491   3.124   5.369   7.595  0.1298  0.1114  0.0983
  969loPI   C6A14492   3.348   5.526   7.854 -0.0782  0.1042  0.1871
  969loPI   C1B14493   3.218   5.925   6.186 -0.4679 -0.0112 -0.3374
  969loPI   C2B14494   3.345   5.844   6.674 -0.1107  0.3994  0.0805
  969loPI   C3B14495   3.415   5.834   7.062  0.3789 -0.2992  0.1031
  969loPI   C4B14496   3.499   5.816   7.511 -0.1244  0.3852 -0.1728
  970loPI    C114497   8.774  16.813   5.180  0.0984 -0.0103 -0.0395
  970loPI    C214498   9.096  16.800   4.942  0.0918  0.0069 -0.0495
  970loPI    C314499   8.789  16.552   4.877  0.0340  0.1004 -0.1389
  970loPI   PO414500   8.858  16.844   5.406 -0.0832 -0.2589 -0.0281
  970loPI   GL114501   9.074  16.757   5.688  0.0634  0.3286 -0.0388
  970loPI   GL214502   9.191  17.007   5.919 -0.0864 -0.1972 -0.3092
  970loPI   C1A14503   9.048  16.630   6.222  0.1864  0.2426  0.1995
  970loPI   C2A14504   9.200  16.333   6.533 -0.0398 -0.5684  0.1416
  970loPI   C3A14505   9.427  16.414   6.845 -0.0197  0.0325  0.1426
  970loPI   C4A14506   9.436  16.486   7.262  0.0492  0.1956  0.0219
  970loPI   C5A14507   9.238  16.675   7.550  0.0924 -0.0088 -0.1759
  970loPI   C6A14508   9.073  17.039   7.705 -0.4043  0.1424 -0.0657
  970loPI   C1B14509   9.113  17.155   6.304  0.1551  0.0396  0.0835
  970loPI   C2B14510   9.091  16.849   6.686  0.2428  0.1085  0.1104
  970loPI   C3B14511   8.958  16.903   7.169  0.0767 -0.0194 -0.0860
  970loPI   C4B14512   8.630  17.104   7.487 -0.2347  0.0266 -0.2250
  971loPI    C114513  14.373   9.192   5.315  0.1429 -0.0576  0.1036
  971loPI    C214514  14.626   9.188   5.005 -0.2406 -0.0770 -0.2181
  971loPI    C314515  14.274   8.999   4.979 -0.2701 -0.0981  0.2420
  971loPI   PO414516  14.410   9.445   5.469  0.0747 -0.3606 -0.2594
  971loPI   GL114517  14.313   9.576   5.842  0.0551  0.0884  0.0954
  971loPI   GL214518  14.395   9.883   5.788 -0.1081  0.0419  0.4475
  971loPI   C1A14519  14.089   9.587   6.197 -0.0289  0.2266 -0.0509
  971loPI   C2A14520  14.009   9.523   6.672  0.1818  0.0312 -0.2028
  971loPI   C3A14521  13.904   9.539   7.070  0.3707  0.0008  0.1054
  971loPI   C4A14522  13.731   9.633   7.475  0.0724 -0.0871  0.0508
  971loPI   C5A14523  13.738   9.363   7.866 -0.1644 -0.4912 -0.0387
  971loPI   C6A14524  13.707   9.108   8.164 -0.0292  0.0473 -0.0580
  971loPI   C1B14525  14.558   9.764   6.277 -0.1176 -0.2556  0.1431
  971loPI   C2B14526  14.586   9.900   6.722 -0.0515  0.2048  0.0863
  971loPI   C3B14527  14.562   9.981   7.170 -0.0563 -0.0851 -0.6360
  971loPI   C4B14528  14.588  10.058   7.654  0.2103  0.0011  0.2221
  972loPI    C114529   5.838   9.065   6.065 -0.0191 -0.0173  0.0175
  972loPI    C214530   5.495   8.963   5.888  0.0303 -0.3786  0.1219
  972loPI    C314531   5.786   9.136   5.675 -0.2455  0.0111  0.0519
  972loPI   PO414532   5.901   8.827   6.156 -0.2213  0.0712  0.0912
  972loPI   GL114533   6.131   8.766   6.416  0.1050  0.0470 -0.1284
  972loPI   GL214534   6.432   8.647   6.458  0.1097 -0.1043  0.1408
  972loPI   C1A14535   6.103   8.776   6.924 -0.3015  0.0914  0.2455
  972loPI   C2A14536   6.303   8.645   7.312 -0.1827 -0.1172 -0.2561
  972loPI   C3A14537   6.453   8.826   7.793 -0.0886 -0.1343  0.0435
  972loPI   C4A14538   6.748   8.810   8.108  0.0099 -0.3816 -0.4986
  972loPI   C5A14539   7.083   8.778   8.383  0.0080 -0.0040  0.1687
  972loPI   C6A14540   7.469   8.726   8.555  0.0533  0.2777 -0.2062
  972loPI   C1B14541   6.595   8.727   6.854 -0.0872 -0.1411  0.3115
  972loPI   C2B14542   6.771   8.579   7.214 -0.2215 -0.2875 -0.2028
  972loPI   C3B14543   6.817   8.491   7.610  0.1229  0.1636  0.3220
  972loPI   C4B14544   6.540   8.319   7.893  0.0322  0.0916 -0.2359
  973loPI    C114545   5.422  12.457   5.589  0.0698  0.1901 -0.1947
  973loPI    C214546   5.819  12.494   5.623  0.0817 -0.0582 -0.0360
  973loPI    C314547   5.651  12.454   5.262  0.1904  0.1415 -0.1104
  973loPI   PO414548   5.361  12.372   5.838  0.0272 -0.2426  0.0749
  973loPI   GL114549   5.270  12.408   6.202  0.2795  0.1592 -0.0192
  973loPI   GL214550   5.144  12.581   6.319 -0.0751  0.1492  0.1868
  973loPI   C1A14551   5.490  12.416   6.630 -0.2169  0.0627  0.2596
  973loPI   C2A14552   5.582  12.569   7.025 -0.2429  0.1836  0.3590
  973loPI   C3A14553   5.387  12.550   7.367 -0.0583 -0.0575 -0.0196
  973loPI   C4A14554   5.320  12.655   7.748 -0.1724  0.0347 -0.0351
  973loPI   C5A14555   5.122  12.877   8.104 -0.0639  0.2447  0.1681
  973loPI   C6A14556   4.806  12.886   8.390 -0.0621 -0.1112 -0.2518
  973loPI   C1B14557   5.116  12.777   6.646 -0.0136  0.2724 -0.1464
  973loPI   C2B14558   5.085  12.769   7.006  0.2219 -0.1838 -0.1389
  973loPI   C3B14559   4.888  12.850   7.499 -0.0148  0.1766  0.0231
  973loPI   C4B14560   4.455  13.088   7.404  0.2388 -0.1436  0.3447
  974loPI    C114561   2.338   4.920   4.977  0.1634 -0.1034  0.0095
  974loPI    C214562   2.378   4.758   4.613 -0.3937 -0.0676 -0.0755
  974loPI    C314563   2.356   4.522   4.935 -0.2725 -0.1160 -0.1020
  974loPI   PO414564   2.519   5.110   5.138  0.0128 -0.1527 -0.1127
  974loPI   GL114565   2.555   5.117   5.532 -0.0711 -0.2334 -0.1245
  974loPI   GL214566   2.790   5.167   5.693 -0.0557  0.0418  0.0733
  974loPI   C1A14567   2.537   5.594   5.740 -0.0622 -0.1275  0.0756
  974loPI   C2A14568   2.678   5.804   6.167  0.1131 -0.0495 -0.0019
  974loPI   C3A14569   2.840   5.934   6.475 -0.0615  0.1010 -0.2888
  974loPI   C4A14570   2.870   5.911   6.928  0.3754  0.0651  0.1472
  974loPI   C5A14571   2.912   5.821   7.328 -0.0428  0.1530 -0.1392
  974loPI   C6A14572   2.882   5.838   7.740 -0.0805  0.1069  0.0578
  974loPI   C1B14573   2.698   5.045   6.118  0.2065 -0.1682  0.2531
  974loPI   C2B14574   2.827   4.965   6.570 -0.0328  0.1901  0.0248
  974loPI   C3B14575   2.814   4.899   6.963 -0.0939  0.0960 -0.1476
  974loPI   C4B14576   2.912   4.956   7.439  0.2325 -0.0131 -0.1195
  975loPI    C114577  10.863   6.731   5.252  0.0586  0.0250 -0.0249
  975loPI    C214578  10.577   6.996   5.341  0.0291 -0.0052 -0.0296
  975loPI    C314579  10.480   6.615   5.267  0.0843 -0.0454  0.1018
  975loPI   PO414580  11.030   6.784   5.509 -0.1938 -0.0613 -0.0448
  975loPI   GL114581  11.019   6.537   5.965  0.0958  0.1107 -0.1316
  975loPI   GL214582  11.294   6.517   6.215  0.0557  0.2618  0.0899
  975loPI   C1A14583  10.935   6.799   6.273  0.1225 -0.3661  0.1439
  975loPI   C2A14584  11.009   6.756   6.707  0.0721 -0.0714 -0.0601
  975loPI   C3A14585  10.919   6.780   7.087  0.1919 -0.1087 -0.1055
  975loPI   C4A14586  10.639   6.812   7.503  0.2568  0.0738  0.1254
  975loPI   C5A14587  10.595   6.745   7.935 -0.1964  0.0901 -0.0584
  975loPI   C6A14588  10.300   7.125   8.155  0.2000 -0.1136  0.0428
  975loPI   C1B14589  11.430   6.545   6.620  0.0989  0.1147  0.1549
  975loPI   C2B14590  11.481   6.568   7.015  0.1655 -0.0442  0.0306
  975loPI   C3B14591  11.348   6.644   7.387  0.3196  0.3412  0.2267
  975loPI   C4B14592  11.157   6.782   7.730  0.1969  0.0657  0.1739
  976loPI    C114593  13.195   0.203   5.073 -0.0271 -0.1274 -0.1646
  976loPI    C214594  13.124   0.548   4.884  0.0543 -0.0078  0.0213
  976loPI    C314595  13.295   0.245   4.688  0.3553  0.1951 -0.0364
  976loPI   PO414596  13.008   0.251   5.277 -0.2483  0.0212  0.1584
  976loPI   GL114597  13.058   0.254   5.702 -0.3659  0.0522  0.0288
  976loPI   GL214598  12.731   0.156   5.838 -0.0580  0.1200  0.1255
  976loPI   C1A14599  13.231   0.191   6.108  0.2108 -0.2512  0.2853
  976loPI   C2A14600  13.124   0.142   6.574 -0.3794 -0.0229 -0.0220
  976loPI   C3A14601  13.008   0.105   6.972 -0.1983  0.0599 -0.1782
  976loPI   C4A14602  13.000   0.107   7.465 -0.0335  0.1346  0.2857
  976loPI   C5A14603  12.950   0.078   7.914 -0.0010  0.2970 -0.2670
  976loPI   C6A14604  12.989   0.247   8.273  0.0013 -0.2258  0.0335
  976loPI   C1B14605  12.705   0.106   6.247  0.0321 -0.1967  0.1197
  976loPI   C2B14606  12.510   0.033   6.679 -0.1848  0.0461  0.0867
  976loPI   C3B14607  12.514   0.019   7.161 -0.0317 -0.2790  0.0008
  976loPI   C4B14608  12.524  -0.035   7.668 -0.0840  0.1679 -0.0492
  977loPI    C114609   3.884   0.535   5.255 -0.0581 -0.0452  0.2569
  977loPI    C214610   3.822   0.330   4.916  0.3213 -0.0921  0.2108
  977loPI    C314611   4.149   0.558   4.955  0.0477  0.2847  0.3711
  977loPI   PO414612   3.807   0.366   5.427 -0.0842 -0.3348 -0.1508
  977loPI   GL114613   3.953   0.454   5.870 -0.1390  0.0676 -0.0627
  977loPI   GL214614   3.714   0.223   6.071  0.0512  0.0677  0.0026
  977loPI   C1A14615   3.912   0.683   6.282 -0.1407 -0.3347  0.0095
  977loPI   C2A14616   3.842   0.641   6.680 -0.2369 -0.0521 -0.0971
  977loPI   C3A14617   3.687   0.731   7.138  0.1654 -0.0064  0.0048
  977loPI   C4A14618   3.605   0.917   7.553  0.0467 -0.1839  0.1562
  977loPI   C5A14619   3.755   0.781   7.958 -0.3837  0.0314  0.2781
  977loPI   C6A14620   3.689   0.455   8.214 -0.1651 -0.0425  0.2496
  977loPI   C1B14621   3.522   0.171   6.442  0.0358  0.0642  0.2248
  977loPI   C2B14622   3.549   0.244   6.877  0.3750 -0.2308  0.0067
  977loPI   C3B14623   3.571   0.215   7.231  0.0496 -0.2217  0.0490
  977loPI   C4B14624   3.635   0.381   7.625 -0.1386  0.1720  0.0540
  978loPI    C114625   8.621  12.069   5.744  0.0216  0.0616  0.0911
  978loPI    C214626   8.226  12.113   5.695  0.0291 -0.0714 -0.0977
  978loPI    C314627   8.471  12.423   5.632 -0.0492  0.0271  0.0765
  978loPI   PO414628   8.577  11.925   5.977 -0.1884  0.2620 -0.3420
  978loPI   GL114629   8.795  11.918   6.243  0.1354  0.1034 -0.0418
  978loPI   GL214630   9.109  11.852   6.295 -0.0614  0.2796  0.0775
  978loPI   C1A14631   8.762  12.189   6.597  0.0651  0.2752 -0.1124
  978loPI   C2A14632   8.613  12.374   6.976  0.0619 -0.2682 -0.0426
  978loPI   C3A14633   8.259  12.429   7.345 -0.1047  0.0148  0.3512
  978loPI   C4A14634   7.995  12.210   7.660  0.1135  0.0133  0.0317
  978loPI   C5A14635   7.657  12.013   7.808 -0.2069  0.2636  0.0524
  978loPI   C6A14636   7.327  12.268   8.062  0.2540 -0.1919 -0.2136
  978loPI   C1B14637   9.220  11.898   6.728 -0.1666  0.2900  0.0756
  978loPI   C2B14638   9.337  12.073   7.058  0.1838 -0.2380  0.1378
  978loPI   C3B14639   9.374  12.051   7.568 -0.1287  0.0606  0.1420
  978loPI   C4B14640   9.498  12.007   7.995 -0.1931 -0.1066 -0.1765
  979loPI    C114641  17.485  10.155   5.972  0.0364 -0.1783 -0.0085
  979loPI    C214642  17.286  10.274   5.646  0.1060 -0.0908 -0.0194
  979loPI    C314643  17.562   9.985   5.618  0.0616 -0.1327 -0.0251
  979loPI   PO414644  17.599  10.377   6.066  0.1882 -0.0871 -0.1022
  979loPI   GL114645  17.570  10.762   6.408 -0.0084  0.1036  0.0053
  979loPI   GL214646  17.508  11.098   6.530  0.0445 -0.2017 -0.0739
  979loPI   C1A14647  17.706  10.661   6.755 -0.1342  0.2478  0.1030
  979loPI   C2A14648  17.791  10.551   7.254 -0.0892  0.3045 -0.1509
  979loPI   C3A14649  17.853  10.359   7.678  0.0603 -0.2391 -0.0164
  979loPI   C4A14650  17.776  10.182   8.089 -0.2081 -0.1288 -0.1393
  979loPI   C5A14651  17.489  10.002   8.298  0.1140 -0.0230  0.0662
  979loPI   C6A14652  17.187   9.644   8.226  0.2060 -0.1547  0.1879
  979loPI   C1B14653  17.371  11.163   7.021  0.3047  0.2538 -0.4953
  979loPI   C2B14654  17.356  11.278   7.339 -0.0501  0.1749  0.2283
  979loPI   C3B14655  17.075  11.329   7.635  0.0380  0.3484  0.0634
  979loPI   C4B14656  17.118  11.391   8.084  0.0464 -0.2055  0.1526
  980loPI    C114657   7.757  10.354   5.709 -0.1658  0.0750  0.0114
  980loPI    C214658   7.515  10.612   5.521 -0.1108  0.1459  0.0370
  980loPI    C314659   7.909  10.620   5.451 -0.1019  0.1074  0.0822
  980loPI   PO414660   7.650  10.323   5.925 -0.0568  0.0395 -0.0717
  980loPI   GL114661   7.866  10.419   6.315  0.1095 -0.0545 -0.0443
  980loPI   GL214662   8.210  10.508   6.314 -0.3236  0.1619  0.1401
  980loPI   C1A14663   7.891  10.443   6.743  0.1537  0.0659 -0.0420
  980loPI   C2A14664   7.940  10.511   7.271 -0.2132 -0.4128  0.2645
  980loPI   C3A14665   8.123  10.679   7.623 -0.0099 -0.0263 -0.1541
  980loPI   C4A14666   8.435  10.500   7.847 -0.0988  0.0123  0.1285
  980loPI   C5A14667   8.438  10.310   8.243  0.2248  0.1194 -0.0601
  980loPI   C6A14668   8.537  10.363   8.682  0.0510 -0.1993  0.0570
  980loPI   C1B14669   8.419  10.589   6.721  0.2860  0.0690  0.0138
  980loPI   C2B14670   8.428  10.615   7.086 -0.0245  0.0947  0.4924
  980loPI   C3B14671   8.606  10.843   7.362 -0.1012 -0.0871 -0.2731
  980loPI   C4B14672   8.855  10.683   7.452  0.1856  0.0216 -0.0687
  981loPI    C114673   7.627  13.724   5.816 -0.1277  0.0969  0.1035
  981loPI    C214674   7.688  13.563   5.455 -0.0932 -0.1208  0.2049
  981loPI    C314675   7.969  13.795   5.620 -0.0969 -0.0447  0.1052
  981loPI   PO414676   7.406  13.829   5.824 -0.4039  0.0462 -0.2760
  981loPI   GL114677   7.379  14.027   6.194 -0.0913 -0.1491  0.3062
  981loPI   GL214678   7.165  14.196   6.240 -0.0912 -0.0095 -0.0855
  981loPI   C1A14679   7.590  14.009   6.640 -0.0222  0.0666 -0.1368
  981loPI   C2A14680   7.512  13.971   7.075 -0.0792 -0.3626 -0.0748
  981loPI   C3A14681   7.388  14.100   7.559  0.0000 -0.0340 -0.1387
  981loPI   C4A14682   7.471  14.167   8.054  0.2993 -0.0407 -0.3762
  981loPI   C5A14683   7.207  14.213   8.396 -0.1954 -0.1306  0.1773
  981loPI   C6A14684   6.962  14.197   8.768 -0.2011  0.2244  0.2178
  981loPI   C1B14685   7.150  14.190   6.779  0.2041 -0.2234 -0.1121
  981loPI   C2B14686   7.039  14.278   7.203 -0.0920  0.1821 -0.1663
  981loPI   C3B14687   6.891  14.541   7.589  0.3228 -0.1908 -0.1080
  981loPI   C4B14688   6.531  14.525   7.955  0.1760  0.0154 -0.3088
  982loPI    C114689  16.604   6.802   6.074  0.1784 -0.2871 -0.1086
  982loPI    C214690  16.459   6.912   6.430  0.1602  0.0558 -0.2187
  982loPI    C314691  16.758   7.120   6.262  0.1237 -0.0628 -0.4339
  982loPI   PO414692  16.569   6.519   6.119  0.3012  0.1284  0.1894
  982loPI   GL114693  16.746   6.272   6.389  0.1985  0.0896 -0.0424
  982loPI   GL214694  16.878   6.585   6.483  0.1055  0.0636  0.0976
  982loPI   C1A14695  16.936   6.022   6.679  0.1413  0.3070  0.1614
  982loPI   C2A14696  16.906   5.767   7.018 -0.1198 -0.1442  0.0633
  982loPI   C3A14697  16.974   5.754   7.493  0.0953  0.0780 -0.1292
  982loPI   C4A14698  16.853   5.605   7.886  0.0327 -0.1510  0.4055
  982loPI   C5A14699  16.648   5.414   8.222 -0.1484 -0.1109 -0.2440
  982loPI   C6A14700  16.664   5.018   8.430  0.1668 -0.3701 -0.0328
  982loPI   C1B14701  16.988   6.496   6.993  0.2430 -0.2000 -0.0323
  982loPI   C2B14702  16.804   6.201   7.187  0.1898  0.0539  0.0864
  982loPI   C3B14703  16.526   5.990   7.356 -0.0831  0.0719 -0.0633
  982loPI   C4B14704  16.373   5.838   7.775  0.1806  0.0441  0.0371
  983loPI    C114705   8.649  11.029   5.816 -0.0053 -0.0706  0.0621
  983loPI    C214706   9.048  11.063   5.826 -0.0216  0.0967  0.1905
  983loPI    C314707   8.845  11.184   5.503  0.0459 -0.1636  0.0478
  983loPI   PO414708   8.602  11.088   6.025 -0.1406  0.1277 -0.0681
  983loPI   GL114709   8.371  10.991   6.346 -0.2965 -0.1821 -0.0659
  983loPI   GL214710   8.091  11.092   6.387 -0.2201  0.1398 -0.2308
  983loPI   C1A14711   8.480  11.116   6.785 -0.1905 -0.0169  0.0949
  983loPI   C2A14712   8.655  11.321   7.128 -0.0716  0.1216  0.1101
  983loPI   C3A14713   8.778  11.272   7.485  0.0097 -0.1813  0.1240
  983loPI   C4A14714   8.970  11.030   7.809  0.0606 -0.2276 -0.0428
  983loPI   C5A14715   9.314  10.899   8.115 -0.0086 -0.1487 -0.2927
  983loPI   C6A14716   9.377  10.620   8.435  0.3745  0.0618 -0.2288
  983loPI   C1B14717   8.099  11.503   6.659  0.3946  0.0792  0.2758
  983loPI   C2B14718   7.796  11.864   6.683 -0.2724  0.0720  0.0733
  983loPI   C3B14719   7.486  12.002   6.849 -0.0519  0.0286  0.0818
  983loPI   C4B14720   7.278  12.295   6.940  0.0227  0.2083 -0.2452
  984loPI    C114721   4.574   8.306   5.552 -0.0406  0.0504  0.3487
  984loPI    C214722   4.298   8.030   5.638 -0.1463  0.0230 -0.0569
  984loPI    C314723   4.530   7.988   5.314  0.1677  0.1714  0.1431
  984loPI   PO414724   4.706   8.332   5.727  0.2457 -0.0944 -0.2488
  984loPI   GL114725   4.533   8.407   6.085  0.1302  0.2390  0.0398
  984loPI   GL214726   4.350   8.181   6.148 -0.0441 -0.0080  0.1128
  984loPI   C1A14727   4.548   8.472   6.558 -0.2371  0.0735 -0.0441
  984loPI   C2A14728   4.700   8.530   6.921 -0.2601  0.1129  0.0725
  984loPI   C3A14729   4.667   8.676   7.319 -0.1152 -0.0938 -0.2672
  984loPI   C4A14730   4.685   8.432   7.678 -0.2284 -0.1923  0.1594
  984loPI   C5A14731   4.633   8.171   8.016 -0.0552  0.0741 -0.0845
  984loPI   C6A14732   4.311   8.086   8.432  0.4217  0.0779 -0.0331
  984loPI   C1B14733   4.150   8.166   6.625 -0.1237 -0.0309 -0.2241
  984loPI   C2B14734   4.138   8.243   7.082 -0.1156 -0.3817  0.0529
  984loPI   C3B14735   4.204   8.304   7.512 -0.3516  0.1186 -0.0355
  984loPI   C4B14736   4.200   8.316   7.883 -0.1085 -0.4118 -0.1073
  985loPI    C114737  10.976   5.973   5.376  0.1382 -0.0808 -0.0844
  985loPI    C214738  11.197   6.305   5.411  0.0299 -0.0008 -0.1536
  985loPI    C314739  10.987   6.238   5.076  0.0889 -0.1625 -0.1591
  985loPI   PO414740  10.995   5.907   5.650  0.2088 -0.0242 -0.1201
  985loPI   GL114741  11.139   5.627   5.979 -0.0465  0.2037 -0.0146
  985loPI   GL214742  11.382   5.415   6.112  0.2199 -0.0202 -0.1779
  985loPI   C1A14743  11.083   5.706   6.469 -0.1680  0.2713 -0.1125
  985loPI   C2A14744  11.225   5.599   6.694 -0.0696 -0.1723 -0.0344
  985loPI   C3A14745  11.100   5.757   7.049 -0.1473  0.3497  0.0602
  985loPI   C4A14746  11.359   5.782   7.431 -0.1515 -0.1759 -0.0792
  985loPI   C5A14747  11.584   5.937   7.823  0.0048 -0.2566  0.2393
  985loPI   C6A14748  11.974   6.003   8.038 -0.0934 -0.1310  0.0266
  985loPI   C1B14749  11.246   5.206   6.431 -0.1951  0.1113  0.3551
  985loPI   C2B14750  11.317   5.164   6.850 -0.1137  0.0958 -0.2387
  985loPI   C3B14751  11.182   5.308   7.269  0.1792 -0.0507 -0.0502
  985loPI   C4B14752  11.199   5.398   7.672 -0.0082 -0.3871  0.2822
  986loPI    C114753   6.861  14.664   5.292 -0.0226  0.1623  0.0876
  986loPI    C214754   6.648  14.328   5.336 -0.0604  0.2071  0.2538
  986loPI    C314755   6.748  14.455   4.970  0.0028 -0.0148  0.1923
  986loPI   PO414756   6.980  14.629   5.539 -0.4433  0.0425 -0.1870
  986loPI   GL114757   6.854  14.554   5.905  0.0773 -0.3703  0.0629
  986loPI   GL214758   6.988  14.676   6.155  0.0793  0.0524  0.4651
  986loPI   C1A14759   6.507  14.478   6.221  0.0801  0.1071 -0.1896
  986loPI   C2A14760   6.314  14.564   6.540  0.1322 -0.1073 -0.0647
  986loPI   C3A14761   6.133  14.728   6.907  0.1171  0.0791  0.1620
  986loPI   C4A14762   5.985  14.714   7.354 -0.2251 -0.0226 -0.0212
  986loPI   C5A14763   6.055  14.500   7.814  0.0112 -0.0494  0.1235
  986loPI   C6A14764   5.964  14.096   7.919  0.0405  0.3090 -0.1005
  986loPI   C1B14765   6.918  14.558   6.512 -0.3426  0.1414 -0.0488
  986loPI   C2B14766   6.710  14.457   6.911  0.1185 -0.0601 -0.0401
  986loPI   C3B14767   6.459  14.475   7.266 -0.3504  0.2535 -0.3269
  986loPI   C4B14768   6.430  14.803   7.588 -0.0981  0.3048  0.1257
  987loPI    C114769   6.669  12.812   5.416 -0.2088 -0.0423 -0.1643
  987loPI    C214770   6.501  13.018   5.117 -0.1135  0.0343 -0.1656
  987loPI    C314771   6.789  12.751   5.039 -0.0805  0.0627 -0.1411
  987loPI   PO414772   6.869  13.038   5.618  0.0452  0.0097  0.0371
  987loPI   GL114773   7.121  13.184   6.079 -0.1163  0.2262 -0.1697
  987loPI   GL214774   7.368  13.362   6.061  0.0772 -0.1248  0.1398
  987loPI   C1A14775   7.102  13.230   6.555 -0.2301 -0.3451 -0.0075
  987loPI   C2A14776   6.926  13.149   6.893 -0.1133  0.1120  0.4438
  987loPI   C3A14777   6.888  13.230   7.364  0.0075  0.2453 -0.0247
  987loPI   C4A14778   6.864  13.391   7.826 -0.0923 -0.2063  0.0088
  987loPI   C5A14779   6.630  13.464   8.188  0.1098 -0.2322 -0.4270
  987loPI   C6A14780   6.428  13.382   8.543 -0.1419 -0.2015  0.1032
  987loPI   C1B14781   7.563  13.559   6.412 -0.1413 -0.0890 -0.0402
  987loPI   C2B14782   7.468  13.560   6.840 -0.0518 -0.0510  0.0921
  987loPI   C3B14783   7.326  13.284   7.215 -0.1024  0.0603 -0.2961
  987loPI   C4B14784   7.293  13.382   7.600  0.2776 -0.1644  0.1548
  988loPI    C114785  15.346   4.646   5.946 -0.1886  0.1463  0.1008
  988loPI    C214786  15.499   4.454   5.630 -0.0674  0.1992  0.1266
  988loPI    C314787  15.268   4.776   5.576 -0.1447  0.1378  0.0884
  988loPI   PO414788  15.264   4.491   6.040  0.0963 -0.0285 -0.2330
  988loPI   GL114789  14.907   4.456   6.281  0.0898 -0.0834 -0.2120
  988loPI   GL214790  14.823   4.245   6.120 -0.1819  0.2243  0.2297
  988loPI   C1A14791  14.654   4.487   6.504 -0.1774  0.1557 -0.0845
  988loPI   C2A14792  14.664   4.465   6.967 -0.0598 -0.1012  0.3478
  988loPI   C3A14793  14.698   4.465   7.415 -0.1505  0.0809 -0.1489
  988loPI   C4A14794  14.763   4.512   7.790  0.1559  0.0341 -0.0274
  988loPI   C5A14795  14.528   4.703   8.102  0.1486 -0.2827  0.1556
  988loPI   C6A14796  14.178   4.557   8.413  0.0563 -0.2032 -0.0536
  988loPI   C1B14797  14.695   3.990   6.476 -0.1244  0.3132  0.1063
  988loPI   C2B14798  14.612   3.970   6.864 -0.0780  0.1362  0.0685
  988loPI   C3B14799  14.629   3.790   7.178 -0.0990  0.0930 -0.0245
  988loPI   C4B14800  14.655   3.976   7.504 -0.0913 -0.0128 -0.0969
  989loPI    C114801   9.844  12.057   5.354 -0.0236  0.1637 -0.1340
  989loPI    C214802  10.166  11.996   5.125 -0.0194  0.1244 -0.1177
  989loPI    C314803   9.811  12.067   4.955 -0.0336  0.0076 -0.1379
  989loPI   PO414804   9.864  12.206   5.517  0.0612  0.0881 -0.0332
  989loPI   GL114805  10.016  12.256   5.938  0.0934  0.0448 -0.0439
  989loPI   GL214806  10.272  12.113   6.106  0.0696 -0.0485  0.0201
  989loPI   C1A14807  10.120  12.626   6.162 -0.1803 -0.0629 -0.0504
  989loPI   C2A14808  10.097  12.757   6.660  0.1960  0.2755  0.0969
  989loPI   C3A14809  10.065  12.759   7.091 -0.1051 -0.0008  0.1015
  989loPI   C4A14810  10.119  12.779   7.634  0.0196  0.0434 -0.1899
  989loPI   C5A14811  10.271  12.920   8.108  0.3521  0.1284  0.1008
  989loPI   C6A14812  10.338  13.046   8.564 -0.1561 -0.0244 -0.0262
  989loPI   C1B14813  10.319  12.274   6.525  0.0858  0.1523 -0.0067
  989loPI   C2B14814  10.393  12.357   6.994  0.2473 -0.0160 -0.1603
  989loPI   C3B14815  10.464  12.417   7.383  0.3349  0.2683  0.1158
  989loPI   C4B14816  10.541  12.420   7.782  0.0862  0.2718  0.2994
  990loPI    C114817  15.754   2.785   4.970  0.0607  0.1631 -0.0215
  990loPI    C214818  15.757   2.435   4.775 -0.0388  0.1276  0.0400
  990loPI    C314819  15.684   2.774   4.576  0.0046  0.1075 -0.0103
  990loPI   PO414820  15.861   2.740   5.183  0.2738 -0.0644  0.0718
  990loPI   GL114821  15.907   2.646   5.611  0.0713 -0.1203 -0.0312
  990loPI   GL214822  15.801   2.898   5.686 -0.0057 -0.0756 -0.2359
  990loPI   C1A14823  15.907   2.393   6.006 -0.2008  0.0263 -0.1134
  990loPI   C2A14824  15.923   2.245   6.460 -0.1822  0.4051 -0.0976
  990loPI   C3A14825  16.174   1.932   6.746 -0.2183 -0.1400 -0.0853
  990loPI   C4A14826  16.458   1.809   7.049 -0.0148 -0.1694  0.0435
  990loPI   C5A14827  16.624   1.846   7.574 -0.1226 -0.1254  0.0891
  990loPI   C6A14828  16.636   2.071   8.009  0.0795 -0.1565 -0.1772
  990loPI   C1B14829  15.863   2.908   6.190  0.1593  0.0192  0.2135
  990loPI   C2B14830  15.943   2.727   6.629  0.1591  0.0618 -0.1604
  990loPI   C3B14831  15.961   2.414   7.022  0.1942 -0.3641 -0.0202
  990loPI   C4B14832  15.989   2.094   7.274 -0.1477 -0.1131  0.0454
  991loPI    C114833   9.341  15.049   5.361 -0.2958  0.4972 -0.0801
  991loPI    C214834   8.979  15.024   5.194 -0.2840 -0.2632 -0.0288
  991loPI    C314835   9.306  14.959   4.973 -0.1847  0.1622 -0.0161
  991loPI   PO414836   9.425  15.351   5.515  0.2639  0.2456  0.2285
  991loPI   GL114837   9.337  15.434   5.960 -0.1952 -0.0546 -0.2123
  991loPI   GL214838   9.044  15.398   6.143 -0.2009  0.0416  0.2369
  991loPI   C1A14839   9.507  15.675   6.285  0.0083 -0.0509 -0.0112
  991loPI   C2A14840   9.526  15.832   6.705 -0.0632  0.1995  0.3050
  991loPI   C3A14841   9.347  16.017   7.084 -0.2891  0.0360 -0.1613
  991loPI   C4A14842   9.444  16.074   7.629 -0.0868 -0.2637  0.0502
  991loPI   C5A14843   9.661  16.378   7.773  0.1079 -0.0816  0.1823
  991loPI   C6A14844   9.507  16.880   7.875 -0.1128 -0.1919  0.1851
  991loPI   C1B14845   9.245  15.420   6.607 -0.0850  0.2999  0.1102
  991loPI   C2B14846   9.373  15.498   6.998 -0.2340 -0.0823 -0.0726
  991loPI   C3B14847   9.409  15.594   7.389 -0.2174  0.1743 -0.4959
  991loPI   C4B14848   9.324  15.614   7.847  0.0940  0.2663  0.0663
  992loPI    C114849  12.565   3.770   5.318  0.1412  0.0926  0.0370
  992loPI    C214850  12.502   4.159   5.252 -0.0987  0.0372 -0.0705
  992loPI    C314851  12.410   3.891   4.969  0.2201 -0.0854 -0.0612
  992loPI   PO414852  12.489   3.787   5.591  0.2341  0.2257 -0.2096
  992loPI   GL114853  12.396   3.714   5.975  0.1071 -0.0565 -0.0220
  992loPI   GL214854  12.252   3.482   6.132  0.1282 -0.1498 -0.0570
  992loPI   C1A14855  12.485   3.763   6.501 -0.1846  0.2227 -0.2740
  992loPI   C2A14856  12.517   3.621   6.829 -0.3306 -0.0019 -0.1516
  992loPI   C3A14857  12.495   3.656   7.224  0.0338  0.0969  0.0629
  992loPI   C4A14858  12.815   3.667   7.477  0.2811  0.3734  0.1710
  992loPI   C5A14859  12.864   3.607   7.880 -0.1199 -0.2799 -0.1103
  992loPI   C6A14860  12.803   3.470   8.193 -0.0145 -0.0946 -0.0871
  992loPI   C1B14861  12.258   3.251   6.545 -0.0023 -0.0160 -0.3128
  992loPI   C2B14862  12.282   3.163   7.007  0.1562  0.1552 -0.3477
  992loPI   C3B14863  12.276   3.168   7.423  0.1801 -0.2121  0.0425
  992loPI   C4B14864  12.491   3.121   7.828  0.2091  0.1494  0.2576
  993loPI    C114865  12.357  13.704   5.290  0.0968 -0.1362 -0.1309
  993loPI    C214866  11.984  13.785   5.172  0.0602 -0.0913  0.0137
  993loPI    C314867  12.165  14.022   5.438  0.2927  0.0453 -0.2609
  993loPI   PO414868  12.286  13.480   5.454 -0.1209  0.2369  0.3671
  993loPI   GL114869  12.189  13.283   5.745 -0.2981 -0.0457  0.2054
  993loPI   GL214870  12.533  13.165   5.722  0.2333 -0.0160  0.0254
  993loPI   C1A14871  12.344  13.432   6.272 -0.2168 -0.0006 -0.3136
  993loPI   C2A14872  12.358  13.412   6.709 -0.1835  0.2075  0.0499
  993loPI   C3A14873  12.326  13.325   7.189  0.0450 -0.0732  0.3013
  993loPI   C4A14874  12.122  13.427   7.536 -0.0864 -0.1095  0.0039
  993loPI   C5A14875  11.923  13.809   7.715 -0.1040  0.1710 -0.3273
  993loPI   C6A14876  11.778  14.122   8.063  0.2200 -0.0701 -0.1767
  993loPI   C1B14877  12.709  13.120   6.140  0.0052 -0.1044  0.0108
  993loPI   C2B14878  12.717  13.123   6.564 -0.0666 -0.4779 -0.1062
  993loPI   C3B14879  12.680  13.010   6.971  0.2481 -0.1240  0.4035
  993loPI   C4B14880  12.685  13.001   7.386  0.1010 -0.0325 -0.2106
  994loPI    C114881  10.511  13.632   5.493  0.2650 -0.0810 -0.1746
  994loPI    C214882  10.280  13.886   5.288  0.0004 -0.1213  0.0684
  994loPI    C314883  10.642  13.790   5.149 -0.0883  0.0168 -0.2686
  994loPI   PO414884  10.329  13.305   5.555  0.0761 -0.3082 -0.3286
  994loPI   GL114885  10.194  13.084   5.920 -0.0770 -0.1290  0.2439
  994loPI   GL214886  10.504  13.006   6.012 -0.0306  0.1127  0.0768
  994loPI   C1A14887  10.141  13.141   6.339 -0.0683 -0.1031  0.0017
  994loPI   C2A14888  10.461  13.256   6.521 -0.1572  0.1714  0.1759
  994loPI   C3A14889  10.552  13.511   6.945  0.1759 -0.0173 -0.1677
  994loPI   C4A14890  10.675  13.437   7.374  0.0056  0.0233  0.2073
  994loPI   C5A14891  11.080  13.710   7.592  0.1488  0.2918 -0.1487
  994loPI   C6A14892  11.382  14.029   7.683  0.1457 -0.1876 -0.2171
  994loPI   C1B14893  10.639  12.833   6.531  0.2833  0.1543  0.2937
  994loPI   C2B14894  10.489  12.897   6.884 -0.0016  0.0309 -0.2701
  994loPI   C3B14895  10.501  12.899   7.285  0.1414  0.0333  0.0331
  994loPI   C4B14896  10.568  13.027   7.728 -0.0717 -0.1703  0.2255
  995loPI    C114897  13.039  10.112   5.258 -0.0360 -0.0533  0.2049
  995loPI    C214898  13.281   9.821   5.129  0.1292  0.1071  0.1473
  995loPI    C314899  12.968   9.933   4.907  0.0302 -0.0656  0.1975
  995loPI   PO414900  12.990  10.063   5.482  0.1903  0.5401  0.2710
  995loPI   GL114901  12.922  10.310   5.875  0.2236 -0.0062  0.2359
  995loPI   GL214902  13.043  10.510   6.023 -0.2614  0.1447 -0.0270
  995loPI   C1A14903  12.673  10.345   6.257 -0.0949  0.1439  0.0084
  995loPI   C2A14904  12.670  10.296   6.785 -0.2220  0.2710 -0.1504
  995loPI   C3A14905  12.453  10.217   7.107 -0.2975 -0.0002 -0.1274
  995loPI   C4A14906  12.481  10.216   7.484  0.2249 -0.0797  0.0163
  995loPI   C5A14907  12.486  10.053   7.943 -0.1191 -0.0213 -0.0025
  995loPI   C6A14908  12.336  10.208   8.340  0.1762 -0.1711  0.3290
  995loPI   C1B14909  13.105  10.568   6.540 -0.1806  0.0500  0.3182
  995loPI   C2B14910  12.980  10.664   6.965  0.0079 -0.2496  0.2489
  995loPI   C3B14911  13.084  10.722   7.414  0.0865  0.2061 -0.0130
  995loPI   C4B14912  12.805  10.766   7.801  0.2231  0.1088 -0.0501
  996loPI    C114913  16.101  10.998   5.778 -0.0117 -0.2260  0.0187
  996loPI    C214914  16.066  10.613   5.881  0.2659 -0.2925 -0.1252
  996loPI    C314915  16.413  10.804   5.935  0.0722 -0.0028  0.1327
  996loPI   PO414916  15.839  11.084   5.912 -0.0096  0.1172 -0.1144
  996loPI   GL114917  15.635  11.237   6.215  0.0257 -0.3411 -0.1294
  996loPI   GL214918  15.849  11.439   6.385 -0.2128  0.0796  0.0050
  996loPI   C1A14919  15.397  11.040   6.501 -0.2170 -0.2999  0.0630
  996loPI   C2A14920  15.347  11.010   6.932 -0.0390 -0.0344  0.0231
  996loPI   C3A14921  15.269  11.049   7.322  0.2172  0.1225 -0.0652
  996loPI   C4A14922  15.233  11.033   7.750 -0.0196 -0.1354  0.0291
  996loPI   C5A14923  15.087  11.270   8.092  0.0307  0.0718 -0.3932
  996loPI   C6A14924  15.061  11.692   8.280  0.3147  0.0534 -0.0682
  996loPI   C1B14925  15.696  11.337   6.781  0.2852  0.0530 -0.1395
  996loPI   C2B14926  15.760  11.382   7.197 -0.2234 -0.0028  0.1209
  996loPI   C3B14927  15.693  11.189   7.580  0.0979 -0.2967  0.0542
  996loPI   C4B14928  15.617  11.201   8.022 -0.0540 -0.0134  0.2475
  997loPI    C114929  11.117  10.247   5.529 -0.2606  0.0143  0.0552
  997loPI    C214930  11.143  10.157   5.141  0.2903 -0.3097  0.1575
  997loPI    C314931  10.882   9.964   5.373 -0.1179 -0.0394 -0.0644
  997loPI   PO414932  11.279  10.264   5.680 -0.1220 -0.0445  0.1447
  997loPI   GL114933  11.447  10.144   6.040  0.0803 -0.2706  0.1061
  997loPI   GL214934  11.695  10.442   6.147 -0.1606  0.2796  0.0024
  997loPI   C1A14935  11.245   9.959   6.456 -0.2310 -0.3113  0.0373
  997loPI   C2A14936  11.181   9.877   6.883 -0.0555 -0.0355  0.0145
  997loPI   C3A14937  11.351   9.843   7.205  0.1737  0.4041 -0.3451
  997loPI   C4A14938  11.431   9.928   7.623  0.2450  0.0526  0.3913
  997loPI   C5A14939  11.500  10.115   8.079  0.2724  0.0219  0.1516
  997loPI   C6A14940  11.689  10.314   8.490 -0.0120 -0.1254  0.2714
  997loPI   C1B14941  11.788  10.176   6.456  0.1723 -0.0072  0.1909
  997loPI   C2B14942  11.974  10.157   6.945  0.0789 -0.0284  0.0681
  997loPI   C3B14943  11.930   9.999   7.383  0.1034 -0.0568 -0.1344
  997loPI   C4B14944  11.856   9.928   7.836  0.0608 -0.0776  0.0060
  998loPI    C114945  16.752   7.912   5.931 -0.2787 -0.1433  0.1089
  998loPI    C214946  16.966   7.885   5.593 -0.1319  0.1600  0.1737
  998loPI    C314947  16.569   7.829   5.584 -0.0835 -0.1872  0.0151
  998loPI   PO414948  16.714   7.621   6.232 -0.1502  0.2014  0.1892
  998loPI   GL114949  16.609   7.485   6.673  0.0769  0.0195  0.0996
  998loPI   GL214950  16.344   7.707   6.561 -0.2116  0.2063  0.3144
  998loPI   C1A14951  16.567   7.274   7.079 -0.0585 -0.0808 -0.1067
  998loPI   C2A14952  16.530   7.127   7.512 -0.0508  0.0266  0.1014
  998loPI   C3A14953  16.572   7.115   7.989  0.1823 -0.2451  0.0334
  998loPI   C4A14954  16.308   7.178   8.383 -0.2527  0.0186  0.0278
  998loPI   C5A14955  16.032   7.109   8.752  0.2241  0.0313  0.2065
  998loPI   C6A14956  15.697   7.099   9.019  0.1113 -0.0718 -0.2541
  998loPI   C1B14957  16.437   7.820   7.043 -0.0337  0.0579 -0.3308
  998loPI   C2B14958  16.484   7.718   7.553 -0.0538  0.1359 -0.1180
  998loPI   C3B14959  16.340   7.920   7.892 -0.1615 -0.3348 -0.0713
  998loPI   C4B14960  16.197   7.794   8.303 -0.1658  0.0170 -0.3513
  999loPI    C114961   6.683   0.495   5.351 -0.2339 -0.1963 -0.0614
  999loPI    C214962   6.510   0.196   5.150 -0.2114 -0.2465 -0.0065
  999loPI    C314963   6.859   0.346   5.024 -0.2849 -0.1581 -0.1064
  999loPI   PO414964   6.576   0.455   5.587  0.0071  0.3770  0.2484
  999loPI   GL114965   6.766   0.300   5.917 -0.0612  0.2165  0.1601
  999loPI   GL214966   6.595   0.205   6.243 -0.1030 -0.0761  0.1915
  999loPI   C1A14967   6.986   0.594   6.070 -0.1899 -0.3248 -0.0864
  999loPI   C2A14968   6.863   0.648   6.541 -0.0779  0.2386 -0.1259
  999loPI   C3A14969   6.684   0.681   6.986 -0.1919 -0.1048  0.0137
  999loPI   C4A14970   6.631   0.622   7.462 -0.1505 -0.0217  0.0715
  999loPI   C5A14971   6.782   0.417   7.798  0.1438  0.0721  0.3501
  999loPI   C6A14972   6.972   0.362   8.237 -0.2512 -0.1043  0.1666
  999loPI   C1B14973   6.437   0.320   6.633 -0.0134 -0.0271  0.2418
  999loPI   C2B14974   6.314   0.244   6.974 -0.1212 -0.1114  0.0539
  999loPI   C3B14975   6.369   0.203   7.407 -0.0462  0.1331 -0.0913
  999loPI   C4B14976   6.302   0.323   7.868  0.4063 -0.0122  0.2046
 1000loPI    C114977  14.002   7.224   5.602 -0.1571  0.1074 -0.1689
 1000loPI    C214978  14.158   7.495   5.353 -0.0712  0.1429 -0.0775
 1000loPI    C314979  13.872   7.246   5.225 -0.1574  0.2827 -0.1592
 1000loPI   PO414980  14.107   7.436   5.879 -0.2394 -0.1783  0.0557
 1000loPI   GL114981  14.178   7.409   6.350 -0.0136 -0.1224  0.1202
 1000loPI   GL214982  14.437   7.233   6.267 -0.0293 -0.2059  0.0274
 1000loPI   C1A14983  13.954   7.564   6.715 -0.1033  0.2910 -0.0394
 1000loPI   C2A14984  13.817   7.325   6.957  0.0424 -0.1290 -0.0897
 1000loPI   C3A14985  13.757   7.373   7.404  0.1064  0.0053  0.0895
 1000loPI   C4A14986  13.730   7.335   7.902 -0.2074 -0.2061 -0.2554
 1000loPI   C5A14987  14.034   7.526   8.164 -0.2947 -0.1866  0.1216
 1000loPI   C6A14988  14.095   7.741   8.620 -0.0629  0.2782  0.0124
 1000loPI   C1B14989  14.289   7.186   6.727  0.2177  0.1086  0.0209
 1000loPI   C2B14990  14.266   7.267   7.159  0.0194  0.0616 -0.1589
 1000loPI   C3B14991  14.297   7.475   7.630  0.1341  0.1220  0.1204
 1000loPI   C4B14992  14.335   7.819   7.896  0.1231  0.3527 -0.1729
 1001loPI    C114993  15.741   8.878   5.402 -0.0003  0.0897  0.1725
 1001loPI    C214994  15.736   8.628   5.090  0.0590  0.0388  0.2121
 1001loPI    C314995  15.530   8.971   5.074  0.2677  0.1578  0.0161
 1001loPI   PO414996  15.800   8.784   5.640 -0.0908  0.1599  0.0804
 1001loPI   GL114997  15.859   8.827   6.115  0.2559 -0.2257 -0.2227
 1001loPI   GL214998  16.111   8.847   6.206  0.1054 -0.0940  0.0361
 1001loPI   C1A14999  15.571   9.088   6.422  0.1498  0.3303  0.1050
 1001loPI   C2A15000  15.648   9.163   6.837  0.0455 -0.3045 -0.0668
 1001loPI   C3A15001  15.673   9.129   7.310 -0.2335  0.0706  0.1021
 1001loPI   C4A15002  15.722   9.123   7.711  0.3059  0.2461  0.0924
 1001loPI   C5A15003  15.536   9.270   8.088 -0.0550  0.0182 -0.1236
 1001loPI   C6A15004  15.399   9.154   8.484 -0.0591 -0.0397  0.0544
 1001loPI   C1B15005  15.957   8.770   6.593 -0.0260 -0.1922 -0.0440
 1001loPI   C2B15006  15.966   8.779   7.060  0.0380 -0.1516 -0.3364
 1001loPI   C3B15007  16.108   8.660   7.410 -0.1780 -0.4155 -0.0967
 1001loPI   C4B15008  16.060   8.604   7.822  0.3286  0.1078  0.0536
 1002loPI    C115009   6.159   2.245   5.026 -0.1067  0.1889 -0.1421
 1002loPI    C215010   6.367   1.971   4.824  0.1610  0.2680  0.0211
 1002loPI    C315011   6.240   2.301   4.639  0.0842  0.1679 -0.1064
 1002loPI   PO415012   6.291   2.317   5.282  0.0865 -0.0957 -0.1173
 1002loPI   GL115013   6.170   2.483   5.700 -0.0054  0.0565  0.2526
 1002loPI   GL215014   6.065   2.320   5.954 -0.0545  0.0148 -0.1594
 1002loPI   C1A15015   6.567   2.401   6.005 -0.1758  0.3117 -0.0328
 1002loPI   C2A15016   6.603   2.460   6.438  0.0192 -0.1088  0.1255
 1002loPI   C3A15017   6.530   2.440   6.904 -0.0377 -0.2066  0.1430
 1002loPI   C4A15018   6.476   2.458   7.291 -0.1866 -0.0382 -0.1232
 1002loPI   C5A15019   6.481   2.406   7.826 -0.0768 -0.1260  0.1185
 1002loPI   C6A15020   6.836   2.308   8.062 -0.2489  0.1851  0.1663
 1002loPI   C1B15021   6.106   2.485   6.413 -0.1558  0.0446 -0.3454
 1002loPI   C2B15022   5.973   2.562   6.835  0.0157 -0.1662 -0.4254
 1002loPI   C3B15023   5.916   2.531   7.288 -0.1424  0.0083 -0.0441
 1002loPI   C4B15024   6.006   2.634   7.677  0.3480 -0.1653  0.0467
 1003loPI    C115025   5.639   0.768   5.215  0.0514 -0.1983 -0.0071
 1003loPI    C215026   5.521   0.560   4.895 -0.1717  0.1004 -0.1239
 1003loPI    C315027   5.458   0.954   4.911  0.2881  0.1721  0.0726
 1003loPI   PO415028   5.794   0.650   5.316 -0.4590  0.3079 -0.0909
 1003loPI   GL115029   5.914   0.639   5.805 -0.2667  0.0062  0.1090
 1003loPI   GL215030   6.233   0.446   5.983 -0.2177  0.2613 -0.0281
 1003loPI   C1A15031   5.779   0.855   6.075 -0.0441  0.1260 -0.5741
 1003loPI   C2A15032   5.780   0.902   6.540  0.1948 -0.1311  0.0917
 1003loPI   C3A15033   5.722   0.826   6.980 -0.2488 -0.0817 -0.0361
 1003loPI   C4A15034   5.674   0.785   7.375 -0.1206  0.1254 -0.4692
 1003loPI   C5A15035   5.575   0.716   7.787 -0.0774 -0.0353 -0.1246
 1003loPI   C6A15036   5.847   0.453   8.170  0.2269  0.2550  0.1354
 1003loPI   C1B15037   6.004   0.375   6.318 -0.1971 -0.0518  0.1705
 1003loPI   C2B15038   5.924   0.378   6.705  0.2155 -0.0309  0.2244
 1003loPI   C3B15039   5.713   0.030   6.916  0.2562 -0.5187 -0.1960
 1003loPI   C4B15040   5.551  -0.197   7.292  0.2304 -0.1313 -0.2113
 1004loPI    C115041   4.243  15.890   5.573  0.1518 -0.1329 -0.1628
 1004loPI    C215042   4.639  15.917   5.626  0.1378  0.0405 -0.1417
 1004loPI    C315043   4.436  16.226   5.474 -0.0297  0.0524  0.1013
 1004loPI   PO415044   4.238  15.647   5.783  0.0782 -0.0157 -0.1243
 1004loPI   GL115045   4.188  15.697   6.251 -0.1844 -0.0370  0.0341
 1004loPI   GL215046   3.922  15.518   6.145 -0.1147  0.0336 -0.2966
 1004loPI   C1A15047   4.300  15.288   6.340  0.0622 -0.1654 -0.1197
 1004loPI   C2A15048   4.444  15.090   6.626 -0.0971  0.0416 -0.2689
 1004loPI   C3A15049   4.306  15.058   7.132 -0.0497  0.1525 -0.0203
 1004loPI   C4A15050   4.249  14.985   7.580 -0.0785  0.1559 -0.1894
 1004loPI   C5A15051   4.267  14.758   7.949 -0.0042  0.1905  0.0772
 1004loPI   C6A15052   3.949  14.478   8.235  0.2548  0.0470 -0.2801
 1004loPI   C1B15053   3.832  15.680   6.616 -0.0100 -0.0695 -0.2001
 1004loPI   C2B15054   3.847  15.798   7.074 -0.2154  0.2746  0.0396
 1004loPI   C3B15055   3.726  15.891   7.390 -0.0730 -0.1460 -0.0571
 1004loPI   C4B15056   3.435  15.941   7.741  0.1441  0.0297 -0.0657
 1005loPI    C115057   8.999   2.388   5.418 -0.0412 -0.0203  0.1733
 1005loPI    C215058   8.698   2.148   5.309  0.0372 -0.0070 -0.0795
 1005loPI    C315059   9.076   2.036   5.244  0.0867  0.0059  0.1764
 1005loPI   PO415060   8.943   2.453   5.636  0.3583  0.1627  0.0329
 1005loPI   GL115061   9.048   2.690   5.991  0.4030  0.0395  0.1308
 1005loPI   GL215062   9.400   2.656   6.034  0.1824  0.0512  0.0554
 1005loPI   C1A15063   8.841   2.672   6.372  0.2006 -0.0402 -0.0435
 1005loPI   C2A15064   8.378   2.731   6.590 -0.0358  0.0175 -0.3509
 1005loPI   C3A15065   8.324   2.604   7.058 -0.1461  0.3055 -0.0212
 1005loPI   C4A15066   8.487   2.636   7.490 -0.0797 -0.4472 -0.2715
 1005loPI   C5A15067   8.708   2.488   7.750 -0.1223 -0.1369 -0.0465
 1005loPI   C6A15068   8.748   2.164   8.016  0.2054 -0.0202 -0.0042
 1005loPI   C1B15069   9.401   2.712   6.455  0.1676 -0.0107 -0.2436
 1005loPI   C2B15070   9.560   2.714   6.927  0.0737 -0.1101  0.0836
 1005loPI   C3B15071   9.623   2.707   7.383 -0.0934 -0.0255 -0.2071
 1005loPI   C4B15072   9.696   2.571   7.831  0.1556 -0.0521  0.1856
 1006loPI    C115073   6.806  16.394   5.840  0.1053 -0.1516  0.2008
 1006loPI    C215074   7.105  16.651   5.904  0.0841 -0.1193  0.1700
 1006loPI    C315075   7.139  16.371   5.621  0.0558 -0.0687  0.1163
 1006loPI   PO415076   6.561  16.529   5.829 -0.0537  0.0559 -0.0728
 1006loPI   GL115077   6.224  16.515   6.113 -0.0117 -0.2042 -0.0194
 1006loPI   GL215078   5.927  16.316   5.989 -0.1269  0.1591  0.0450
 1006loPI   C1A15079   6.181  16.673   6.536 -0.2290 -0.1736  0.1384
 1006loPI   C2A15080   6.437  16.884   6.848  0.1508 -0.0026  0.0003
 1006loPI   C3A15081   6.619  16.922   7.207  0.1008  0.1263 -0.3697
 1006loPI   C4A15082   6.812  16.668   7.459  0.1950  0.0744  0.1371
 1006loPI   C5A15083   7.001  16.367   7.636 -0.1155 -0.0108 -0.4114
 1006loPI   C6A15084   7.346  16.142   7.469  0.1785  0.2395  0.1338
 1006loPI   C1B15085   5.746  16.247   6.370 -0.0244 -0.1006 -0.2644
 1006loPI   C2B15086   5.913  16.087   6.735 -0.1336 -0.0458  0.5977
 1006loPI   C3B15087   6.300  15.831   6.820 -0.1090 -0.0952 -0.2855
 1006loPI   C4B15088   6.643  15.737   7.077  0.1845 -0.0634  0.0898
 1007loPI    C115089  11.094   4.299   5.697  0.0116 -0.1165  0.1130
 1007loPI    C215090  11.086   4.699   5.721 -0.2823 -0.1023 -0.1653
 1007loPI    C315091  10.775   4.484   5.853 -0.0506 -0.2521  0.1480
 1007loPI   PO415092  11.392   4.281   5.843  0.0030 -0.1555 -0.0848
 1007loPI   GL115093  11.540   4.262   6.352  0.0348  0.1307  0.2074
 1007loPI   GL215094  11.797   4.468   6.384 -0.0812 -0.0235 -0.1262
 1007loPI   C1A15095  11.474   4.039   6.690 -0.0869  0.1061 -0.1218
 1007loPI   C2A15096  11.518   3.992   7.167 -0.0694  0.0138  0.0216
 1007loPI   C3A15097  11.703   3.940   7.591  0.0880 -0.1604  0.2060
 1007loPI   C4A15098  12.024   3.920   7.914 -0.0712  0.1288  0.0198
 1007loPI   C5A15099  12.045   4.188   8.274 -0.0794  0.0988 -0.1456
 1007loPI   C6A15100  11.767   4.351   8.515 -0.0775 -0.3252 -0.1358
 1007loPI   C1B15101  11.882   4.329   6.737  0.1293  0.2251 -0.0998
 1007loPI   C2B15102  11.848   4.356   7.192  0.1016 -0.0930  0.1266
 1007loPI   C3B15103  11.716   4.440   7.565  0.1236  0.0082 -0.0552
 1007loPI   C4B15104  11.719   4.443   8.002  0.3037  0.2110 -0.0145
 1008loPI    C115105   5.891  14.736   5.382 -0.1289 -0.0009 -0.1981
 1008loPI    C215106   6.213  14.614   5.178 -0.1347 -0.0310 -0.1892
 1008loPI    C315107   5.850  14.589   5.013 -0.1682 -0.2894 -0.0812
 1008loPI   PO415108   5.950  14.611   5.617 -0.0373  0.2983 -0.0587
 1008loPI   GL115109   5.815  14.277   5.883 -0.1195 -0.0616 -0.0209
 1008loPI   GL215110   5.495  14.474   5.934  0.1397 -0.0670 -0.0592
 1008loPI   C1A15111   5.939  14.389   6.277  0.0813 -0.2435 -0.0079
 1008loPI   C2A15112   5.814  14.436   6.697  0.3148 -0.2231 -0.0315
 1008loPI   C3A15113   5.647  14.506   7.019  0.1249 -0.1201 -0.2627
 1008loPI   C4A15114   5.459  14.628   7.283  0.1554  0.0027  0.2269
 1008loPI   C5A15115   5.529  14.899   7.542  0.0488  0.0484 -0.2418
 1008loPI   C6A15116   5.635  15.277   7.839 -0.2098  0.1835  0.0399
 1008loPI   C1B15117   5.448  14.336   6.354  0.1594 -0.3315 -0.0805
 1008loPI   C2B15118   5.194  14.427   6.707  0.4245  0.0830 -0.3315
 1008loPI   C3B15119   5.055  14.412   7.123  0.0015  0.1154 -0.3051
 1008loPI   C4B15120   5.133  14.343   7.525  0.2175 -0.3469 -0.0420
 1009loPI    C115121  16.905   2.987   5.008 -0.0209 -0.0536  0.1055
 1009loPI    C215122  16.678   2.667   4.928 -0.0005 -0.0788  0.1484
 1009loPI    C315123  16.529   3.035   4.878  0.0252 -0.0935 -0.0451
 1009loPI   PO415124  17.092   2.777   5.229  0.2180 -0.0797  0.2337
 1009loPI   GL115125  17.031   2.672   5.699  0.0638 -0.1404  0.2321
 1009loPI   GL215126  17.267   2.743   5.985 -0.0364 -0.0697 -0.0145
 1009loPI   C1A15127  16.772   2.923   6.065 -0.2497  0.1989  0.2491
 1009loPI   C2A15128  16.776   2.760   6.318  0.1115 -0.1474  0.5031
 1009loPI   C3A15129  16.834   2.661   6.627 -0.0542  0.0538  0.0830
 1009loPI   C4A15130  16.900   2.659   6.934  0.1487  0.1966 -0.1612
 1009loPI   C5A15131  17.046   2.557   7.298 -0.3169 -0.0423  0.1740
 1009loPI   C6A15132  16.991   2.383   7.719  0.0860  0.1841 -0.0531
 1009loPI   C1B15133  17.314   2.958   6.307 -0.3174 -0.1396  0.0309
 1009loPI   C2B15134  17.424   2.924   6.712  0.0070 -0.1028  0.0606
 1009loPI   C3B15135  17.489   2.751   7.185 -0.0865  0.1325 -0.1248
 1009loPI   C4B15136  17.659   2.584   7.486 -0.2611 -0.0796  0.1947
 1010loPI    C115137   9.702   7.958   5.775 -0.0377  0.0918  0.0648
 1010loPI    C215138   9.554   8.069   5.420 -0.1896  0.1845  0.1564
 1010loPI    C315139   9.913   8.202   5.537 -0.0880  0.0618 -0.0111
 1010loPI   PO415140   9.506   8.051   6.010  0.0438  0.2109 -0.0443
 1010loPI   GL115141   9.393   7.967   6.430  0.0574  0.0071 -0.0021
 1010loPI   GL215142   9.293   8.264   6.452 -0.0095 -0.0199  0.0404
 1010loPI   C1A15143   9.350   7.923   6.891 -0.0774 -0.1033  0.1402
 1010loPI   C2A15144   9.224   7.830   7.289  0.1557 -0.0605  0.4930
 1010loPI   C3A15145   9.154   7.749   7.715 -0.1215 -0.0935 -0.2635
 1010loPI   C4A15146   9.188   7.801   8.176 -0.0234  0.1371 -0.2187
 1010loPI   C5A15147   8.921   8.062   8.325  0.1418  0.0526  0.2523
 1010loPI   C6A15148   8.545   7.996   8.704  0.1825  0.0080  0.1142
 1010loPI   C1B15149   9.278   8.439   6.834 -0.0528 -0.2748 -0.1967
 1010loPI   C2B15150   9.332   8.747   7.211 -0.0509 -0.0062  0.0816
 1010loPI   C3B15151   9.479   9.055   7.434  0.0430 -0.0568 -0.2052
 1010loPI   C4B15152   9.929   9.175   7.393  0.1021  0.3936 -0.2324
 1011loPI    C115153   7.442   1.877   5.158  0.0229  0.3396 -0.0091
 1011loPI    C215154   7.316   1.832   4.781  0.0629  0.2176 -0.0083
 1011loPI    C315155   7.151   2.112   5.014 -0.0841  0.1768 -0.0617
 1011loPI   PO415156   7.442   1.597   5.296  0.2182 -0.2800  0.1921
 1011loPI   GL115157   7.658   1.367   5.642 -0.0617 -0.3721  0.2753
 1011loPI   GL215158   7.807   1.113   5.834  0.1585 -0.0490  0.2327
 1011loPI   C1A15159   7.524   1.439   6.056  0.3316  0.1058 -0.1867
 1011loPI   C2A15160   7.481   1.455   6.536  0.2997 -0.0928 -0.0255
 1011loPI   C3A15161   7.398   1.512   7.026 -0.0159 -0.0439  0.2388
 1011loPI   C4A15162   7.302   1.488   7.483 -0.1891 -0.0235  0.0983
 1011loPI   C5A15163   7.380   1.442   7.985  0.1059  0.0077  0.1284
 1011loPI   C6A15164   7.068   1.589   8.297  0.1699  0.0837 -0.1587
 1011loPI   C1B15165   7.739   0.973   6.282  0.0627  0.1883  0.3804
 1011loPI   C2B15166   7.659   0.934   6.736 -0.2467  0.1675 -0.0450
 1011loPI   C3B15167   7.570   1.009   7.203  0.1559  0.1442  0.1338
 1011loPI   C4B15168   7.480   0.997   7.604 -0.1703  0.0008 -0.0825
 1012loPI    C115169   8.547   6.942   5.598  0.0417 -0.1583  0.1435
 1012loPI    C215170   8.475   7.329   5.523  0.0208 -0.2253 -0.1976
 1012loPI    C315171   8.188   7.099   5.681  0.0026 -0.1249 -0.0827
 1012loPI   PO415172   8.802   6.912   5.706 -0.0164  0.2827  0.0106
 1012loPI   GL115173   8.990   6.741   6.096  0.0268  0.0709  0.0633
 1012loPI   GL215174   9.046   6.556   6.315 -0.1435 -0.2326 -0.0919
 1012loPI   C1A15175   8.930   7.020   6.401  0.0406 -0.2917 -0.2392
 1012loPI   C2A15176   9.014   6.967   6.847 -0.4036 -0.1149  0.0819
 1012loPI   C3A15177   8.979   6.975   7.348  0.0762 -0.1034  0.0986
 1012loPI   C4A15178   8.840   6.816   7.760 -0.0131  0.0495 -0.0971
 1012loPI   C5A15179   9.090   6.710   8.049  0.2500 -0.2472  0.2438
 1012loPI   C6A15180   9.463   6.573   8.368 -0.0849 -0.0030  0.2567
 1012loPI   C1B15181   9.144   6.445   6.681 -0.4669  0.3274  0.0913
 1012loPI   C2B15182   9.068   6.398   7.095  0.0026 -0.2368  0.1688
 1012loPI   C3B15183   9.149   6.351   7.574  0.3059  0.1859 -0.0813
 1012loPI   C4B15184   9.385   6.283   8.004  0.0104  0.0794  0.0138
 1013loPI    C115185  16.664   8.399   5.618 -0.1321 -0.0587  0.0713
 1013loPI    C215186  16.884   8.725   5.686  0.1865 -0.2477 -0.0331
 1013loPI    C315187  16.682   8.689   5.343 -0.1233 -0.0136  0.1192
 1013loPI   PO415188  16.495   8.319   5.855  0.4133  0.0754 -0.0551
 1013loPI   GL115189  16.420   8.226   6.215  0.2273  0.2608  0.0851
 1013loPI   GL215190  16.694   8.134   6.361  0.4511 -0.0596  0.2281
 1013loPI   C1A15191  16.433   8.260   6.743  0.1858 -0.1407  0.0755
 1013loPI   C2A15192  16.341   8.290   7.174  0.4037  0.1457 -0.0631
 1013loPI   C3A15193  16.422   8.259   7.546 -0.3237  0.1608 -0.0029
 1013loPI   C4A15194  16.490   8.410   7.971  0.3443  0.1043  0.1529
 1013loPI   C5A15195  16.765   8.591   8.196  0.1633  0.0176 -0.0038
 1013loPI   C6A15196  16.970   8.901   8.291  0.2733 -0.1508 -0.0939
 1013loPI   C1B15197  16.887   7.894   6.813  0.1826  0.0591 -0.0147
 1013loPI   C2B15198  17.037   7.713   7.245 -0.0999  0.2853  0.0576
 1013loPI   C3B15199  17.033   7.292   7.366  0.1493  0.1068 -0.2832
 1013loPI   C4B15200  17.096   6.763   7.409  0.2818  0.0448  0.2125
 1014loPI    C115201   7.809  14.318   5.685  0.0096 -0.1687  0.1353
 1014loPI    C215202   8.020  14.211   5.362  0.1353  0.1246  0.1170
 1014loPI    C315203   7.637  14.103   5.395  0.1154  0.1097 -0.1409
 1014loPI   PO415204   7.922  14.249   5.963 -0.0987  0.2833  0.0830
 1014loPI   GL115205   7.943  14.283   6.378 -0.0083 -0.0360  0.0682
 1014loPI   GL215206   8.235  14.191   6.334 -0.1435 -0.0785  0.3137
 1014loPI   C1A15207   8.015  14.160   6.860 -0.0236  0.3054  0.1628
 1014loPI   C2A15208   8.331  13.906   7.151 -0.0137 -0.3041 -0.1318
 1014loPI   C3A15209   8.388  13.961   7.643  0.0043 -0.1179 -0.1801
 1014loPI   C4A15210   8.741  13.838   7.879 -0.2251 -0.0121 -0.0702
 1014loPI   C5A15211   9.143  13.931   8.013 -0.1395  0.0623  0.0234
 1014loPI   C6A15212   9.453  13.718   8.127 -0.0207  0.1649  0.0644
 1014loPI   C1B15213   8.389  14.441   6.639  0.2171  0.3663  0.0985
 1014loPI   C2B15214   8.364  14.504   7.076  0.4185  0.2103 -0.0013
 1014loPI   C3B15215   8.203  14.482   7.522 -0.3022 -0.0451  0.0248
 1014loPI   C4B15216   8.304  14.496   7.947  0.1425  0.1437 -0.0843
 1015loPI    C115217  15.442  15.944   5.370  0.1573 -0.1595  0.0628
 1015loPI    C215218  15.414  16.043   4.984  0.1532 -0.0344  0.0949
 1015loPI    C315219  15.225  15.719   5.121 -0.0192  0.0393  0.0346
 1015loPI   PO415220  15.735  15.964   5.434 -0.0653  0.1414 -0.0380
 1015loPI   GL115221  15.741  16.117   5.920  0.2632 -0.3770  0.3327
 1015loPI   GL215222  15.758  15.789   5.894  0.0746 -0.3520 -0.0776
 1015loPI   C1A15223  15.548  16.129   6.290 -0.1184  0.0768  0.4538
 1015loPI   C2A15224  15.460  15.947   6.627  0.0185 -0.1999 -0.2442
 1015loPI   C3A15225  15.582  15.947   7.065 -0.1017  0.1436  0.1362
 1015loPI   C4A15226  15.850  15.736   7.289  0.4669  0.0239  0.2045
 1015loPI   C5A15227  16.052  15.445   7.561 -0.4854 -0.0628  0.0075
 1015loPI   C6A15228  16.277  15.284   7.888 -0.2801 -0.0553 -0.0229
 1015loPI   C1B15229  15.829  15.652   6.376  0.1626 -0.3428 -0.2580
 1015loPI   C2B15230  15.905  15.690   6.799 -0.3075  0.3268 -0.2235
 1015loPI   C3B15231  16.288  15.695   7.102  0.0336 -0.1097  0.1553
 1015loPI   C4B15232  16.557  15.517   7.484 -0.1898  0.0327 -0.1387
 1016loPI    C115233  13.969   1.558   5.297  0.3198  0.1728 -0.1788
 1016loPI    C215234  14.037   1.207   5.116 -0.0856 -0.1273  0.2291
 1016loPI    C315235  13.690   1.399   5.059 -0.0499 -0.0204  0.3643
 1016loPI   PO415236  14.072   1.488   5.625  0.0408  0.1243 -0.0715
 1016loPI   GL115237  14.463   1.468   5.928 -0.0813  0.0995 -0.0370
 1016loPI   GL215238  14.763   1.346   5.877  0.0888  0.1682 -0.0318
 1016loPI   C1A15239  14.399   1.445   6.372  0.0603 -0.2058  0.1296
 1016loPI   C2A15240  14.428   1.253   6.848  0.2018  0.2335 -0.2869
 1016loPI   C3A15241  14.290   1.233   7.232 -0.2057 -0.5011 -0.4781
 1016loPI   C4A15242  14.403   1.132   7.617  0.1689  0.1408  0.3421
 1016loPI   C5A15243  14.740   1.165   7.939  0.3794 -0.1074  0.0782
 1016loPI   C6A15244  15.041   1.313   8.282  0.2537  0.0000 -0.0394
 1016loPI   C1B15245  15.016   1.366   6.254  0.1591  0.2074 -0.2483
 1016loPI   C2B15246  14.964   1.251   6.694  0.0145 -0.1014 -0.2290
 1016loPI   C3B15247  14.860   1.268   7.168 -0.1439 -0.2291  0.0056
 1016loPI   C4B15248  14.932   1.338   7.563 -0.1016  0.1559 -0.0680
 1017loPI    C115249   2.436   2.779   5.403 -0.1053  0.0024  0.2757
 1017loPI    C215250   2.805   2.833   5.261 -0.1855  0.1354  0.1154
 1017loPI    C315251   2.623   2.480   5.215 -0.1742  0.1477 -0.0297
 1017loPI   PO415252   2.433   2.851   5.633  0.1948  0.1403  0.0685
 1017loPI   GL115253   2.747   2.583   5.898  0.1221  0.0995 -0.0926
 1017loPI   GL215254   2.921   2.815   5.744  0.1879  0.0024  0.2520
 1017loPI   C1A15255   2.529   2.658   6.330 -0.1077  0.0169  0.2641
 1017loPI   C2A15256   2.553   2.731   6.660  0.4817 -0.0181 -0.0217
 1017loPI   C3A15257   2.384   2.926   7.012 -0.1389 -0.0302  0.4739
 1017loPI   C4A15258   2.499   3.105   7.425  0.2527  0.0533 -0.3976
 1017loPI   C5A15259   2.543   3.347   7.787 -0.2537 -0.2616 -0.1553
 1017loPI   C6A15260   2.328   3.615   8.114 -0.1516  0.0601 -0.0969
 1017loPI   C1B15261   2.891   3.028   6.167 -0.1016 -0.1532  0.1762
 1017loPI   C2B15262   2.837   3.135   6.614 -0.2828 -0.1285 -0.2719
 1017loPI   C3B15263   2.866   3.002   7.075 -0.1899  0.0582 -0.2406
 1017loPI   C4B15264   2.976   3.168   7.488 -0.2262 -0.2377 -0.1572
 1018loPI    C115265  14.441   6.569   5.516 -0.2161  0.0342 -0.0308
 1018loPI    C215266  14.353   6.536   5.127  0.0066  0.0782 -0.0864
 1018loPI    C315267  14.198   6.277   5.389 -0.2937  0.1611 -0.1779
 1018loPI   PO415268  14.643   6.552   5.591 -0.1356  0.2172 -0.1498
 1018loPI   GL115269  14.756   6.572   6.063 -0.0908 -0.0552  0.0265
 1018loPI   GL215270  14.492   6.726   6.198  0.0279 -0.1461  0.0801
 1018loPI   C1A15271  14.885   6.516   6.454 -0.1250  0.3081  0.1582
 1018loPI   C2A15272  14.710   6.343   6.879 -0.1138 -0.0267 -0.0621
 1018loPI   C3A15273  14.789   6.298   7.353  0.1223  0.2797 -0.0459
 1018loPI   C4A15274  14.618   6.186   7.865  0.0187 -0.1459  0.1211
 1018loPI   C5A15275  14.260   6.092   8.067  0.2462  0.3863 -0.0604
 1018loPI   C6A15276  13.939   5.981   8.361  0.0207 -0.2526 -0.0038
 1018loPI   C1B15277  14.381   6.676   6.640 -0.2414  0.2348 -0.1859
 1018loPI   C2B15278  14.475   6.817   7.071 -0.1339 -0.0980  0.2911
 1018loPI   C3B15279  14.576   6.887   7.473  0.1423 -0.1747  0.2217
 1018loPI   C4B15280  14.703   7.183   7.825  0.1231 -0.0064 -0.2803
 1019loPI    C115281  15.628  16.448   5.199  0.1784  0.0015 -0.0993
 1019loPI    C215282  15.347  16.649   4.997  0.1178  0.0188  0.0015
 1019loPI    C315283  15.621  16.435   4.799 -0.0102 -0.0573 -0.0953
 1019loPI   PO415284  15.436  16.435   5.447 -0.0201 -0.0798 -0.0397
 1019loPI   GL115285  15.165  16.278   5.763 -0.0773  0.0824  0.1864
 1019loPI   GL215286  15.244  16.411   6.011 -0.2513  0.0226 -0.3278
 1019loPI   C1A15287  15.191  15.902   5.877 -0.0558 -0.0371 -0.2960
 1019loPI   C2A15288  15.235  15.640   6.227 -0.3120  0.0196 -0.1674
 1019loPI   C3A15289  15.393  15.439   6.577 -0.2143  0.3500 -0.0391
 1019loPI   C4A15290  15.487  15.454   6.974  0.0110 -0.0217  0.2526
 1019loPI   C5A15291  15.636  15.185   7.341  0.0289  0.0840  0.1462
 1019loPI   C6A15292  15.465  14.938   7.584  0.3047 -0.3320 -0.1673
 1019loPI   C1B15293  15.046  16.146   6.362  0.0525  0.1285  0.0697
 1019loPI   C2B15294  15.031  16.210   6.771 -0.1070  0.0401 -0.0527
 1019loPI   C3B15295  15.234  16.269   7.139 -0.1698 -0.1008 -0.0251
 1019loPI   C4B15296  15.392  16.117   7.513 -0.0358 -0.1217 -0.0628
 1020loPI    C115297   8.177   6.531   5.524  0.0071  0.0330  0.1188
 1020loPI    C215298   7.895   6.259   5.443  0.0763  0.0093 -0.0456
 1020loPI    C315299   8.227   6.275   5.221  0.0989  0.1905 -0.0003
 1020loPI   PO415300   8.156   6.612   5.752  0.1349 -0.0421  0.1752
 1020loPI   GL115301   8.377   6.796   6.115  0.1421 -0.1112  0.2472
 1020loPI   GL215302   8.087   6.967   6.135 -0.3599 -0.0731 -0.3111
 1020loPI   C1A15303   8.569   6.669   6.452 -0.0439 -0.2087  0.0954
 1020loPI   C2A15304   8.632   6.655   6.836 -0.0878  0.0520  0.2185
 1020loPI   C3A15305   8.668   6.565   7.324  0.0803 -0.1738  0.2211
 1020loPI   C4A15306   8.557   6.324   7.690 -0.0013  0.0174 -0.0605
 1020loPI   C5A15307   8.742   6.324   8.098 -0.0985 -0.0052 -0.0528
 1020loPI   C6A15308   8.923   6.386   8.405  0.1138 -0.0902  0.0715
 1020loPI   C1B15309   8.004   6.766   6.461 -0.3177 -0.2298 -0.4634
 1020loPI   C2B15310   8.160   6.621   6.764  0.0606  0.1752  0.0290
 1020loPI   C3B15311   8.208   6.482   7.146 -0.0358 -0.2287 -0.0038
 1020loPI   C4B15312   8.128   6.513   7.558 -0.2396  0.1327  0.0028
 1021loPI    C115313  13.210  13.991   5.156  0.0134  0.0191 -0.1706
 1021loPI    C215314  13.504  13.796   4.968  0.0632  0.1761 -0.2579
 1021loPI    C315315  13.144  13.827   4.797 -0.1151 -0.3244  0.0052
 1021loPI   PO415316  13.301  13.947   5.396  0.0774  0.0771  0.0113
 1021loPI   GL115317  13.095  13.996   5.730  0.0944 -0.1456 -0.0706
 1021loPI   GL215318  13.385  13.849   5.927  0.0719 -0.1123 -0.0560
 1021loPI   C1A15319  13.030  14.140   6.146  0.1486 -0.0968 -0.0517
 1021loPI   C2A15320  13.037  14.187   6.584 -0.1197 -0.1808  0.2302
 1021loPI   C3A15321  13.020  14.085   6.898  0.2510 -0.1963  0.1951
 1021loPI   C4A15322  12.838  13.992   7.250 -0.2394  0.0868 -0.1516
 1021loPI   C5A15323  13.039  13.854   7.682 -0.0595  0.2078 -0.4195
 1021loPI   C6A15324  13.112  13.912   8.131 -0.2776  0.2699  0.0767
 1021loPI   C1B15325  13.407  13.839   6.402 -0.0258 -0.0025 -0.0915
 1021loPI   C2B15326  13.353  13.724   6.820  0.1663  0.0155 -0.2616
 1021loPI   C3B15327  13.318  13.735   7.168 -0.2040 -0.2314  0.0150
 1021loPI   C4B15328  13.295  14.076   7.380 -0.0706  0.1351  0.3812
 1022loPI    C115329   8.735  10.624   5.537 -0.0008 -0.0999  0.0913
 1022loPI    C215330   8.811  10.730   5.159 -0.0626 -0.0209  0.1009
 1022loPI    C315331   8.437  10.643   5.271 -0.0361 -0.0969  0.1309
 1022loPI   PO415332   9.014  10.607   5.608  0.1683 -0.1177 -0.0389
 1022loPI   GL115333   9.265  10.413   5.886  0.2206  0.0990 -0.0557
 1022loPI   GL215334   9.275  10.720   6.143  0.3780  0.1992 -0.1459
 1022loPI   C1A15335   9.109  10.274   6.311 -0.1084  0.3066  0.1409
 1022loPI   C2A15336   9.051  10.298   6.745  0.0321 -0.1362  0.2697
 1022loPI   C3A15337   9.222  10.402   7.075 -0.0521  0.1127  0.0112
 1022loPI   C4A15338   9.242  10.361   7.517  0.0944  0.0126  0.2110
 1022loPI   C5A15339   9.027  10.510   7.922  0.1992 -0.0495  0.1744
 1022loPI   C6A15340   8.894  10.517   8.261 -0.1095  0.1506 -0.1315
 1022loPI   C1B15341   9.372  10.770   6.540  0.0526 -0.2350  0.0885
 1022loPI   C2B15342   9.551  11.019   6.850 -0.4822  0.2083  0.1398
 1022loPI   C3B15343   9.691  11.115   7.235  0.0798  0.4708 -0.1879
 1022loPI   C4B15344   9.822  11.305   7.473 -0.0051 -0.2069  0.0296
 1023loPI    C115345   4.411  15.092   5.198  0.1224  0.0427 -0.0095
 1023loPI    C215346   4.133  15.197   4.929  0.0458 -0.1265  0.0025
 1023loPI    C315347   4.432  15.448   5.016 -0.1063  0.0600 -0.0062
 1023loPI   PO415348   4.322  15.074   5.443  0.2100 -0.2397 -0.2804
 1023loPI   GL115349   4.398  15.182   5.919 -0.1096 -0.1386  0.3192
 1023loPI   GL215350   4.702  14.973   5.844  0.2726 -0.2328  0.0124
 1023loPI   C1A15351   4.804  15.187   6.297  0.1229  0.1963 -0.1597
 1023loPI   C2A15352   4.961  15.305   6.682 -0.0860 -0.1660 -0.1648
 1023loPI   C3A15353   4.744  15.373   7.038  0.1578 -0.1600  0.0121
 1023loPI   C4A15354   4.662  15.252   7.418  0.2394 -0.1126 -0.0449
 1023loPI   C5A15355   4.663  15.061   7.803  0.1683 -0.0841  0.0167
 1023loPI   C6A15356   4.697  14.820   8.194 -0.0268 -0.0598 -0.0846
 1023loPI   C1B15357   4.427  14.810   6.243 -0.0387  0.0002  0.2239
 1023loPI   C2B15358   4.127  14.622   6.421  0.3159  0.1023  0.3176
 1023loPI   C3B15359   3.887  14.753   6.782  0.1064  0.0245  0.0255
 1023loPI   C4B15360   3.848  14.858   7.156 -0.2169  0.1744 -0.0069
 1024loPI    C115361   0.570   2.234   5.115  0.2156  0.0047  0.0907
 1024loPI    C215362   0.763   2.516   4.907 -0.0156  0.0848 -0.0185
 1024loPI    C315363   0.689   2.160   4.740 -0.1990  0.1482 -0.0756
 1024loPI   PO415364   0.458   2.415   5.300 -0.0404  0.1371 -0.2208
 1024loPI   GL115365   0.423   2.585   5.617  0.0153  0.1044  0.0972
 1024loPI   GL215366   0.214   2.523   5.745  0.3735  0.0751  0.1483
 1024loPI   C1A15367   0.586   2.221   5.906  0.1059 -0.2764  0.0911
 1024loPI   C2A15368   0.634   2.255   6.359 -0.0988  0.0260 -0.1415
 1024loPI   C3A15369   0.691   2.258   6.864 -0.1112 -0.0683  0.1953
 1024loPI   C4A15370   0.650   2.179   7.367 -0.2895  0.2708 -0.0201
 1024loPI   C5A15371   0.656   1.965   7.800  0.1582  0.0116 -0.0980
 1024loPI   C6A15372   0.346   1.820   8.063  0.0525 -0.1687  0.0717
 1024loPI   C1B15373   0.163   2.326   6.152 -0.1321  0.3157  0.1700
 1024loPI   C2B15374   0.126   2.230   6.581  0.3162 -0.3356  0.3472
 1024loPI   C3B15375   0.243   2.099   7.084  0.0440 -0.2859  0.2250
 1024loPI   C4B15376   0.266   1.784   7.541  0.2668  0.3612 -0.1055
 1025loPI    C115377   8.208   2.071   5.141 -0.0812  0.1207 -0.0872
 1025loPI    C215378   8.076   1.857   4.830  0.2295 -0.1480 -0.0386
 1025loPI    C315379   8.448   2.005   4.828  0.0429  0.3370 -0.0400
 1025loPI   PO415380   8.080   2.266   5.183 -0.0182  0.0677 -0.0483
 1025loPI   GL115381   7.865   2.552   5.489  0.1727  0.0242  0.0871
 1025loPI   GL215382   7.965   2.308   5.702  0.2354 -0.0306 -0.1960
 1025loPI   C1A15383   7.997   2.815   5.957  0.0011 -0.2005  0.0079
 1025loPI   C2A15384   7.938   2.709   6.335 -0.1618  0.0496 -0.2877
 1025loPI   C3A15385   7.882   2.761   6.765  0.1716  0.0057 -0.0887
 1025loPI   C4A15386   7.859   2.733   7.243 -0.0100 -0.1564 -0.1435
 1025loPI   C5A15387   7.833   2.710   7.697 -0.0493 -0.1389 -0.3243
 1025loPI   C6A15388   7.945   2.937   8.122 -0.1483  0.1797  0.0674
 1025loPI   C1B15389   7.768   2.289   6.114  0.2417  0.0413 -0.3763
 1025loPI   C2B15390   7.617   2.242   6.431  0.1581  0.2612 -0.1592
 1025loPI   C3B15391   7.536   2.334   6.853  0.1691 -0.1039 -0.0341
 1025loPI   C4B15392   7.531   2.331   7.296  0.1801 -0.1066  0.1137
 1026loPI    C115393   8.467  11.617   5.505  0.1373  0.0508  0.1155
 1026loPI    C215394   8.842  11.746   5.457  0.2050 -0.2193 -0.1014
 1026loPI    C315395   8.673  11.512   5.179 -0.0787 -0.2079  0.0581
 1026loPI   PO415396   8.406  11.504   5.752  0.1427 -0.2431 -0.0135
 1026loPI   GL115397   8.350  11.508   6.201 -0.0546  0.0618  0.2541
 1026loPI   GL215398   8.575  11.470   6.354 -0.1350 -0.0770  0.1419
 1026loPI   C1A15399   8.327  11.892   6.509  0.2378 -0.0482  0.1578
 1026loPI   C2A15400   8.441  11.889   6.965 -0.0037 -0.1141 -0.0699
 1026loPI   C3A15401   8.422  11.961   7.420 -0.0960 -0.0291  0.1755
 1026loPI   C4A15402   8.507  12.122   7.823  0.1734  0.3107 -0.0817
 1026loPI   C5A15403   8.532  12.238   8.269  0.1360 -0.1836 -0.0287
 1026loPI   C6A15404   8.546  11.943   8.603  0.1533 -0.1411 -0.3442
 1026loPI   C1B15405   8.760  11.673   6.671  0.1268  0.0461  0.0177
 1026loPI   C2B15406   8.906  11.782   7.143 -0.0789 -0.2191 -0.2233
 1026loPI   C3B15407   8.935  12.163   7.395  0.0350  0.1530  0.4524
 1026loPI   C4B15408   8.751  12.534   7.511  0.1386  0.2381  0.1050
 1027loPI    C115409  12.099   2.863   5.317 -0.1071  0.1850  0.0285
 1027loPI    C215410  11.806   3.049   5.119 -0.0259  0.1173 -0.1574
 1027loPI    C315411  11.808   2.650   5.145 -0.0603  0.1280  0.0194
 1027loPI   PO415412  12.110   2.830   5.574  0.0645  0.1243  0.0446
 1027loPI   GL115413  12.179   2.858   6.008 -0.2651  0.0697 -0.0463
 1027loPI   GL215414  12.475   3.038   6.151 -0.0174 -0.1959  0.0725
 1027loPI   C1A15415  12.089   2.727   6.461 -0.0816 -0.0580 -0.1922
 1027loPI   C2A15416  12.098   2.649   6.880 -0.0650 -0.2114 -0.0569
 1027loPI   C3A15417  12.005   2.793   7.256 -0.3571 -0.3454 -0.3621
 1027loPI   C4A15418  12.066   2.766   7.646  0.1326 -0.0432 -0.1637
 1027loPI   C5A15419  11.875   2.529   8.009  0.1026  0.0518  0.0004
 1027loPI   C6A15420  11.769   2.282   8.282 -0.1592  0.2833 -0.1496
 1027loPI   C1B15421  12.534   2.863   6.607 -0.2059 -0.1427 -0.2447
 1027loPI   C2B15422  12.581   2.762   7.100  0.1741  0.0312 -0.0208
 1027loPI   C3B15423  12.516   2.694   7.523 -0.0282  0.2708 -0.1806
 1027loPI   C4B15424  12.426   2.582   7.972 -0.2196 -0.2584 -0.0936
 1028loPI    C115425   0.472  12.830   5.548 -0.4654  0.2163  0.2736
 1028loPI    C215426   0.540  13.220   5.604 -0.1403  0.2151 -0.0765
 1028loPI    C315427   0.451  13.083   5.239 -0.2511 -0.0404  0.0441
 1028loPI   PO415428   0.625  12.705   5.741  0.0711 -0.2978 -0.0276
 1028loPI   GL115429   0.846  12.519   6.024  0.1262 -0.2904 -0.0197
 1028loPI   GL215430   0.963  12.647   6.192  0.1889 -0.0401 -0.1102
 1028loPI   C1A15431   0.806  12.182   6.288 -0.3336  0.0209  0.2751
 1028loPI   C2A15432   0.910  11.956   6.751 -0.1959 -0.0983  0.2687
 1028loPI   C3A15433   0.756  11.861   7.062  0.0527  0.1494 -0.0833
 1028loPI   C4A15434   0.824  11.809   7.486  0.0565  0.1482  0.0678
 1028loPI   C5A15435   0.872  11.815   7.894  0.0297  0.1881  0.0980
 1028loPI   C6A15436   1.129  11.841   8.170  0.1752  0.3133 -0.1868
 1028loPI   C1B15437   0.925  12.682   6.534  0.0069 -0.1218  0.0139
 1028loPI   C2B15438   0.865  12.947   6.932 -0.4924 -0.1209 -0.2200
 1028loPI   C3B15439   0.815  12.790   7.314  0.0426 -0.2810  0.0334
 1028loPI   C4B15440   0.791  12.848   7.798  0.0125 -0.0914  0.1689
 1029loPI    C115441   0.334  12.120   5.541 -0.0448  0.1015 -0.1406
 1029loPI    C215442   0.652  12.102   5.783 -0.1215  0.0903 -0.0399
 1029loPI    C315443   0.642  11.883   5.449 -0.1127 -0.0688  0.0632
 1029loPI   PO415444   0.248  12.371   5.657  0.1688 -0.2798  0.1148
 1029loPI   GL115445   0.201  12.430   5.956 -0.0566 -0.0489 -0.3055
 1029loPI   GL215446  -0.072  12.498   6.170  0.1028  0.3476 -0.4312
 1029loPI   C1A15447   0.417  12.594   6.331 -0.1265 -0.0954  0.0212
 1029loPI   C2A15448   0.420  12.779   6.642 -0.1515  0.1433  0.0165
 1029loPI   C3A15449   0.404  12.684   7.032 -0.1619 -0.1111  0.0509
 1029loPI   C4A15450   0.432  12.575   7.475 -0.2092 -0.3743  0.2118
 1029loPI   C5A15451   0.404  12.600   7.922  0.1234  0.0632 -0.0615
 1029loPI   C6A15452   0.334  12.492   8.428 -0.3190  0.2039 -0.0356
 1029loPI   C1B15453   0.015  12.415   6.613  0.0414  0.0620 -0.3524
 1029loPI   C2B15454  -0.102  12.473   7.086  0.0283  0.0166  0.1352
 1029loPI   C3B15455  -0.061  12.492   7.558  0.1584 -0.1443  0.0692
 1029loPI   C4B15456  -0.066  12.515   8.022  0.1316 -0.0017 -0.0323
 1030loPI    C115457   5.232   4.250   5.414 -0.0841 -0.0498 -0.0778
 1030loPI    C215458   5.285   4.156   5.029  0.0402  0.0329 -0.0814
 1030loPI    C315459   5.093   3.903   5.272 -0.0593 -0.0091 -0.2029
 1030loPI   PO415460   5.102   4.487   5.436 -0.0029 -0.1849  0.1520
 1030loPI   GL115461   4.885   4.470   5.824 -0.0025 -0.2832 -0.0645
 1030loPI   GL215462   5.115   4.682   5.887  0.1589  0.2816  0.3012
 1030loPI   C1A15463   4.964   4.152   6.159 -0.0052  0.0736 -0.0350
 1030loPI   C2A15464   4.921   4.008   6.560  0.1397 -0.1653  0.2287
 1030loPI   C3A15465   4.882   3.997   6.962 -0.1104 -0.0703 -0.2033
 1030loPI   C4A15466   4.870   4.055   7.441  0.0315 -0.2622  0.1011
 1030loPI   C5A15467   4.681   4.060   7.778 -0.2441  0.0559 -0.1696
 1030loPI   C6A15468   4.848   4.045   8.232 -0.1164  0.5054  0.0553
 1030loPI   C1B15469   5.373   4.815   6.276  0.1507 -0.1662  0.1629
 1030loPI   C2B15470   5.475   4.858   6.630 -0.0716 -0.0066  0.1761
 1030loPI   C3B15471   5.596   4.930   7.045  0.1358 -0.2984 -0.0508
 1030loPI   C4B15472   5.736   4.994   7.494 -0.0261 -0.2760 -0.1513
 1031loPI    C115473   6.242  12.515   5.114  0.1230 -0.0961  0.0723
 1031loPI    C215474   6.483  12.313   4.867 -0.0661  0.0295 -0.2205
 1031loPI    C315475   6.091  12.334   4.790 -0.0918  0.2651 -0.0350
 1031loPI   PO415476   6.318  12.446   5.358  0.1194  0.2496  0.2399
 1031loPI   GL115477   6.350  12.625   5.746  0.3007  0.1492 -0.3224
 1031loPI   GL215478   6.389  13.017   5.816  0.1404 -0.4023 -0.2611
 1031loPI   C1A15479   6.014  12.706   6.034  0.0490 -0.0588 -0.1528
 1031loPI   C2A15480   6.008  12.623   6.521 -0.2337 -0.3012  0.1787
 1031loPI   C3A15481   6.061  12.674   6.850  0.3004 -0.0490 -0.0942
 1031loPI   C4A15482   5.960  12.793   7.173 -0.2962  0.1380  0.2882
 1031loPI   C5A15483   5.825  12.890   7.590  0.0132  0.0889 -0.0226
 1031loPI   C6A15484   5.699  12.916   7.967 -0.0901  0.0567 -0.2575
 1031loPI   C1B15485   6.205  13.046   6.291  0.1927  0.0114 -0.0203
 1031loPI   C2B15486   6.047  13.171   6.665 -0.2569 -0.2204  0.2058
 1031loPI   C3B15487   6.024  13.285   7.155 -0.0710 -0.0783  0.0441
 1031loPI   C4B15488   6.249  13.256   7.554 -0.0743 -0.0689  0.1198
 1032loPI    C115489   4.563   7.580   5.553  0.0144  0.1708 -0.1470
 1032loPI    C215490   4.786   7.452   5.246 -0.0904 -0.0611 -0.1287
 1032loPI    C315491   4.397   7.529   5.193 -0.0369  0.2192 -0.1304
 1032loPI   PO415492   4.639   7.464   5.751 -0.2245  0.2767 -0.0732
 1032loPI   GL115493   4.363   7.681   6.072 -0.1578 -0.2371 -0.3007
 1032loPI   GL215494   4.262   7.418   6.164 -0.0949  0.1391 -0.0866
 1032loPI   C1A15495   4.288   7.617   6.588 -0.3151  0.0483 -0.2263
 1032loPI   C2A15496   4.234   7.779   7.014  0.2292  0.1266 -0.0950
 1032loPI   C3A15497   4.113   7.793   7.398 -0.1263 -0.0953  0.0664
 1032loPI   C4A15498   4.199   7.829   7.914  0.1779  0.2040  0.1232
 1032loPI   C5A15499   4.324   7.650   8.227  0.1036  0.2061 -0.0900
 1032loPI   C6A15500   4.031   7.314   8.294 -0.4133 -0.1851 -0.0455
 1032loPI   C1B15501   4.457   7.063   6.440  0.0569 -0.0165  0.3380
 1032loPI   C2B15502   4.500   6.765   6.774  0.1916  0.1188 -0.1875
 1032loPI   C3B15503   4.387   6.692   7.165  0.0758  0.0809 -0.2067
 1032loPI   C4B15504   4.445   6.649   7.608  0.0792  0.1283 -0.1516
 1033loPI    C115505   3.957  17.409   5.249 -0.0366  0.0613  0.0585
 1033loPI    C215506   4.026  17.586   4.897 -0.0253 -0.0744 -0.0085
 1033loPI    C315507   4.300  17.342   5.055  0.0167  0.0721  0.1487
 1033loPI   PO415508   3.895  17.604   5.450 -0.0580  0.0259 -0.0344
 1033loPI   GL115509   3.855  17.684   5.970 -0.1413  0.3693  0.0148
 1033loPI   GL215510   4.238  17.531   5.921  0.1825  0.1999  0.0280
 1033loPI   C1A15511   3.776  17.741   6.381  0.0165  0.1386 -0.0380
 1033loPI   C2A15512   3.643  17.816   6.799  0.0194  0.0303  0.2194
 1033loPI   C3A15513   3.531  17.764   7.199  0.3476  0.2247 -0.1158
 1033loPI   C4A15514   3.399  17.920   7.523 -0.3017 -0.4473 -0.2821
 1033loPI   C5A15515   3.473  18.058   7.950  0.3240 -0.0200  0.1116
 1033loPI   C6A15516   3.479  17.996   8.416  0.3303 -0.0755 -0.0581
 1033loPI   C1B15517   4.282  17.658   6.352  0.0955  0.2551 -0.0766
 1033loPI   C2B15518   4.154  17.738   6.766 -0.2670 -0.2914 -0.0175
 1033loPI   C3B15519   4.015  17.916   7.236 -0.1895 -0.2996 -0.2148
 1033loPI   C4B15520   3.973  17.932   7.570  0.3995 -0.2710  0.0719
 1034loPI    C115521   1.425  13.183   5.580  0.2539  0.1260  0.0922
 1034loPI    C215522   1.634  13.404   5.319  0.3307 -0.0752 -0.0196
 1034loPI    C315523   1.382  13.123   5.187  0.2822 -0.0995  0.1221
 1034loPI   PO415524   1.575  13.164   5.748  0.2425  0.0554 -0.1886
 1034loPI   GL115525   1.427  13.064   6.183 -0.2442 -0.1373 -0.0612
 1034loPI   GL215526   1.177  13.114   6.300 -0.0127 -0.0279  0.1427
 1034loPI   C1A15527   1.410  12.718   6.501  0.0990 -0.0497  0.1491
 1034loPI   C2A15528   1.318  12.636   6.924  0.0365  0.0846  0.0205
 1034loPI   C3A15529   1.268  12.620   7.379  0.0810 -0.2201  0.1130
 1034loPI   C4A15530   1.234  12.538   7.808 -0.3184  0.0760 -0.1214
 1034loPI   C5A15531   1.284  12.291   8.119 -0.1683 -0.1978  0.0652
 1034loPI   C6A15532   1.515  12.134   8.380  0.1170 -0.0988 -0.0268
 1034loPI   C1B15533   1.265  13.133   6.688 -0.0764  0.4682 -0.2921
 1034loPI   C2B15534   1.308  13.138   7.161 -0.2985  0.1557 -0.0214
 1034loPI   C3B15535   1.302  13.039   7.577  0.1608  0.0135 -0.0630
 1034loPI   C4B15536   1.216  13.008   8.045  0.0256 -0.1301  0.1992
 1035loPI    C115537   2.327  13.130   5.279 -0.3355 -0.2077  0.1811
 1035loPI    C215538   2.089  13.412   5.126 -0.1071 -0.0485  0.1130
 1035loPI    C315539   2.250  13.136   4.886 -0.0803 -0.0488  0.1311
 1035loPI   PO415540   2.479  13.243   5.469  0.1399 -0.1035 -0.1403
 1035loPI   GL115541   2.399  13.236   5.904 -0.0256  0.0451 -0.1018
 1035loPI   GL215542   2.417  13.521   6.034  0.1203 -0.1510  0.0591
 1035loPI   C1A15543   2.384  13.093   6.402  0.3594  0.0575 -0.0958
 1035loPI   C2A15544   2.296  12.974   6.793 -0.0797 -0.0740 -0.2067
 1035loPI   C3A15545   2.172  13.098   7.128  0.1548 -0.2204 -0.2444
 1035loPI   C4A15546   2.177  13.136   7.484 -0.1002 -0.2237 -0.1740
 1035loPI   C5A15547   2.200  13.150   7.948  0.2159 -0.1112  0.2029
 1035loPI   C6A15548   2.560  13.320   8.302  0.0074  0.2705  0.0650
 1035loPI   C1B15549   2.425  13.562   6.426  0.1128  0.0514  0.1470
 1035loPI   C2B15550   2.340  13.583   6.836  0.1260  0.1457 -0.0688
 1035loPI   C3B15551   2.268  13.681   7.181 -0.1573  0.1448  0.0679
 1035loPI   C4B15552   2.165  13.698   7.564  0.1728 -0.3548  0.0293
 1036loPI    C115553  10.875   5.138   5.442 -0.0816 -0.2789 -0.1106
 1036loPI    C215554  11.078   5.473   5.365 -0.0698 -0.2183  0.1729
 1036loPI    C315555  10.932   5.254   5.063 -0.0167  0.0025 -0.0167
 1036loPI   PO415556  11.023   5.156   5.742 -0.1382  0.1811  0.0516
 1036loPI   GL115557  10.865   5.023   6.118  0.1962 -0.2125  0.1376
 1036loPI   GL215558  10.764   5.282   6.290  0.1860  0.2742 -0.0161
 1036loPI   C1A15559  10.642   4.809   6.454 -0.1035 -0.3144  0.2150
 1036loPI   C2A15560  10.922   4.806   6.886 -0.0892  0.1663  0.2966
 1036loPI   C3A15561  10.936   4.838   7.277  0.2009 -0.0901  0.0542
 1036loPI   C4A15562  10.917   4.694   7.639 -0.1685  0.3683 -0.0639
 1036loPI   C5A15563  11.012   4.593   8.012  0.3817  0.0619  0.1201
 1036loPI   C6A15564  11.018   4.704   8.437  0.0473 -0.0088  0.2090
 1036loPI   C1B15565  10.788   5.268   6.706  0.1998 -0.2520  0.1402
 1036loPI   C2B15566  10.672   5.276   7.151 -0.1194  0.0893 -0.1547
 1036loPI   C3B15567  10.773   5.181   7.599 -0.1132  0.2564  0.1249
 1036loPI   C4B15568  10.863   5.079   8.056 -0.1303 -0.0571 -0.1226
 1037loPI    C115569  15.990   9.281   5.543 -0.0597  0.1584  0.1661
 1037loPI    C215570  16.243   9.038   5.351 -0.3590  0.0324 -0.0778
 1037loPI    C315571  16.223   9.425   5.251  0.1021  0.1616  0.2958
 1037loPI   PO415572  16.033   9.263   5.808 -0.1789  0.2472 -0.0046
 1037loPI   GL115573  15.952   9.342   6.299 -0.1502 -0.0543 -0.4240
 1037loPI   GL215574  16.311   9.303   6.236 -0.0593 -0.0206  0.0060
 1037loPI   C1A15575  16.263   9.191   6.695 -0.0359  0.2033  0.0663
 1037loPI   C2A15576  16.225   9.215   7.067  0.1139 -0.1595 -0.1735
 1037loPI   C3A15577  16.128   9.222   7.489  0.1289 -0.1252  0.0080
 1037loPI   C4A15578  16.156   9.146   7.860 -0.3105  0.0047  0.1263
 1037loPI   C5A15579  16.317   8.981   8.292  0.0329  0.1022  0.1765
 1037loPI   C6A15580  16.621   9.121   8.583 -0.0115  0.1827 -0.0715
 1037loPI   C1B15581  16.532   9.553   6.534 -0.0766  0.1150  0.0803
 1037loPI   C2B15582  16.527   9.627   6.946  0.0212  0.2788  0.0545
 1037loPI   C3B15583  16.357   9.591   7.314  0.0415  0.2896 -0.1220
 1037loPI   C4B15584  16.426   9.563   7.760  0.0488 -0.0277 -0.3510
 1038loPI    C115585   9.221  13.612   5.635 -0.1700  0.0888  0.0030
 1038loPI    C215586   9.337  13.313   5.396  0.1760  0.1606  0.0749
 1038loPI    C315587   9.174  13.643   5.239  0.0379  0.0453 -0.0265
 1038loPI   PO415588   9.430  13.629   5.810 -0.1020  0.0938 -0.1009
 1038loPI   GL115589   9.383  13.671   6.204 -0.1294 -0.2352 -0.4501
 1038loPI   GL215590   9.778  13.627   6.205 -0.0932 -0.0003  0.1353
 1038loPI   C1A15591   9.504  13.623   6.655  0.1236  0.0171 -0.1442
 1038loPI   C2A15592   9.737  13.643   6.962 -0.1007  0.0542 -0.0538
 1038loPI   C3A15593   9.798  13.637   7.318  0.0802  0.0452  0.1081
 1038loPI   C4A15594   9.948  13.901   7.744  0.2034  0.2952 -0.0070
 1038loPI   C5A15595  10.246  14.047   7.968 -0.1827  0.0604 -0.2110
 1038loPI   C6A15596  10.575  14.054   8.217  0.4740 -0.0830  0.2804
 1038loPI   C1B15597  10.043  13.585   6.536 -0.0263 -0.0338  0.0969
 1038loPI   C2B15598  10.119  13.307   6.895  0.1780  0.0167  0.1162
 1038loPI   C3B15599  10.100  13.199   7.329 -0.0155  0.1072 -0.1537
 1038loPI   C4B15600  10.044  13.372   7.684 -0.0651 -0.0247 -0.3367
 1039loPI    C115601  11.032  13.681   5.487  0.1729 -0.0462  0.0286
 1039loPI    C215602  11.406  13.728   5.352  0.1571 -0.1386 -0.0490
 1039loPI    C315603  11.126  13.571   5.114  0.0277  0.0866 -0.0480
 1039loPI   PO415604  10.941  13.941   5.525  0.2012 -0.2353  0.3317
 1039loPI   GL115605  10.872  13.965   5.928  0.2841  0.0837 -0.1840
 1039loPI   GL215606  10.790  13.734   6.078 -0.0473 -0.3984  0.0899
 1039loPI   C1A15607  11.189  14.089   6.243 -0.1092 -0.0202  0.1600
 1039loPI   C2A15608  11.270  14.123   6.744 -0.0019 -0.0633  0.2133
 1039loPI   C3A15609  11.314  14.279   7.130 -0.0457 -0.2637  0.1949
 1039loPI   C4A15610  11.031  14.175   7.383 -0.1529 -0.1010  0.0127
 1039loPI   C5A15611  10.974  14.211   7.885 -0.0569  0.2736  0.2563
 1039loPI   C6A15612  10.909  14.421   8.325 -0.3876 -0.4627  0.1504
 1039loPI   C1B15613  10.820  13.831   6.573 -0.1087 -0.1809  0.2061
 1039loPI   C2B15614  10.804  13.943   7.029 -0.2680  0.2116 -0.2572
 1039loPI   C3B15615  10.466  14.237   7.235 -0.1726 -0.0661  0.2386
 1039loPI   C4B15616  10.233  14.622   7.334  0.0935  0.2349 -0.0284
 1040loPI    C115617   5.501   6.361   5.791 -0.0194 -0.0055  0.0881
 1040loPI    C215618   5.444   6.322   5.397  0.1156  0.0235  0.0651
 1040loPI    C315619   5.806   6.414   5.538  0.0439  0.1181  0.1897
 1040loPI   PO415620   5.374   6.188   5.876  0.2723  0.1324  0.0138
 1040loPI   GL115621   5.010   6.192   6.086  0.1322  0.0864 -0.3450
 1040loPI   GL215622   4.867   6.000   6.251  0.0620 -0.1063 -0.1566
 1040loPI   C1A15623   5.194   6.376   6.470  0.0309  0.2831  0.0077
 1040loPI   C2A15624   5.281   6.284   6.866  0.1449  0.1312  0.1575
 1040loPI   C3A15625   5.261   6.247   7.278  0.1521 -0.0199 -0.2305
 1040loPI   C4A15626   5.445   6.203   7.680 -0.1092 -0.0892  0.1063
 1040loPI   C5A15627   5.185   6.298   8.048  0.2637 -0.0256 -0.0206
 1040loPI   C6A15628   5.080   6.679   8.235 -0.2267  0.2186  0.0927
 1040loPI   C1B15629   4.947   5.839   6.622  0.0443 -0.0390  0.2574
 1040loPI   C2B15630   4.959   5.775   7.077  0.1889  0.1864 -0.1539
 1040loPI   C3B15631   5.077   5.863   7.490 -0.1104 -0.0813 -0.0438
 1040loPI   C4B15632   4.812   5.999   7.911 -0.1481 -0.0550  0.3112
 1041loPI    C115633  12.750  13.341   5.232 -0.0078 -0.0141  0.0610
 1041loPI    C215634  12.961  13.032   5.092  0.0188  0.0111  0.0450
 1041loPI    C315635  12.635  13.156   4.896  0.0080 -0.0067  0.0516
 1041loPI   PO415636  12.979  13.521   5.301 -0.1729  0.0409 -0.1369
 1041loPI   GL115637  13.334  13.443   5.489  0.1119  0.1145  0.2420
 1041loPI   GL215638  13.642  13.575   5.570  0.0039 -0.0573 -0.0509
 1041loPI   C1A15639  13.141  13.411   5.937 -0.2359  0.1601  0.0037
 1041loPI   C2A15640  13.209  13.406   6.377  0.0441  0.0682 -0.0084
 1041loPI   C3A15641  13.135  13.257   6.888 -0.2725  0.4526 -0.1119
 1041loPI   C4A15642  13.201  13.168   7.282  0.3771 -0.1314 -0.1567
 1041loPI   C5A15643  13.361  13.495   7.578  0.1108 -0.0155 -0.0407
 1041loPI   C6A15644  13.450  13.614   7.960  0.1052  0.2913 -0.1204
 1041loPI   C1B15645  13.829  13.540   5.898  0.1494  0.2692 -0.1453
 1041loPI   C2B15646  13.824  13.496   6.249 -0.2150  0.0608 -0.0052
 1041loPI   C3B15647  13.802  13.472   6.740 -0.0572  0.2765  0.0706
 1041loPI   C4B15648  13.694  13.366   7.104  0.0086  0.1134 -0.0663
 1042loPI    C115649   7.205  15.401   5.780  0.0513  0.0220  0.0721
 1042loPI    C215650   6.809  15.457   5.757  0.0618  0.0873  0.0491
 1042loPI    C315651   6.954  15.103   5.873 -0.0011 -0.0122 -0.1707
 1042loPI   PO415652   7.375  15.610   5.908 -0.1166  0.4673  0.0783
 1042loPI   GL115653   7.536  15.742   6.303 -0.1503 -0.1352 -0.0902
 1042loPI   GL215654   7.836  15.631   6.230 -0.2054  0.1390 -0.2706
 1042loPI   C1A15655   7.483  15.972   6.598  0.0721 -0.2404  0.1699
 1042loPI   C2A15656   7.260  16.240   6.941  0.2428 -0.1266 -0.0460
 1042loPI   C3A15657   6.958  16.157   7.130  0.0795 -0.0726 -0.2166
 1042loPI   C4A15658   6.527  16.283   7.403  0.2627 -0.2185  0.0930
 1042loPI   C5A15659   6.096  16.138   7.301  0.0938  0.1020 -0.0050
 1042loPI   C6A15660   5.695  15.829   7.185  0.0501  0.0774 -0.0818
 1042loPI   C1B15661   7.821  15.614   6.663  0.0027 -0.0298  0.0660
 1042loPI   C2B15662   7.836  15.384   7.084 -0.0409 -0.1520 -0.1498
 1042loPI   C3B15663   7.859  15.351   7.498 -0.0599  0.0857  0.0699
 1042loPI   C4B15664   8.145  15.179   7.759 -0.0196  0.2063  0.3380
 1043loPI    C115665   1.595  16.139   5.144 -0.2060  0.2003 -0.2091
 1043loPI    C215666   1.323  16.012   4.880 -0.1747  0.1360 -0.2105
 1043loPI    C315667   1.673  16.159   4.752  0.1079 -0.4922 -0.1958
 1043loPI   PO415668   1.674  15.957   5.278  0.0479  0.1445  0.0895
 1043loPI   GL115669   1.407  15.860   5.614  0.0457 -0.1266  0.2157
 1043loPI   GL215670   1.452  15.524   5.823 -0.1158 -0.1209  0.1980
 1043loPI   C1A15671   1.085  15.938   5.891 -0.2183  0.1601 -0.0732
 1043loPI   C2A15672   1.160  16.033   6.308 -0.0700  0.1700  0.2459
 1043loPI   C3A15673   1.139  16.046   6.684 -0.2622 -0.1418  0.0985
 1043loPI   C4A15674   1.111  15.934   7.112 -0.2057 -0.1790  0.0619
 1043loPI   C5A15675   1.100  15.988   7.604 -0.4188 -0.1632 -0.0452
 1043loPI   C6A15676   1.139  15.867   8.068 -0.0076  0.3011 -0.3876
 1043loPI   C1B15677   1.573  15.778   6.171 -0.0263 -0.4181  0.0739
 1043loPI   C2B15678   1.605  15.764   6.549 -0.0974  0.1923  0.1365
 1043loPI   C3B15679   1.467  15.622   6.917 -0.1518  0.0136 -0.5294
 1043loPI   C4B15680   1.657  15.706   7.274 -0.1377 -0.2007 -0.0062
 1044loPI    C115681   4.838  11.421   5.547  0.0015  0.1272  0.1315
 1044loPI    C215682   4.540  11.520   5.299  0.0687  0.1560  0.0617
 1044loPI    C315683   4.729  11.170   5.254  0.1038  0.1762  0.0509
 1044loPI   PO415684   4.831  11.451   5.812 -0.1769  0.4708  0.0569
 1044loPI   GL115685   4.745  11.259   6.117 -0.1131 -0.2235 -0.2389
 1044loPI   GL215686   5.035  11.253   6.219  0.0071  0.0867  0.0523
 1044loPI   C1A15687   4.513  11.461   6.365 -0.1118 -0.0855  0.3529
 1044loPI   C2A15688   4.395  11.482   6.759 -0.0294 -0.2583 -0.1394
 1044loPI   C3A15689   4.370  11.603   7.215 -0.0013  0.1705 -0.0280
 1044loPI   C4A15690   4.227  11.621   7.636  0.0929 -0.1380 -0.3079
 1044loPI   C5A15691   4.416  11.583   8.063 -0.1472  0.1811  0.0623
 1044loPI   C6A15692   4.464  11.249   8.395  0.0695 -0.0944 -0.0373
 1044loPI   C1B15693   5.232  11.415   6.505  0.1890  0.1475 -0.1811
 1044loPI   C2B15694   5.308  11.441   6.973 -0.1825 -0.3238  0.0497
 1044loPI   C3B15695   5.246  11.539   7.367 -0.2476 -0.0095 -0.1436
 1044loPI   C4B15696   5.316  11.591   7.797  0.2440 -0.0304  0.0781
 1045loPI    C115697  18.033   0.864   4.963  0.0763  0.0394  0.0770
 1045loPI    C215698  17.782   1.175   4.960  0.0184 -0.0071  0.0702
 1045loPI    C315699  17.855   0.974   4.622  0.1543  0.0774  0.0481
 1045loPI   PO415700  17.993   0.707   5.229  0.0412 -0.2234 -0.1738
 1045loPI   GL115701  17.736   0.626   5.590  0.2687 -0.2441 -0.0207
 1045loPI   GL215702  17.693   0.298   5.713  0.1575 -0.2746 -0.1631
 1045loPI   C1A15703  17.757   0.878   5.906 -0.2074 -0.2452  0.0700
 1045loPI   C2A15704  17.644   0.894   6.311 -0.0377 -0.1849 -0.3702
 1045loPI   C3A15705  17.456   0.848   6.810  0.3258 -0.0685 -0.1337
 1045loPI   C4A15706  17.346   0.688   7.184  0.0868  0.0274  0.5408
 1045loPI   C5A15707  17.111   0.490   7.544 -0.1330 -0.1967  0.2504
 1045loPI   C6A15708  16.724   0.419   7.599 -0.1672  0.1266 -0.1215
 1045loPI   C1B15709  17.579   0.438   6.136 -0.0057  0.3363  0.1006
 1045loPI   C2B15710  17.519   0.412   6.523  0.1211  0.0608  0.2841
 1045loPI   C3B15711  17.564   0.333   6.872  0.3070  0.0986 -0.2958
 1045loPI   C4B15712  17.423   0.188   7.243 -0.0279  0.0795  0.3205
 1046loPI    C115713  14.307   8.532   5.787 -0.0644  0.1401  0.0592
 1046loPI    C215714  13.984   8.520   5.552 -0.0363 -0.1800  0.0335
 1046loPI    C315715  14.135   8.872   5.666 -0.3230 -0.0270 -0.0507
 1046loPI   PO415716  14.287   8.319   5.952  0.1261 -0.2514  0.0519
 1046loPI   GL115717  14.160   8.492   6.289  0.3366  0.1143 -0.1843
 1046loPI   GL215718  13.854   8.531   6.265  0.0681  0.1257 -0.0368
 1046loPI   C1A15719  14.308   8.419   6.731 -0.0478  0.0867  0.2573
 1046loPI   C2A15720  14.420   8.479   7.101  0.0264 -0.0196 -0.1736
 1046loPI   C3A15721  14.302   8.623   7.488 -0.0192 -0.0741  0.1869
 1046loPI   C4A15722  14.327   8.829   7.940 -0.2380  0.0868 -0.0637
 1046loPI   C5A15723  14.140   8.946   8.267 -0.0882 -0.3832 -0.0780
 1046loPI   C6A15724  13.994   9.100   8.599 -0.0049 -0.0918  0.1835
 1046loPI   C1B15725  13.790   8.436   6.659 -0.0914 -0.0909 -0.0323
 1046loPI   C2B15726  13.919   8.374   7.047  0.1094 -0.1585  0.1983
 1046loPI   C3B15727  13.957   8.227   7.469  0.2109  0.0051 -0.0679
 1046loPI   C4B15728  13.854   7.846   7.663 -0.1538 -0.0470 -0.1448
 1047loPI    C115729  11.263   2.710   5.494 -0.2351  0.0070 -0.0461
 1047loPI    C215730  10.964   2.901   5.308 -0.0243  0.1453 -0.2478
 1047loPI    C315731  11.249   2.718   5.095  0.0467  0.0305 -0.0572
 1047loPI   PO415732  11.193   2.815   5.757 -0.1125 -0.0973  0.1537
 1047loPI   GL115733  11.422   2.760   6.105  0.1706  0.0067  0.0135
 1047loPI   GL215734  11.716   2.669   6.140 -0.0195  0.0344  0.0772
 1047loPI   C1A15735  11.405   3.066   6.464 -0.0580  0.1795  0.4125
 1047loPI   C2A15736  11.211   3.161   6.743 -0.1989  0.3463  0.1030
 1047loPI   C3A15737  11.118   3.111   7.147 -0.2659 -0.0443  0.1032
 1047loPI   C4A15738  11.169   3.195   7.561  0.0780 -0.0767  0.2668
 1047loPI   C5A15739  11.012   3.155   7.955  0.0679  0.0863 -0.0713
 1047loPI   C6A15740  10.837   3.191   8.458 -0.2872  0.0002  0.1622
 1047loPI   C1B15741  11.632   2.681   6.628  0.0134  0.2608  0.0953
 1047loPI   C2B15742  11.553   2.705   7.064 -0.1576 -0.0023 -0.2103
 1047loPI   C3B15743  11.617   2.589   7.544  0.2000  0.0322  0.3608
 1047loPI   C4B15744  11.384   2.469   7.964 -0.0373  0.2607  0.3448
 1048loPI    C115745   2.064   9.792   5.595 -0.2119 -0.0955 -0.0745
 1048loPI    C215746   1.831   9.561   5.823 -0.1241 -0.0645  0.0478
 1048loPI    C315747   1.714   9.660   5.453 -0.2407 -0.1624  0.0577
 1048loPI   PO415748   2.300   9.699   5.642  0.2015 -0.3160  0.0677
 1048loPI   GL115749   2.433   9.489   6.012 -0.0725 -0.1528 -0.0638
 1048loPI   GL215750   2.276   9.598   6.207 -0.1557 -0.1723 -0.0323
 1048loPI   C1A15751   2.489   9.133   6.302 -0.0645 -0.0134  0.0182
 1048loPI   C2A15752   2.439   9.100   6.722  0.1377 -0.1794 -0.1292
 1048loPI   C3A15753   2.415   9.049   7.123  0.0901 -0.0661 -0.2101
 1048loPI   C4A15754   2.369   8.739   7.449 -0.1968 -0.3656  0.3085
 1048loPI   C5A15755   2.046   8.524   7.633  0.1729 -0.1907  0.1537
 1048loPI   C6A15756   2.004   8.213   8.047  0.0817  0.0700 -0.1739
 1048loPI   C1B15757   2.409   9.603   6.648  0.2979 -0.2179  0.0673
 1048loPI   C2B15758   2.531   9.591   7.120 -0.3505  0.0778 -0.1916
 1048loPI   C3B15759   2.537   9.330   7.544 -0.1688  0.0975 -0.1950
 1048loPI   C4B15760   2.657   9.075   7.806 -0.3472 -0.1834 -0.1408
 1049loPI    C115761  13.166   8.009   5.747 -0.0635  0.1202  0.2651
 1049loPI    C215762  12.876   8.223   5.920 -0.2671  0.1262 -0.0749
 1049loPI    C315763  12.854   8.134   5.531  0.1429  0.0453 -0.0841
 1049loPI   PO415764  13.283   7.896   6.014 -0.0390 -0.0726 -0.2942
 1049loPI   GL115765  13.092   8.084   6.433 -0.1816 -0.1258 -0.1107
 1049loPI   GL215766  12.845   7.975   6.623  0.2381  0.0274 -0.3212
 1049loPI   C1A15767  13.332   8.294   6.666 -0.1952  0.1257  0.0970
 1049loPI   C2A15768  13.472   8.249   7.161 -0.0066  0.4931 -0.0332
 1049loPI   C3A15769  13.492   8.162   7.601  0.2375  0.0243  0.2948
 1049loPI   C4A15770  13.332   8.376   7.929  0.0336  0.0020  0.0125
 1049loPI   C5A15771  13.324   8.744   8.136  0.0971 -0.1684 -0.1102
 1049loPI   C6A15772  13.247   9.066   8.398 -0.0457  0.2034  0.1877
 1049loPI   C1B15773  12.958   7.971   7.009  0.1886 -0.3226 -0.0916
 1049loPI   C2B15774  13.048   8.066   7.363 -0.0405  0.0183 -0.0614
 1049loPI   C3B15775  13.016   8.031   7.680  0.3579  0.1464 -0.3185
 1049loPI   C4B15776  13.033   7.922   8.119  0.2111 -0.2188 -0.0151
 1050loPI    C115777  13.849  17.764   5.417  0.2202 -0.0444  0.2252
 1050loPI    C215778  14.112  17.923   5.161 -0.2237  0.1905 -0.0982
 1050loPI    C315779  13.855  17.642   5.036 -0.1330 -0.0368  0.2137
 1050loPI   PO415780  13.931  17.689   5.618 -0.0223  0.0344 -0.1614
 1050loPI   GL115781  13.994  17.561   6.030  0.0127 -0.1934  0.1259
 1050loPI   GL215782  14.302  17.506   6.105  0.0341  0.2962  0.1338
 1050loPI   C1A15783  13.846  17.657   6.472  0.2091 -0.0642 -0.3644
 1050loPI   C2A15784  13.848  17.731   6.942 -0.4306 -0.1695  0.3173
 1050loPI   C3A15785  13.862  17.843   7.459 -0.0178  0.2626  0.0284
 1050loPI   C4A15786  13.878  17.657   7.853  0.1252  0.2918  0.1673
 1050loPI   C5A15787  13.756  17.343   8.023  0.1033 -0.5432 -0.0198
 1050loPI   C6A15788  13.672  17.128   7.812 -0.0981  0.1933 -0.0652
 1050loPI   C1B15789  14.524  17.515   6.404 -0.1622 -0.0274 -0.1161
 1050loPI   C2B15790  14.688  17.637   6.760  0.0844 -0.0061  0.2995
 1050loPI   C3B15791  14.829  17.478   7.176 -0.1834 -0.1993  0.1235
 1050loPI   C4B15792  14.641  17.314   7.513  0.0153 -0.0747 -0.2201
 1051loPI    C115793  16.355  10.287   5.531  0.0940 -0.0437  0.1789
 1051loPI    C215794  16.576  10.594   5.400 -0.0344  0.0381  0.1520
 1051loPI    C315795  16.464  10.305   5.146  0.1668 -0.0820  0.1975
 1051loPI   PO415796  16.497  10.178   5.765  0.2377  0.1025 -0.2403
 1051loPI   GL115797  16.507  10.093   6.233  0.0198 -0.0364 -0.2301
 1051loPI   GL215798  16.466  10.445   6.235 -0.2316  0.1019 -0.0725
 1051loPI   C1A15799  16.462  10.142   6.666  0.0218  0.3512  0.1378
 1051loPI   C2A15800  16.491  10.091   7.102 -0.0440  0.1179 -0.0521
 1051loPI   C3A15801  16.490  10.120   7.523  0.0948 -0.0538 -0.4660
 1051loPI   C4A15802  16.615  10.062   7.919 -0.1184 -0.0032  0.1219
 1051loPI   C5A15803  16.653   9.765   8.251 -0.2696  0.0198  0.2083
 1051loPI   C6A15804  16.775   9.582   8.594 -0.0784  0.1459 -0.2100
 1051loPI   C1B15805  16.354  10.651   6.651  0.0158 -0.2235 -0.2486
 1051loPI   C2B15806  16.329  10.595   7.134 -0.0820  0.0915  0.3364
 1051loPI   C3B15807  16.269  10.607   7.564  0.2250  0.2007 -0.0960
 1051loPI   C4B15808  16.361  10.494   7.895 -0.1238  0.3664 -0.3677
 1052loPI    C115809  15.985   3.539   5.576  0.0128 -0.0593 -0.0050
 1052loPI    C215810  16.295   3.758   5.450  0.0022 -0.0058  0.0613
 1052loPI    C315811  16.046   3.592   5.185 -0.1314  0.2651  0.0129
 1052loPI   PO415812  16.125   3.324   5.747 -0.1151  0.0328  0.0024
 1052loPI   GL115813  16.342   3.058   6.131  0.1495  0.1577 -0.0744
 1052loPI   GL215814  16.296   2.865   5.901 -0.0960 -0.3958  0.0664
 1052loPI   C1A15815  16.430   3.022   6.546  0.1183 -0.2296 -0.0042
 1052loPI   C2A15816  16.381   2.915   6.990 -0.2768 -0.3817 -0.1185
 1052loPI   C3A15817  16.650   2.810   7.345 -0.1548 -0.0972  0.1258
 1052loPI   C4A15818  16.684   2.834   7.804 -0.1186 -0.2597 -0.1244
 1052loPI   C5A15819  16.348   2.998   8.024  0.3125  0.1577  0.2773
 1052loPI   C6A15820  16.129   2.932   8.361  0.1074  0.1043  0.0152
 1052loPI   C1B15821  16.303   2.594   6.285 -0.1073  0.1488 -0.0314
 1052loPI   C2B15822  16.373   2.440   6.709  0.0745  0.1208  0.0468
 1052loPI   C3B15823  16.483   2.394   7.105  0.0211 -0.1270 -0.1468
 1052loPI   C4B15824  16.395   2.245   7.476  0.1187 -0.0763 -0.3262
 1053loPI    C115825  10.928  14.879   5.264 -0.0195 -0.0571 -0.0888
 1053loPI    C215826  10.969  14.566   5.017 -0.0626  0.0223 -0.1973
 1053loPI    C315827  11.286  14.794   5.107 -0.0187 -0.0875 -0.0707
 1053loPI   PO415828  10.755  14.804   5.452 -0.0791 -0.1724 -0.0852
 1053loPI   GL115829  10.771  14.646   5.784  0.1731  0.1034 -0.1603
 1053loPI   GL215830  10.885  14.874   5.928 -0.0217 -0.2973 -0.3045
 1053loPI   C1A15831  10.739  14.435   6.131  0.0263  0.1396  0.2421
 1053loPI   C2A15832  10.794  14.320   6.508 -0.2159 -0.0236 -0.0554
 1053loPI   C3A15833  10.896  14.466   6.920 -0.0867 -0.0767  0.0882
 1053loPI   C4A15834  10.814  14.616   7.358  0.3499  0.0274  0.3129
 1053loPI   C5A15835  10.867  14.814   7.815 -0.2652  0.2414  0.3694
 1053loPI   C6A15836  11.199  14.944   8.061  0.0758  0.1510 -0.0237
 1053loPI   C1B15837  10.792  14.896   6.435  0.2261 -0.2245  0.0071
 1053loPI   C2B15838  11.006  14.962   6.829  0.1268  0.0275 -0.1059
 1053loPI   C3B15839  11.145  14.943   7.234  0.1112 -0.1719 -0.1073
 1053loPI   C4B15840  11.357  14.991   7.612 -0.1642 -0.0769  0.0566
 1054loPI    C115841  16.252  13.085   5.592 -0.1305 -0.0588 -0.0953
 1054loPI    C215842  16.607  13.021   5.766 -0.1997 -0.2046 -0.0053
 1054loPI    C315843  16.551  12.922   5.382 -0.1586 -0.2295 -0.0049
 1054loPI   PO415844  16.088  13.103   5.735  0.2387  0.1336  0.3708
 1054loPI   GL115845  15.935  13.356   5.845 -0.3072 -0.3159  0.0419
 1054loPI   GL215846  15.902  13.717   5.664 -0.2372 -0.2581  0.1654
 1054loPI   C1A15847  15.861  13.297   6.253 -0.1600  0.2151  0.0915
 1054loPI   C2A15848  15.764  13.240   6.639 -0.0771 -0.0738  0.1498
 1054loPI   C3A15849  15.819  13.190   7.059  0.0714 -0.1952 -0.1106
 1054loPI   C4A15850  15.945  13.275   7.544  0.1213  0.2161 -0.2532
 1054loPI   C5A15851  15.961  13.205   7.931  0.0455 -0.0415  0.3869
 1054loPI   C6A15852  16.026  13.070   8.332 -0.2369 -0.0239 -0.1124
 1054loPI   C1B15853  16.182  13.777   6.138  0.1932  0.2695 -0.1747
 1054loPI   C2B15854  16.177  13.686   6.576  0.0040  0.2402  0.1479
 1054loPI   C3B15855  16.191  13.474   6.855 -0.1169  0.4146 -0.0582
 1054loPI   C4B15856  16.270  13.432   7.253 -0.2986  0.1262 -0.1250
 1055loPI    C115857   3.720  11.027   5.612 -0.0768  0.0629  0.1407
 1055loPI    C215858   3.757  10.998   5.214  0.2013 -0.0792  0.1740
 1055loPI    C315859   3.444  11.190   5.373 -0.0529 -0.2515 -0.1082
 1055loPI   PO415860   3.864  11.115   5.805  0.1371  0.0881 -0.2501
 1055loPI   GL115861   3.854  10.994   6.137  0.1944  0.2370  0.0383
 1055loPI   GL215862   4.229  11.123   6.165  0.2223  0.0993  0.6170
 1055loPI   C1A15863   3.819  10.856   6.551 -0.2436 -0.1438  0.2861
 1055loPI   C2A15864   3.767  10.848   6.978 -0.1615 -0.1652  0.0236
 1055loPI   C3A15865   3.776  10.964   7.312 -0.1371 -0.0707 -0.0913
 1055loPI   C4A15866   3.867  10.822   7.744  0.3220 -0.0015 -0.0027
 1055loPI   C5A15867   3.958  10.415   7.999 -0.0821  0.2520 -0.1646
 1055loPI   C6A15868   4.016  10.025   8.235 -0.1246 -0.2017 -0.0429
 1055loPI   C1B15869   4.285  11.008   6.629  0.0252  0.0487 -0.3415
 1055loPI   C2B15870   4.428  11.049   7.014 -0.0816  0.1768  0.2786
 1055loPI   C3B15871   4.280  11.077   7.342  0.1242 -0.0846  0.1062
 1055loPI   C4B15872   4.185  11.160   7.821 -0.1466  0.0154  0.0781
 1056loPI    C115873  13.246   1.566   5.429  0.2416  0.3332 -0.1181
 1056loPI    C215874  13.419   1.839   5.193  0.3100  0.0847 -0.3613
 1056loPI    C315875  13.190   1.552   5.033  0.2125  0.0172 -0.1060
 1056loPI   PO415876  13.512   1.444   5.541 -0.2396 -0.0888  0.1644
 1056loPI   GL115877  13.686   1.284   5.963 -0.0519 -0.0020  0.2648
 1056loPI   GL215878  13.931   1.454   6.161  0.1571 -0.1667 -0.1548
 1056loPI   C1A15879  13.522   1.136   6.372 -0.1385 -0.1414 -0.0844
 1056loPI   C2A15880  13.417   1.161   6.705  0.0582  0.3974 -0.0205
 1056loPI   C3A15881  13.328   1.051   7.123  0.1137  0.1012  0.0739
 1056loPI   C4A15882  13.324   1.085   7.562  0.0030 -0.0024 -0.0310
 1056loPI   C5A15883  13.350   1.250   7.866 -0.0842  0.1322  0.1729
 1056loPI   C6A15884  12.964   1.372   8.161 -0.0327  0.1005 -0.1526
 1056loPI   C1B15885  13.987   1.220   6.527  0.1186  0.0972  0.0438
 1056loPI   C2B15886  13.853   1.135   7.000  0.4920  0.1577 -0.1977
 1056loPI   C3B15887  13.807   1.156   7.423 -0.3815  0.4282  0.0479
 1056loPI   C4B15888  13.873   1.236   7.839 -0.0146 -0.3294 -0.1171
 1057loPI    C115889  10.570   3.678   5.450 -0.0220  0.1901  0.0856
 1057loPI    C215890  10.342   3.683   5.121 -0.0070  0.1469  0.0744
 1057loPI    C315891  10.737   3.742   5.092 -0.0066  0.1487  0.0853
 1057loPI   PO415892  10.445   3.478   5.629  0.2232  0.1215 -0.2035
 1057loPI   GL115893  10.221   3.143   5.981 -0.4416  0.0881 -0.3064
 1057loPI   GL215894   9.965   3.354   5.899  0.0306 -0.0324  0.0583
 1057loPI   C1A15895  10.188   3.079   6.480  0.0847 -0.2142  0.2504
 1057loPI   C2A15896  10.261   2.950   6.844  0.1793 -0.0813 -0.0566
 1057loPI   C3A15897  10.091   2.853   7.259  0.2839  0.1566  0.1305
 1057loPI   C4A15898  10.047   2.862   7.625 -0.1114 -0.0748 -0.0686
 1057loPI   C5A15899  10.156   2.610   8.003  0.1157 -0.0445 -0.1273
 1057loPI   C6A15900  10.007   2.274   8.208  0.1380  0.2665  0.0857
 1057loPI   C1B15901   9.725   3.602   6.348 -0.3043 -0.0910  0.3239
 1057loPI   C2B15902   9.634   3.624   6.766  0.1623  0.0119 -0.0605
 1057loPI   C3B15903   9.427   3.674   7.181  0.1073 -0.0476  0.1356
 1057loPI   C4B15904   9.087   3.943   7.500  0.0336  0.3050 -0.0748
 1058loPI    C115905  13.038   1.179   5.327  0.2037  0.1862  0.0336
 1058loPI    C215906  13.278   1.011   5.055  0.1912  0.2025  0.0124
 1058loPI    C315907  12.884   1.032   4.989  0.1815  0.1587  0.0556
 1058loPI   PO415908  13.090   1.130   5.555 -0.2148 -0.0393 -0.0012
 1058loPI   GL115909  13.257   1.079   5.943  0.3042 -0.3468 -0.0355
 1058loPI   GL215910  13.214   1.385   6.006 -0.0916 -0.3381  0.1868
 1058loPI   C1A15911  13.046   1.037   6.300  0.2115  0.0758 -0.1506
 1058loPI   C2A15912  12.930   1.010   6.777  0.2496  0.0661 -0.2178
 1058loPI   C3A15913  12.882   0.892   7.034 -0.1066  0.0075 -0.0061
 1058loPI   C4A15914  12.819   0.951   7.437  0.2698  0.1893 -0.0733
 1058loPI   C5A15915  12.839   0.943   7.829  0.0858 -0.0855  0.1500
 1058loPI   C6A15916  12.855   0.754   8.172 -0.0289  0.1187 -0.1702
 1058loPI   C1B15917  12.841   1.455   6.268  0.0682 -0.2286 -0.0489
 1058loPI   C2B15918  12.588   1.392   6.624 -0.1621 -0.0837 -0.0030
 1058loPI   C3B15919  12.557   1.247   7.125 -0.2860  0.2865 -0.1207
 1058loPI   C4B15920  12.612   1.364   7.602  0.4707 -0.3219 -0.2521
 1059loPI    C115921  15.610   6.732   6.084  0.0110  0.0998  0.0809
 1059loPI    C215922  15.297   6.647   5.849  0.2113  0.0260 -0.1636
 1059loPI    C315923  15.238   6.755   6.230 -0.0939 -0.3343 -0.1034
 1059loPI   PO415924  15.749   6.513   6.150  0.0269  0.2820 -0.3895
 1059loPI   GL115925  15.734   6.335   6.481 -0.1667 -0.0030  0.0512
 1059loPI   GL215926  15.438   6.273   6.581 -0.0701  0.1389  0.1877
 1059loPI   C1A15927  15.823   6.239   6.905 -0.1183 -0.0578  0.2896
 1059loPI   C2A15928  15.924   6.324   7.366 -0.0189 -0.3907 -0.0908
 1059loPI   C3A15929  15.749   6.567   7.691 -0.0703 -0.1022  0.0332
 1059loPI   C4A15930  15.531   6.394   8.081 -0.1360 -0.3395  0.2272
 1059loPI   C5A15931  15.118   6.647   8.231  0.0986 -0.2776 -0.1692
 1059loPI   C6A15932  14.705   6.673   8.087 -0.4048 -0.1791  0.0926
 1059loPI   C1B15933  15.143   6.040   6.868 -0.2346  0.1005 -0.1414
 1059loPI   C2B15934  15.059   5.906   7.289  0.3023 -0.1912 -0.1595
 1059loPI   C3B15935  15.005   5.919   7.746  0.1629  0.1450 -0.1657
 1059loPI   C4B15936  15.005   5.676   8.103 -0.0535  0.1424  0.1208
 1060loPI    C115937  11.071   9.297   5.624  0.0562 -0.0054  0.0318
 1060loPI    C215938  10.861   9.082   5.360  0.1705 -0.0838  0.0041
 1060loPI    C315939  10.941   9.467   5.286 -0.0920 -0.0115  0.0848
 1060loPI   PO415940  11.040   9.156   5.855 -0.2330 -0.1294 -0.1361
 1060loPI   GL115941  11.001   8.663   5.953 -0.3828  0.0054  0.0941
 1060loPI   GL215942  10.793   8.686   6.210  0.2248  0.1203 -0.2255
 1060loPI   C1A15943  11.185   8.802   6.421 -0.1498  0.2382 -0.0032
 1060loPI   C2A15944  11.174   8.793   6.796  0.0202 -0.0661  0.0098
 1060loPI   C3A15945  11.181   8.772   7.227  0.2163  0.1013 -0.1857
 1060loPI   C4A15946  11.214   8.908   7.624  0.0907 -0.0186 -0.0166
 1060loPI   C5A15947  11.202   9.120   8.061  0.0622  0.0599  0.1289
 1060loPI   C6A15948  10.906   9.281   8.264 -0.2137  0.2390 -0.1071
 1060loPI   C1B15949  10.705   8.594   6.623 -0.0493 -0.0849  0.0988
 1060loPI   C2B15950  10.713   8.636   7.096 -0.2669  0.4477  0.0450
 1060loPI   C3B15951  10.789   8.751   7.567  0.2745  0.3221  0.0015
 1060loPI   C4B15952  10.725   8.876   7.955  0.0970 -0.0548  0.0901
 1061loPI    C115953   4.877   5.574   5.381 -0.0734  0.1774  0.0630
 1061loPI    C215954   4.698   5.490   5.033  0.1236  0.2136 -0.0483
 1061loPI    C315955   5.085   5.591   5.040  0.1642  0.0504  0.1993
 1061loPI   PO415956   4.689   5.482   5.565 -0.0825  0.1606 -0.1184
 1061loPI   GL115957   4.546   5.403   5.986  0.1885 -0.0644 -0.2130
 1061loPI   GL215958   4.796   5.457   6.228 -0.2426  0.0616  0.3174
 1061loPI   C1A15959   4.378   5.129   6.182  0.2947  0.1607 -0.2571
 1061loPI   C2A15960   4.358   4.872   6.600  0.0423  0.4512  0.0150
 1061loPI   C3A15961   4.477   4.923   7.020  0.1380 -0.3257 -0.0680
 1061loPI   C4A15962   4.543   4.930   7.472 -0.1047 -0.2006  0.3337
 1061loPI   C5A15963   4.860   4.549   7.648 -0.3366  0.0251 -0.2233
 1061loPI   C6A15964   4.980   4.410   7.955 -0.3560  0.0491  0.0744
 1061loPI   C1B15965   4.649   5.296   6.595  0.1326  0.0083  0.2440
 1061loPI   C2B15966   4.691   5.370   7.069  0.0686 -0.0135 -0.3532
 1061loPI   C3B15967   4.826   5.336   7.521  0.0285 -0.2228 -0.1209
 1061loPI   C4B15968   4.976   5.417   7.863  0.0161  0.0648  0.1435
 1062loPI    C115969  14.888   0.026   5.016  0.0082  0.0589 -0.1150
 1062loPI    C215970  14.659  -0.285   5.123 -0.0381  0.1703  0.1151
 1062loPI    C315971  14.525  -0.022   4.854  0.0488 -0.0712 -0.1694
 1062loPI   PO415972  14.983   0.128   5.348  0.0779 -0.2586  0.0492
 1062loPI   GL115973  14.915  -0.013   5.737  0.1187  0.0519 -0.0893
 1062loPI   GL215974  14.884   0.411   5.761  0.3142  0.0181  0.1590
 1062loPI   C1A15975  15.061   0.059   6.110 -0.0115 -0.1493 -0.1528
 1062loPI   C2A15976  15.143   0.202   6.506 -0.2241  0.1765  0.2002
 1062loPI   C3A15977  15.131   0.004   6.864 -0.2621 -0.0976 -0.2606
 1062loPI   C4A15978  15.072  -0.158   7.277  0.0108 -0.0595 -0.4329
 1062loPI   C5A15979  15.189  -0.155   7.743  0.0749  0.2870  0.3772
 1062loPI   C6A15980  15.235  -0.300   8.147 -0.2363 -0.0928 -0.2357
 1062loPI   C1B15981  14.693   0.381   6.138  0.1318  0.1847  0.1006
 1062loPI   C2B15982  14.691   0.559   6.561  0.0645  0.0710  0.3622
 1062loPI   C3B15983  14.715   0.834   6.951  0.0547 -0.1504 -0.0316
 1062loPI   C4B15984  14.784   0.813   7.380  0.1028  0.1664  0.0262
 1063loPI    C115985   3.275  11.607   5.189  0.1087  0.0286 -0.0592
 1063loPI    C215986   2.893  11.686   5.102  0.0698 -0.0294  0.0552
 1063loPI    C315987   3.074  11.369   4.939  0.1119  0.0768 -0.1079
 1063loPI   PO415988   3.266  11.683   5.458  0.0839 -0.2252  0.1347
 1063loPI   GL115989   3.366  11.604   5.849 -0.0180  0.2226 -0.0233
 1063loPI   GL215990   3.381  11.298   5.954 -0.0932  0.0804 -0.0082
 1063loPI   C1A15991   3.503  11.700   6.289  0.0639 -0.2364 -0.1169
 1063loPI   C2A15992   3.558  11.684   6.702  0.0143 -0.3893 -0.0771
 1063loPI   C3A15993   3.479  11.770   7.148 -0.1927  0.0412 -0.0915
 1063loPI   C4A15994   3.452  11.759   7.593  0.0838 -0.1423  0.0146
 1063loPI   C5A15995   3.447  11.877   8.011  0.1171 -0.0054 -0.3526
 1063loPI   C6A15996   3.732  12.291   7.996  0.1394 -0.0935 -0.1409
 1063loPI   C1B15997   3.371  11.197   6.335 -0.0982  0.1598  0.0973
 1063loPI   C2B15998   3.480  11.186   6.720  0.1872 -0.1137 -0.1483
 1063loPI   C3B15999   3.355  11.128   7.142  0.0909  0.0251  0.0864
 1063loPI   C4B16000   3.373  11.026   7.572  0.1499  0.2773 -0.3086
 1064loPI    C116001   2.974   2.150   5.363 -0.1247 -0.0520  0.0195
 1064loPI    C216002   3.318   1.969   5.456 -0.1521 -0.0513  0.1229
 1064loPI    C316003   3.207   2.001   5.073  0.0490  0.1057  0.0756
 1064loPI   PO416004   3.047   2.422   5.479  0.3034 -0.4001  0.1949
 1064loPI   GL116005   3.325   2.433   5.851 -0.0858  0.2173  0.1490
 1064loPI   GL216006   3.389   2.119   6.026 -0.0693  0.0513  0.1977
 1064loPI   C1A16007   3.125   2.492   6.179 -0.1697 -0.0741 -0.1885
 1064loPI   C2A16008   3.029   2.621   6.589  0.4853 -0.0124 -0.0863
 1064loPI   C3A16009   3.065   2.492   7.020  0.0050 -0.1962 -0.2389
 1064loPI   C4A16010   3.106   2.603   7.473  0.2275  0.2578 -0.0926
 1064loPI   C5A16011   3.429   2.518   7.784 -0.0660 -0.2557  0.1938
 1064loPI   C6A16012   3.494   2.426   8.143 -0.2504 -0.0582 -0.1275
 1064loPI   C1B16013   3.282   1.932   6.478 -0.1635 -0.2212  0.2121
 1064loPI   C2B16014   3.124   1.961   6.926  0.1385 -0.2725  0.1375
 1064loPI   C3B16015   2.940   2.069   7.381  0.1889  0.1441 -0.0343
 1064loPI   C4B16016   2.858   2.084   7.813 -0.1058  0.2550  0.0918
 1065loPI    C116017   2.633  18.013   5.394 -0.0780 -0.3690  0.0357
 1065loPI    C216018   2.567  18.066   5.003  0.2083  0.1530  0.0483
 1065loPI    C316019   2.726  17.723   5.134  0.0320 -0.0595 -0.2781
 1065loPI   PO416020   2.396  18.100   5.532  0.0559 -0.1255 -0.2267
 1065loPI   GL116021   2.276  17.982   5.910 -0.3943  0.0136  0.1279
 1065loPI   GL216022   2.020  17.814   5.651 -0.1844 -0.2044 -0.0307
 1065loPI   C1A16023   2.212  17.921   6.328  0.0950 -0.1125 -0.1265
 1065loPI   C2A16024   2.212  17.982   6.722 -0.0051  0.0360  0.0374
 1065loPI   C3A16025   2.328  18.171   7.016 -0.0803 -0.0417  0.3741
 1065loPI   C4A16026   2.396  18.074   7.415 -0.0754 -0.1413  0.0821
 1065loPI   C5A16027   2.488  17.933   7.857 -0.0349  0.1359 -0.1538
 1065loPI   C6A16028   2.618  17.572   8.151  0.3918 -0.1436  0.1348
 1065loPI   C1B16029   1.724  17.750   6.084 -0.1558  0.0531  0.2156
 1065loPI   C2B16030   1.710  17.808   6.530  0.0777  0.0247  0.0583
 1065loPI   C3B16031   1.752  17.802   6.928  0.1085  0.0676 -0.0096
 1065loPI   C4B16032   1.761  17.856   7.292 -0.1840 -0.0080 -0.1434
 1066loPI    C116033   0.513  14.768   5.340 -0.0964  0.0081  0.0277
 1066loPI    C216034   0.780  14.813   5.045 -0.0664  0.0380  0.0591
 1066loPI    C316035   0.388  14.826   4.964 -0.0587  0.2028  0.0438
 1066loPI   PO416036   0.640  14.557   5.495 -0.1432  0.1671 -0.0201
 1066loPI   GL116037   0.681  14.481   5.919 -0.0153  0.1374 -0.1960
 1066loPI   GL216038   0.956  14.536   6.021 -0.0227 -0.0801 -0.2255
 1066loPI   C1A16039   0.586  14.711   6.307  0.0875  0.1926 -0.0165
 1066loPI   C2A16040   0.473  14.745   6.773 -0.0684 -0.0077  0.0076
 1066loPI   C3A16041   0.583  14.770   7.122  0.1705  0.3734 -0.0891
 1066loPI   C4A16042   0.601  14.762   7.584  0.2147  0.1300 -0.1368
 1066loPI   C5A16043   0.713  14.996   7.865 -0.1953  0.1603 -0.1980
 1066loPI   C6A16044   0.926  15.312   8.264 -0.1346  0.1354 -0.4115
 1066loPI   C1B16045   1.024  14.525   6.466  0.1343 -0.1325 -0.1603
 1066loPI   C2B16046   0.977  14.512   6.890 -0.0659  0.1188  0.1885
 1066loPI   C3B16047   1.033  14.509   7.286 -0.0852  0.0885  0.3620
 1066loPI   C4B16048   0.996  14.528   7.745 -0.1795  0.1720  0.1137
 1067loPI    C116049   2.580   7.279   5.348 -0.2230  0.0628 -0.2709
 1067loPI    C216050   2.795   7.480   5.077  0.0238  0.1731  0.0007
 1067loPI    C316051   2.967   7.191   5.295 -0.1942  0.0273 -0.0177
 1067loPI   PO416052   2.320   7.406   5.427 -0.2292  0.0101 -0.0718
 1067loPI   GL116053   2.205   7.361   5.893 -0.1093 -0.1770 -0.0171
 1067loPI   GL216054   2.514   7.591   5.982  0.5059  0.0601 -0.0525
 1067loPI   C1A16055   2.215   7.330   6.374 -0.1371  0.1328  0.0697
 1067loPI   C2A16056   2.273   7.009   6.698 -0.1603  0.1437 -0.2362
 1067loPI   C3A16057   2.480   6.778   7.051 -0.0258 -0.1053  0.2109
 1067loPI   C4A16058   2.540   6.873   7.483 -0.0403 -0.2404 -0.0955
 1067loPI   C5A16059   2.566   7.020   7.938 -0.0127 -0.2040  0.1115
 1067loPI   C6A16060   2.449   6.997   8.402 -0.2313  0.1121 -0.0421
 1067loPI   C1B16061   2.680   7.282   6.375 -0.0891  0.1618 -0.3356
 1067loPI   C2B16062   2.735   7.260   6.803 -0.0905 -0.4775  0.2225
 1067loPI   C3B16063   2.878   7.227   7.271 -0.3347 -0.0613  0.2612
 1067loPI   C4B16064   2.844   7.324   7.655 -0.1905  0.0414  0.1189
 1068loPI    C116065  10.782  17.673   5.566 -0.2241  0.0120  0.1260
 1068loPI    C216066  10.411  17.789   5.473 -0.1849 -0.0516 -0.1159
 1068loPI    C316067  10.664  17.678   5.184  0.0295  0.0100  0.0460
 1068loPI   PO416068  10.793  17.585   5.776  0.0265 -0.2766  0.0190
 1068loPI   GL116069  10.705  17.727   6.132 -0.1159 -0.3386 -0.1199
 1068loPI   GL216070  10.515  17.837   6.381 -0.0385 -0.1057 -0.2504
 1068loPI   C1A16071  10.971  17.537   6.497 -0.1334 -0.0795 -0.0165
 1068loPI   C2A16072  10.939  17.613   7.002 -0.0109  0.3482  0.1051
 1068loPI   C3A16073  10.843  17.611   7.480  0.2422 -0.3838 -0.0610
 1068loPI   C4A16074  10.640  17.650   7.952 -0.0112 -0.2230  0.1909
 1068loPI   C5A16075  10.320  17.891   8.279 -0.0957  0.0406 -0.0296
 1068loPI   C6A16076  10.049  18.050   8.668  0.0646 -0.0155  0.2375
 1068loPI   C1B16077  10.677  17.998   6.696  0.0552 -0.0646  0.0191
 1068loPI   C2B16078  10.559  18.050   7.171  0.0731 -0.0480  0.2199
 1068loPI   C3B16079  10.275  18.147   7.505 -0.0896 -0.1574  0.0942
 1068loPI   C4B16080  10.159  17.992   7.811 -0.0069 -0.0539  0.1718
 1069loPI    C116081  11.769  17.383   5.536 -0.0951  0.0965  0.1568
 1069loPI    C216082  11.649  17.521   5.180 -0.0958  0.0704  0.1469
 1069loPI    C316083  12.038  17.521   5.273 -0.0936  0.0568  0.1373
 1069loPI   PO416084  11.640  17.117   5.576  0.2948 -0.0172  0.0809
 1069loPI   GL116085  11.626  16.927   5.858  0.0555 -0.2490  0.0298
 1069loPI   GL216086  11.323  16.981   5.994 -0.1486  0.0066 -0.0169
 1069loPI   C1A16087  11.716  16.619   6.155 -0.1969 -0.2241 -0.4623
 1069loPI   C2A16088  11.851  16.550   6.697  0.2667 -0.1178 -0.3597
 1069loPI   C3A16089  11.852  16.561   7.133  0.0344 -0.2416  0.0931
 1069loPI   C4A16090  11.952  16.434   7.527 -0.2310  0.0521  0.1707
 1069loPI   C5A16091  12.193  16.121   7.787 -0.2465  0.1585  0.1535
 1069loPI   C6A16092  12.677  16.049   7.921  0.0110 -0.0079 -0.0673
 1069loPI   C1B16093  11.464  16.875   6.472 -0.0231  0.0034 -0.0605
 1069loPI   C2B16094  11.486  16.853   6.978  0.1460 -0.2746  0.2439
 1069loPI   C3B16095  11.584  16.986   7.337  0.1949 -0.0446  0.1174
 1069loPI   C4B16096  12.000  17.003   7.682 -0.2612 -0.0717 -0.1475
 1070loPI    C116097   6.342   8.676   5.907  0.2356 -0.4018 -0.0999
 1070loPI    C216098   6.244   8.837   5.554 -0.1421  0.2460  0.2811
 1070loPI    C316099   5.999   8.573   5.728 -0.0197  0.0273  0.1264
 1070loPI   PO416100   6.421   8.957   6.042 -0.0405  0.0208  0.1894
 1070loPI   GL116101   6.416   9.237   6.214 -0.1118 -0.2651  0.1573
 1070loPI   GL216102   6.311   9.563   6.421 -0.3083  0.2643  0.1083
 1070loPI   C1A16103   6.409   9.148   6.650 -0.0476  0.0433 -0.1607
 1070loPI   C2A16104   6.453   9.170   7.091 -0.1201  0.0961  0.1162
 1070loPI   C3A16105   6.555   9.237   7.450 -0.1104 -0.0879 -0.1086
 1070loPI   C4A16106   6.479   9.325   7.864  0.0854 -0.0300 -0.0560
 1070loPI   C5A16107   6.355   9.340   8.304  0.0056 -0.1011 -0.1823
 1070loPI   C6A16108   6.223   9.675   8.604 -0.0201  0.0910 -0.1228
 1070loPI   C1B16109   6.334   9.605   6.844  0.0703  0.0286 -0.1684
 1070loPI   C2B16110   6.287   9.612   7.287  0.0589 -0.0628 -0.4333
 1070loPI   C3B16111   6.088   9.789   7.619  0.0418 -0.2227  0.0770
 1070loPI   C4B16112   5.914   9.504   8.001 -0.0810 -0.0609 -0.0766
 1071loPI    C116113   2.841  16.712   5.055 -0.0742 -0.0708  0.2260
 1071loPI    C216114   2.564  16.423   5.050 -0.0945 -0.0488  0.0318
 1071loPI    C316115   2.886  16.396   4.814 -0.0138  0.0070  0.1351
 1071loPI   PO416116   2.791  16.870   5.288  0.0248 -0.1218 -0.2216
 1071loPI   GL116117   2.769  16.994   5.685  0.1612  0.0072  0.0594
 1071loPI   GL216118   2.439  16.939   5.841 -0.0481  0.1660 -0.0150
 1071loPI   C1A16119   2.933  17.184   6.099 -0.2011 -0.2425 -0.0157
 1071loPI   C2A16120   2.964  17.103   6.490 -0.2804  0.3670  0.0109
 1071loPI   C3A16121   2.989  16.999   7.034  0.1881 -0.1287 -0.0309
 1071loPI   C4A16122   3.002  17.076   7.494 -0.0591 -0.1356 -0.3279
 1071loPI   C5A16123   3.096  17.378   7.830 -0.1507 -0.0788  0.0545
 1071loPI   C6A16124   3.063  17.755   7.920  0.1403 -0.0528  0.0405
 1071loPI   C1B16125   2.459  17.078   6.263  0.5018  0.0148  0.0631
 1071loPI   C2B16126   2.489  17.114   6.723 -0.0185 -0.2597 -0.2199
 1071loPI   C3B16127   2.637  17.297   7.171 -0.1486  0.3104 -0.1112
 1071loPI   C4B16128   2.465  17.272   7.579  0.0928  0.1294  0.0995
 1072loPI    C116129  13.600   3.956   5.457 -0.2342  0.0380  0.1504
 1072loPI    C216130  13.467   3.651   5.235 -0.3369  0.0711  0.1660
 1072loPI    C316131  13.569   3.996   5.060  0.1610 -0.0999  0.1001
 1072loPI   PO416132  13.471   3.891   5.706 -0.0797  0.1625  0.0187
 1072loPI   GL116133  13.616   3.657   6.084  0.0327  0.1353  0.0032
 1072loPI   GL216134  13.356   3.464   6.239 -0.2293  0.0857  0.0375
 1072loPI   C1A16135  13.786   3.667   6.403 -0.3325 -0.3084  0.1251
 1072loPI   C2A16136  13.740   3.426   6.827 -0.0054  0.0641  0.0776
 1072loPI   C3A16137  13.752   3.470   7.281  0.0507  0.0624  0.0206
 1072loPI   C4A16138  13.770   3.339   7.601  0.1875 -0.1165 -0.2121
 1072loPI   C5A16139  13.752   3.349   8.033  0.1191  0.0678 -0.1223
 1072loPI   C6A16140  13.799   2.957   8.330 -0.0171  0.0573 -0.0188
 1072loPI   C1B16141  13.410   3.196   6.531  0.2116 -0.2652  0.0358
 1072loPI   C2B16142  13.285   3.185   6.861  0.0209 -0.1414  0.2558
 1072loPI   C3B16143  13.410   3.037   7.227  0.0915  0.1416 -0.0226
 1072loPI   C4B16144  13.527   2.892   7.619 -0.0408 -0.0754 -0.0587
 1073loPI    C116145   5.162   2.915   5.057 -0.3726 -0.0842  0.0024
 1073loPI    C216146   5.155   2.619   4.789 -0.0942 -0.1088  0.0197
 1073loPI    C316147   5.171   2.999   4.666  0.0896 -0.1220 -0.0009
 1073loPI   PO416148   5.065   2.882   5.224 -0.2257 -0.1380  0.0265
 1073loPI   GL116149   5.081   2.814   5.736 -0.0167  0.0278  0.3758
 1073loPI   GL216150   5.348   3.021   5.783  0.1392 -0.0996 -0.1105
 1073loPI   C1A16151   5.115   2.685   6.224 -0.1547 -0.4633  0.2191
 1073loPI   C2A16152   5.008   2.691   6.623 -0.1108 -0.1457 -0.0699
 1073loPI   C3A16153   4.939   2.657   7.100 -0.2036  0.0603 -0.0193
 1073loPI   C4A16154   4.958   2.704   7.557 -0.0068  0.0189 -0.0793
 1073loPI   C5A16155   5.258   2.726   7.912 -0.0288  0.1658  0.1142
 1073loPI   C6A16156   5.546   2.837   8.172  0.0394 -0.1669  0.1417
 1073loPI   C1B16157   5.391   3.121   6.267  0.0002  0.1282 -0.4324
 1073loPI   C2B16158   5.339   3.027   6.698  0.0108  0.1256  0.1028
 1073loPI   C3B16159   5.220   3.094   7.140 -0.1733  0.1008 -0.1560
 1073loPI   C4B16160   5.294   3.174   7.586  0.0972 -0.1583 -0.2277
 1074loPI    C116161   2.382  13.741   5.335 -0.0639  0.2042  0.1623
 1074loPI    C216162   2.568  13.990   5.083  0.0195  0.1596  0.1796
 1074loPI    C316163   2.511  13.607   4.981  0.0259  0.1490  0.2157
 1074loPI   PO416164   2.496  13.771   5.573 -0.4098  0.4088  0.0405
 1074loPI   GL116165   2.212  13.949   5.837 -0.1870 -0.2865 -0.3324
 1074loPI   GL216166   2.278  14.205   5.873 -0.0589 -0.0684  0.0073
 1074loPI   C1A16167   1.919  13.959   6.136 -0.1745  0.1827  0.2234
 1074loPI   C2A16168   1.893  13.892   6.564 -0.1385  0.1874  0.1587
 1074loPI   C3A16169   1.844  13.939   7.041  0.1725  0.0005  0.0829
 1074loPI   C4A16170   1.732  13.896   7.501 -0.0274  0.0977 -0.1697
 1074loPI   C5A16171   1.716  13.802   7.915  0.0630 -0.0657 -0.3482
 1074loPI   C6A16172   2.140  13.609   8.057 -0.1705  0.0782  0.0380
 1074loPI   C1B16173   2.387  14.066   6.311 -0.1768 -0.0469 -0.1413
 1074loPI   C2B16174   2.437  14.032   6.742 -0.0734 -0.1360 -0.2183
 1074loPI   C3B16175   2.372  14.109   7.097 -0.0580 -0.0739  0.0878
 1074loPI   C4B16176   2.342  14.172   7.475 -0.0164  0.5020 -0.0040
 1075loPI    C116177  16.971   1.875   5.051 -0.3272  0.0415  0.1697
 1075loPI    C216178  16.997   1.526   4.857  0.0783  0.1461  0.0253
 1075loPI    C316179  17.113   1.864   4.677 -0.0433  0.3184  0.2651
 1075loPI   PO416180  17.101   1.900   5.278 -0.0146  0.0948  0.1306
 1075loPI   GL116181  17.119   1.992   5.673  0.1368  0.0608 -0.2014
 1075loPI   GL216182  17.247   1.703   5.718 -0.3858  0.0681 -0.0658
 1075loPI   C1A16183  17.396   2.243   5.935 -0.1632 -0.1390 -0.0012
 1075loPI   C2A16184  17.630   2.172   6.351 -0.0873 -0.2657 -0.1869
 1075loPI   C3A16185  17.757   1.993   6.773  0.0047  0.3144 -0.3126
 1075loPI   C4A16186  17.851   1.859   7.267 -0.1336 -0.1184 -0.0673
 1075loPI   C5A16187  17.676   1.694   7.705  0.2253  0.0684 -0.2654
 1075loPI   C6A16188  17.642   1.329   7.882 -0.1638 -0.4656  0.1494
 1075loPI   C1B16189  17.276   1.851   6.174  0.0627 -0.1256  0.0296
 1075loPI   C2B16190  17.320   1.806   6.637 -0.1758  0.0885 -0.1589
 1075loPI   C3B16191  17.295   1.835   6.929  0.0014 -0.0980 -0.1463
 1075loPI   C4B16192  17.377   1.685   7.263  0.1547 -0.0241 -0.0855
 1076loPI    C116193   9.697   3.019   5.634  0.0283  0.0582 -0.1206
 1076loPI    C216194   9.302   2.970   5.677  0.0788 -0.0208  0.2870
 1076loPI    C316195   9.476   2.889   5.326 -0.2310 -0.2172  0.1744
 1076loPI   PO416196   9.810   2.894   5.787  0.1340 -0.0621 -0.1307
 1076loPI   GL116197   9.762   3.015   6.167 -0.1600  0.0394 -0.0454
 1076loPI   GL216198   9.440   3.177   6.046 -0.1875 -0.1498 -0.0262
 1076loPI   C1A16199   9.721   3.124   6.594 -0.0345  0.2121 -0.1837
 1076loPI   C2A16200   9.811   3.226   7.039  0.1058  0.1484 -0.0091
 1076loPI   C3A16201   9.716   3.203   7.410  0.3976 -0.1642  0.1315
 1076loPI   C4A16202   9.457   3.020   7.734 -0.0063  0.2957  0.1366
 1076loPI   C5A16203   9.179   3.226   7.925 -0.1872  0.1089 -0.1193
 1076loPI   C6A16204   9.110   3.521   8.093 -0.0244 -0.0400 -0.0101
 1076loPI   C1B16205   9.210   3.122   6.357  0.3381 -0.2365  0.0229
 1076loPI   C2B16206   9.213   3.081   6.753 -0.0020  0.1725  0.0480
 1076loPI   C3B16207   9.212   2.994   7.216  0.0678 -0.0590  0.1143
 1076loPI   C4B16208   8.994   2.874   7.582 -0.2400 -0.0643  0.0134
 1077loPI    C116209  17.374   3.030   5.606  0.2043 -0.0208  0.0527
 1077loPI    C216210  17.011   3.186   5.667  0.1639 -0.0633 -0.0745
 1077loPI    C316211  17.199   3.247   5.320  0.2409 -0.1159 -0.0424
 1077loPI   PO416212  17.560   3.063   5.718 -0.2023 -0.0988 -0.0614
 1077loPI   GL116213  17.628   3.303   6.028  0.1439 -0.1064 -0.1352
 1077loPI   GL216214  17.662   3.629   6.030 -0.1421 -0.1320  0.0504
 1077loPI   C1A16215  17.781   3.119   6.415  0.2211 -0.1215  0.1518
 1077loPI   C2A16216  17.871   3.053   6.795 -0.2769 -0.4200 -0.0771
 1077loPI   C3A16217  18.026   2.910   7.257  0.0046  0.2250 -0.1841
 1077loPI   C4A16218  18.217   2.905   7.658  0.0441 -0.0777  0.0103
 1077loPI   C5A16219  18.736   3.033   7.725 -0.1797 -0.1133  0.0215
 1077loPI   C6A16220  19.105   2.968   8.005 -0.0934  0.1760  0.0330
 1077loPI   C1B16221  17.792   3.673   6.495  0.1092  0.2638 -0.2201
 1077loPI   C2B16222  17.832   3.726   6.913 -0.2481 -0.0116 -0.2244
 1077loPI   C3B16223  17.897   3.725   7.291 -0.1280  0.0952 -0.0053
 1077loPI   C4B16224  17.818   3.593   7.697  0.0266  0.1460 -0.0777
 1078loPI    C116225   1.874   3.107   5.003  0.0545  0.2450  0.0764
 1078loPI    C216226   2.166   3.164   4.735  0.1088 -0.1089  0.0557
 1078loPI    C316227   1.794   3.285   4.653  0.1559 -0.0766 -0.1150
 1078loPI   PO416228   2.032   3.086   5.280  0.4042  0.0505 -0.1227
 1078loPI   GL116229   1.932   2.962   5.626 -0.0220 -0.2625  0.0967
 1078loPI   GL216230   1.933   2.633   5.529 -0.0189 -0.2462 -0.0144
 1078loPI   C1A16231   2.133   3.066   6.140  0.1505  0.1758  0.1913
 1078loPI   C2A16232   2.353   3.178   6.595  0.0448  0.0799  0.0089
 1078loPI   C3A16233   2.533   3.391   6.970 -0.0142  0.0139 -0.1019
 1078loPI   C4A16234   2.431   3.607   7.376  0.0497 -0.0847 -0.0207
 1078loPI   C5A16235   2.513   3.879   7.685  0.1163 -0.1707  0.2126
 1078loPI   C6A16236   2.510   4.231   7.921  0.1321  0.1111 -0.1542
 1078loPI   C1B16237   2.001   2.567   5.998 -0.1170  0.2794  0.1196
 1078loPI   C2B16238   1.997   2.705   6.451  0.0720  0.2587 -0.1251
 1078loPI   C3B16239   2.006   2.627   6.889  0.2068  0.0442 -0.1033
 1078loPI   C4B16240   2.184   2.604   7.298 -0.0137  0.1106  0.0154
 1079loPI    C116241  17.045  12.683   5.648  0.0932 -0.1147 -0.0998
 1079loPI    C216242  17.113  13.075   5.692  0.0742 -0.1216 -0.0085
 1079loPI    C316243  17.006  12.930   5.335  0.0433 -0.0379 -0.0333
 1079loPI   PO416244  16.827  12.596   5.749  0.1527  0.0103  0.0773
 1079loPI   GL116245  16.663  12.573   6.061  0.0809  0.2333 -0.0419
 1079loPI   GL216246  16.734  12.182   6.085 -0.2619 -0.1838  0.0180
 1079loPI   C1A16247  16.727  12.607   6.474  0.1241 -0.1237  0.2033
 1079loPI   C2A16248  16.761  12.604   6.910  0.1316 -0.1008  0.2745
 1079loPI   C3A16249  16.890  12.551   7.342 -0.0145  0.1542  0.1298
 1079loPI   C4A16250  17.131  12.222   7.488 -0.0221  0.3148  0.0698
 1079loPI   C5A16251  17.224  12.033   7.905 -0.1932 -0.0165 -0.0769
 1079loPI   C6A16252  17.564  12.169   8.112  0.2545  0.0321 -0.0934
 1079loPI   C1B16253  16.685  12.115   6.435  0.3361 -0.0534  0.2030
 1079loPI   C2B16254  16.691  12.085   6.789 -0.0696 -0.2627 -0.2391
 1079loPI   C3B16255  16.750  11.990   7.194  0.1863  0.0497 -0.1050
 1079loPI   C4B16256  16.867  11.773   7.662  0.2155  0.1294  0.0030
 1080loPI    C116257  15.782   5.046   5.650 -0.0253  0.0952 -0.0375
 1080loPI    C216258  15.695   4.832   5.323  0.1213  0.1200 -0.0936
 1080loPI    C316259  15.554   5.205   5.363 -0.0407  0.0546 -0.0478
 1080loPI   PO416260  15.803   4.870   5.819  0.0758  0.0605  0.0391
 1080loPI   GL116261  15.635   4.977   6.181 -0.3179  0.0093  0.1112
 1080loPI   GL216262  15.957   4.900   6.276  0.0041 -0.1176  0.1190
 1080loPI   C1A16263  15.500   5.205   6.575 -0.0415 -0.5044  0.1891
 1080loPI   C2A16264  15.413   5.046   6.995  0.1372 -0.1398 -0.0603
 1080loPI   C3A16265  15.567   4.847   7.344  0.2938  0.3019 -0.4160
 1080loPI   C4A16266  15.497   5.074   7.759 -0.0436 -0.0335  0.1434
 1080loPI   C5A16267  15.357   5.230   8.286  0.0332  0.0270  0.0471
 1080loPI   C6A16268  15.021   5.252   8.600  0.1142 -0.1564 -0.4659
 1080loPI   C1B16269  15.978   4.844   6.714  0.0874 -0.0112  0.0540
 1080loPI   C2B16270  15.988   4.730   7.176  0.4032 -0.1914  0.0330
 1080loPI   C3B16271  15.997   4.563   7.499  0.0438  0.3263  0.1611
 1080loPI   C4B16272  16.069   4.460   7.942  0.2691  0.3646 -0.0124
 1081loPI    C116273  17.091   1.062   4.757  0.0962 -0.2399 -0.0168
 1081loPI    C216274  17.356   1.303   4.579 -0.1016  0.1567  0.2113
 1081loPI    C316275  16.980   1.285   4.444 -0.1204  0.0703  0.2735
 1081loPI   PO416276  17.103   1.087   5.083 -0.1113 -0.1141  0.2450
 1081loPI   GL116277  17.090   1.183   5.576 -0.1369  0.0870 -0.0575
 1081loPI   GL216278  16.785   1.005   5.540 -0.0307  0.2291 -0.1093
 1081loPI   C1A16279  17.023   1.279   6.025 -0.2253  0.0495 -0.0663
 1081loPI   C2A16280  17.169   1.392   6.354  0.0078  0.3122 -0.0423
 1081loPI   C3A16281  17.258   1.316   6.800 -0.0028  0.1377  0.0728
 1081loPI   C4A16282  17.408   1.153   7.163  0.0682 -0.3298 -0.3184
 1081loPI   C5A16283  17.347   0.950   7.634 -0.0871  0.0916 -0.0589
 1081loPI   C6A16284  17.494   0.817   8.060  0.0573  0.0374  0.0055
 1081loPI   C1B16285  16.788   0.595   5.832  0.0593  0.0191 -0.3263
 1081loPI   C2B16286  16.929   0.514   6.235  0.0403 -0.0590 -0.1106
 1081loPI   C3B16287  17.062   0.443   6.701  0.1787 -0.0327 -0.1535
 1081loPI   C4B16288  16.917   0.270   7.078  0.3724 -0.1218 -0.0389
 1082loPI    C116289  10.460   4.215   5.235 -0.0182  0.0592  0.0305
 1082loPI    C216290  10.619   4.488   4.989 -0.2789  0.0417 -0.1612
 1082loPI    C316291  10.508   4.131   4.847  0.2830 -0.2641  0.1322
 1082loPI   PO416292  10.600   4.203   5.487 -0.2015 -0.0475 -0.1523
 1082loPI   GL116293  10.571   4.049   5.942  0.1718 -0.0882  0.0413
 1082loPI   GL216294  10.359   3.773   5.982 -0.0403 -0.2497 -0.1550
 1082loPI   C1A16295  10.636   3.942   6.437  0.2606 -0.1896  0.1303
 1082loPI   C2A16296  10.520   3.950   6.890 -0.1746 -0.1534  0.0539
 1082loPI   C3A16297  10.423   3.840   7.341 -0.0026 -0.4571 -0.3364
 1082loPI   C4A16298  10.303   3.881   7.772 -0.0561 -0.2117 -0.1713
 1082loPI   C5A16299   9.877   3.904   7.961 -0.1381 -0.0611 -0.1126
 1082loPI   C6A16300   9.373   3.945   8.125 -0.1009  0.1028 -0.2178
 1082loPI   C1B16301  10.269   3.569   6.368 -0.0596 -0.1848  0.1424
 1082loPI   C2B16302  10.160   3.458   6.743  0.1262 -0.0692 -0.2877
 1082loPI   C3B16303  10.350   3.355   7.085 -0.1982  0.1558 -0.2079
 1082loPI   C4B16304  10.213   3.343   7.474  0.1290 -0.0336 -0.1412
 1083loPI    C116305   1.648  10.240   5.491 -0.2239  0.0404  0.0159
 1083loPI    C216306   1.451  10.026   5.216 -0.0251  0.0352 -0.1247
 1083loPI    C316307   1.314  10.385   5.324 -0.0632  0.0706 -0.2874
 1083loPI   PO416308   1.668  10.084   5.711  0.1985 -0.1855 -0.1388
 1083loPI   GL116309   1.569  10.012   6.145 -0.3020  0.1479 -0.0230
 1083loPI   GL216310   1.806   9.821   6.292 -0.0920  0.2118  0.3041
 1083loPI   C1A16311   1.668  10.205   6.656  0.1015  0.2771 -0.1015
 1083loPI   C2A16312   1.609  10.268   7.026 -0.0108  0.0022 -0.0643
 1083loPI   C3A16313   1.690  10.239   7.476 -0.0833  0.1084 -0.1530
 1083loPI   C4A16314   1.531  10.431   7.830 -0.0590  0.0611 -0.0072
 1083loPI   C5A16315   1.092  10.516   7.987 -0.2867 -0.3196 -0.0918
 1083loPI   C6A16316   0.902  10.896   8.144 -0.0428 -0.0478 -0.0078
 1083loPI   C1B16317   2.026   9.911   6.649  0.0051 -0.2490 -0.0549
 1083loPI   C2B16318   2.104   9.855   7.125  0.0782  0.0039  0.2746
 1083loPI   C3B16319   2.207   9.722   7.558  0.1396  0.2975  0.1150
 1083loPI   C4B16320   2.073   9.678   7.988 -0.0533  0.0051  0.2057
 1084loPI    C116321   0.433  15.287   5.090 -0.0187  0.0510 -0.0093
 1084loPI    C216322   0.467  15.657   4.944 -0.0310  0.0017 -0.1382
 1084loPI    C316323   0.324  15.363   4.713 -0.0375 -0.0797 -0.0309
 1084loPI   PO416324   0.668  15.254   5.260  0.1110  0.1557 -0.1606
 1084loPI   GL116325   0.606  15.295   5.708  0.0297  0.2979  0.0208
 1084loPI   GL216326   0.593  14.991   5.797  0.1959 -0.2081 -0.0505
 1084loPI   C1A16327   0.209  15.380   5.845  0.1310 -0.1978  0.1068
 1084loPI   C2A16328   0.164  15.516   6.275 -0.1304 -0.3153  0.0509
 1084loPI   C3A16329   0.177  15.595   6.712  0.1431  0.1302  0.1061
 1084loPI   C4A16330   0.219  15.594   7.116 -0.0301  0.0922  0.1821
 1084loPI   C5A16331   0.100  15.501   7.622  0.0507  0.0669  0.0262
 1084loPI   C6A16332  -0.046  15.419   7.983  0.0312 -0.1700  0.0822
 1084loPI   C1B16333   0.563  15.246   6.209  0.1361  0.2272 -0.2117
 1084loPI   C2B16334   0.571  15.266   6.668  0.0704 -0.2360  0.0770
 1084loPI   C3B16335   0.682  15.260   7.091 -0.0434  0.2798  0.1813
 1084loPI   C4B16336   0.607  15.377   7.590  0.2706  0.0391 -0.0314
 1085loPI    C116337   4.963  14.945   5.232 -0.0277 -0.1574 -0.0744
 1085loPI    C216338   4.831  15.177   4.935  0.1429  0.3117  0.2049
 1085loPI    C316339   5.078  14.873   4.856 -0.0424  0.2510 -0.1620
 1085loPI   PO416340   4.983  15.124   5.418 -0.1492 -0.0119 -0.0526
 1085loPI   GL116341   5.358  15.269   5.647 -0.0282 -0.0394  0.1851
 1085loPI   GL216342   5.626  14.998   5.763  0.1001 -0.2572  0.0001
 1085loPI   C1A16343   5.247  15.109   6.057  0.1709  0.0313  0.2391
 1085loPI   C2A16344   5.318  14.986   6.384 -0.3575  0.0443 -0.2161
 1085loPI   C3A16345   5.316  14.969   6.772 -0.2266 -0.0578  0.3296
 1085loPI   C4A16346   5.191  15.095   7.174  0.2991 -0.1231  0.0915
 1085loPI   C5A16347   5.107  15.168   7.584  0.1094 -0.0730  0.0853
 1085loPI   C6A16348   4.988  15.569   7.768 -0.3764 -0.0426  0.1813
 1085loPI   C1B16349   5.766  14.982   6.213  0.1160 -0.0336 -0.0932
 1085loPI   C2B16350   5.775  14.904   6.582  0.0181  0.2700 -0.1569
 1085loPI   C3B16351   5.736  15.047   7.032 -0.0418 -0.1005 -0.0052
 1085loPI   C4B16352   5.650  15.295   7.271 -0.1998 -0.3757  0.4795
 1086loPI    C116353   1.747  17.807   4.943  0.0055  0.2204  0.0266
 1086loPI    C216354   1.712  18.178   4.799 -0.0123  0.2090  0.0015
 1086loPI    C316355   1.610  17.865   4.572  0.1326  0.1813 -0.0270
 1086loPI   PO416356   1.636  17.846   5.237 -0.1817  0.1242  0.2562
 1086loPI   GL116357   1.476  17.752   5.661  0.2376  0.0578 -0.0578
 1086loPI   GL216358   1.407  18.021   5.821 -0.0123 -0.2884  0.0026
 1086loPI   C1A16359   1.251  17.579   6.065 -0.0617 -0.2601 -0.1929
 1086loPI   C2A16360   1.241  17.580   6.442 -0.5501  0.1466  0.0315
 1086loPI   C3A16361   1.207  17.477   6.900 -0.0504  0.0416  0.1656
 1086loPI   C4A16362   1.157  17.618   7.308 -0.1091 -0.2127  0.0863
 1086loPI   C5A16363   1.287  17.730   7.697  0.0025  0.2094 -0.1818
 1086loPI   C6A16364   1.176  17.994   8.089 -0.0522 -0.0779  0.0861
 1086loPI   C1B16365   1.330  18.044   6.251  0.1339 -0.2381 -0.0354
 1086loPI   C2B16366   1.337  18.047   6.667  0.0194  0.0252 -0.0313
 1086loPI   C3B16367   1.236  18.025   7.071  0.0279 -0.1502 -0.1281
 1086loPI   C4B16368   1.140  18.129   7.447 -0.0490 -0.1421 -0.1264
 1087loPI    C116369  12.659   9.654   5.136  0.2200  0.1285 -0.1314
 1087loPI    C216370  12.362   9.660   4.868 -0.1891  0.0178  0.3063
 1087loPI    C316371  12.557   9.319   4.943 -0.0419  0.0595  0.1188
 1087loPI   PO416372  12.566   9.724   5.390  0.2175 -0.0340 -0.5248
 1087loPI   GL116373  12.675   9.658   5.845  0.1354  0.2559 -0.0274
 1087loPI   GL216374  12.452   9.487   6.033  0.3811 -0.0046  0.0801
 1087loPI   C1A16375  12.748   9.856   6.256  0.0547 -0.3759  0.0706
 1087loPI   C2A16376  12.677   9.829   6.694  0.3063 -0.0046  0.1053
 1087loPI   C3A16377  12.705   9.743   7.155  0.3394 -0.0062 -0.0613
 1087loPI   C4A16378  12.827   9.768   7.598 -0.0808  0.2874 -0.0152
 1087loPI   C5A16379  12.779   9.657   8.048 -0.0735  0.0931  0.2449
 1087loPI   C6A16380  12.984   9.576   8.494  0.2896  0.0057 -0.2892
 1087loPI   C1B16381  12.550   9.327   6.449 -0.0666  0.1976 -0.0553
 1087loPI   C2B16382  12.547   9.331   6.918  0.0370 -0.2320 -0.1318
 1087loPI   C3B16383  12.670   9.306   7.392 -0.1898 -0.1920  0.0296
 1087loPI   C4B16384  12.502   9.236   7.820 -0.2436 -0.1346 -0.0808
 1088loPI    C116385   2.467  10.334   5.702  0.0274 -0.0102 -0.1012
 1088loPI    C216386   2.094  10.304   5.559 -0.0204 -0.1335  0.0458
 1088loPI    C316387   2.395  10.115   5.376 -0.0034  0.0894 -0.1618
 1088loPI   PO416388   2.394  10.541   5.910 -0.0920  0.1194  0.0954
 1088loPI   GL116389   2.494  10.794   6.135 -0.0563 -0.0106  0.0251
 1088loPI   GL216390   2.507  11.082   6.084 -0.1951  0.1567 -0.1960
 1088loPI   C1A16391   2.534  10.755   6.600 -0.1522  0.3555 -0.1077
 1088loPI   C2A16392   2.458  10.788   6.968 -0.0059 -0.0824 -0.1648
 1088loPI   C3A16393   2.519  10.747   7.487  0.0022 -0.2844  0.0361
 1088loPI   C4A16394   2.433  10.585   7.733 -0.0785  0.2216  0.0240
 1088loPI   C5A16395   2.275  10.497   8.104 -0.0003 -0.2048 -0.1638
 1088loPI   C6A16396   1.930  10.352   8.200 -0.3311  0.0656 -0.1154
 1088loPI   C1B16397   2.561  11.284   6.395  0.2334  0.1294  0.1698
 1088loPI   C2B16398   2.539  11.223   6.762  0.1076  0.2792 -0.2354
 1088loPI   C3B16399   2.559  11.265   7.152 -0.0971 -0.3065  0.0629
 1088loPI   C4B16400   2.628  11.325   7.552 -0.0799  0.0042 -0.1852
 1089loPI    C116401   2.891   6.662   5.612 -0.2635 -0.0486 -0.0582
 1089loPI    C216402   3.203   6.664   5.361 -0.1994  0.1153  0.0213
 1089loPI    C316403   2.987   6.331   5.409  0.0844 -0.0588  0.1153
 1089loPI   PO416404   3.025   6.797   5.823  0.0669 -0.0832 -0.0935
 1089loPI   GL116405   2.995   6.974   6.152 -0.0730  0.0650 -0.0101
 1089loPI   GL216406   3.275   7.095   6.124  0.2910 -0.0111 -0.1605
 1089loPI   C1A16407   3.143   7.224   6.585  0.1348  0.1285  0.0771
 1089loPI   C2A16408   3.284   7.528   6.892 -0.0545 -0.0557  0.0945
 1089loPI   C3A16409   3.253   7.576   7.340  0.1570 -0.2126 -0.2917
 1089loPI   C4A16410   3.347   7.619   7.828 -0.1579  0.1525 -0.0475
 1089loPI   C5A16411   3.730   7.697   8.085 -0.1779 -0.1853 -0.3654
 1089loPI   C6A16412   3.707   7.817   8.534  0.0447 -0.2899 -0.1347
 1089loPI   C1B16413   3.412   6.820   6.479  0.0761 -0.2873  0.0743
 1089loPI   C2B16414   3.425   6.652   6.911 -0.1977 -0.0713  0.0447
 1089loPI   C3B16415   3.447   6.609   7.421 -0.0114  0.0415 -0.0233
 1089loPI   C4B16416   3.479   6.701   7.818  0.0168  0.1341  0.2010
 1090loPI    C116417   7.861   0.718   5.472 -0.2059 -0.2381  0.0412
 1090loPI    C216418   7.933   0.636   5.857 -0.0023  0.0699  0.0717
 1090loPI    C316419   8.233   0.744   5.615 -0.1465 -0.0137 -0.1480
 1090loPI   PO416420   7.533   0.717   5.569 -0.0263  0.3269  0.2215
 1090loPI   GL116421   7.421   0.726   5.979  0.1770 -0.2099 -0.2783
 1090loPI   GL216422   7.442   0.402   6.034 -0.1132  0.0512 -0.0424
 1090loPI   C1A16423   7.233   0.981   6.285 -0.1532 -0.2834  0.0515
 1090loPI   C2A16424   7.168   1.051   6.790  0.0591  0.0360  0.3696
 1090loPI   C3A16425   6.956   1.037   7.168 -0.0547  0.0961 -0.2813
 1090loPI   C4A16426   6.993   0.919   7.682  0.0065  0.0447 -0.4663
 1090loPI   C5A16427   6.905   1.092   8.122 -0.0350  0.2730 -0.2851
 1090loPI   C6A16428   6.617   1.234   8.473 -0.0897 -0.2156  0.4894
 1090loPI   C1B16429   7.277   0.374   6.465 -0.4323  0.2265  0.0325
 1090loPI   C2B16430   7.195   0.576   6.851 -0.1972 -0.0769  0.1928
 1090loPI   C3B16431   7.212   0.646   7.348  0.2267  0.1980 -0.1461
 1090loPI   C4B16432   7.267   0.524   7.859 -0.2659  0.0687 -0.3561
 1091loPI    C116433   5.516   8.440   5.765 -0.1207  0.1274  0.1094
 1091loPI    C216434   5.189   8.210   5.751 -0.0079 -0.0263 -0.0345
 1091loPI    C316435   5.437   8.226   5.437  0.2265 -0.0637  0.1452
 1091loPI   PO416436   5.569   8.451   6.055  0.1536  0.1592  0.0490
 1091loPI   GL116437   5.570   8.488   6.473  0.1195  0.0290 -0.2863
 1091loPI   GL216438   5.639   8.759   6.589 -0.1625  0.0655 -0.1197
 1091loPI   C1A16439   5.680   8.383   6.954 -0.2403 -0.1985  0.2416
 1091loPI   C2A16440   5.480   8.493   7.287  0.1375  0.0834  0.1858
 1091loPI   C3A16441   5.555   8.205   7.650 -0.0431  0.1463  0.0136
 1091loPI   C4A16442   5.893   8.138   7.958  0.0755 -0.2295 -0.3362
 1091loPI   C5A16443   6.078   8.495   8.089 -0.2604  0.1041 -0.2413
 1091loPI   C6A16444   6.239   8.877   8.214 -0.0648 -0.4402  0.0213
 1091loPI   C1B16445   5.605   8.875   6.944  0.1286  0.1748 -0.1273
 1091loPI   C2B16446   5.631   8.897   7.424 -0.1416 -0.0670  0.1076
 1091loPI   C3B16447   5.854   8.622   7.665 -0.0663  0.0583 -0.2716
 1091loPI   C4B16448   6.080   8.222   7.546  0.1196 -0.1578  0.1204
 1092loPI    C116449   0.496   9.184   5.688  0.1116  0.3392  0.0856
 1092loPI    C216450   0.363   9.487   5.463  0.1875  0.1400 -0.2346
 1092loPI    C316451   0.750   9.384   5.452  0.1258 -0.0940 -0.2816
 1092loPI   PO416452   0.468   9.207   5.916 -0.0623  0.0099  0.0377
 1092loPI   GL116453   0.604   9.088   6.304 -0.0574 -0.2260 -0.0741
 1092loPI   GL216454   0.819   9.452   6.400  0.0049 -0.1274  0.1306
 1092loPI   C1A16455   0.617   9.066   6.699 -0.0229  0.0813 -0.0736
 1092loPI   C2A16456   0.463   8.936   7.029 -0.0211  0.0685  0.1590
 1092loPI   C3A16457   0.516   8.739   7.410 -0.0059 -0.1635  0.1766
 1092loPI   C4A16458   0.465   8.614   7.835 -0.2642 -0.1209  0.0185
 1092loPI   C5A16459   0.347   8.341   8.136  0.3592  0.1212  0.3148
 1092loPI   C6A16460   0.523   8.006   8.463 -0.3674 -0.4623  0.2577
 1092loPI   C1B16461   1.027   9.496   6.813 -0.0956 -0.1452 -0.1489
 1092loPI   C2B16462   1.120   9.570   7.301 -0.2277  0.2400 -0.0425
 1092loPI   C3B16463   1.156   9.581   7.764 -0.0837 -0.2531  0.2331
 1092loPI   C4B16464   1.243   9.523   8.115 -0.2442  0.1575  0.5055
 1093loPI    C116465  13.169  15.867   5.196  0.0507 -0.1139 -0.1764
 1093loPI    C216466  13.347  16.004   4.865  0.2579 -0.1741 -0.0915
 1093loPI    C316467  13.118  15.676   4.848 -0.1450  0.1098 -0.2723
 1093loPI   PO416468  13.159  16.054   5.313  0.2168  0.1860 -0.1236
 1093loPI   GL116469  13.371  16.020   5.629 -0.0035 -0.0997 -0.1234
 1093loPI   GL216470  13.334  15.742   5.756  0.0267 -0.0419  0.4510
 1093loPI   C1A16471  13.508  16.239   5.997  0.0500 -0.0265  0.0077
 1093loPI   C2A16472  13.532  16.338   6.379  0.0739 -0.0085 -0.2258
 1093loPI   C3A16473  13.596  16.319   6.808 -0.0970  0.1127 -0.0266
 1093loPI   C4A16474  13.687  16.437   7.254  0.5493 -0.1914  0.0916
 1093loPI   C5A16475  13.822  16.907   7.400  0.1577  0.1350 -0.3162
 1093loPI   C6A16476  13.904  17.361   7.401 -0.0316  0.0544 -0.1843
 1093loPI   C1B16477  13.231  15.857   6.214  0.1786  0.2873  0.0905
 1093loPI   C2B16478  13.216  15.961   6.670 -0.2111 -0.5680 -0.1475
 1093loPI   C3B16479  13.363  15.977   7.131 -0.2160 -0.0301 -0.1189
 1093loPI   C4B16480  13.484  15.846   7.601  0.0793  0.0970 -0.0213
 1094loPI    C116481   6.801  16.810   5.495 -0.0370  0.0495 -0.1881
 1094loPI    C216482   6.776  16.934   5.116  0.3121 -0.2168 -0.3038
 1094loPI    C316483   7.058  16.671   5.222  0.1227 -0.2600  0.1119
 1094loPI   PO416484   6.822  17.010   5.612 -0.2213  0.0902 -0.0439
 1094loPI   GL116485   6.940  17.113   6.062 -0.0150 -0.2219  0.1385
 1094loPI   GL216486   6.716  17.329   6.262  0.0946 -0.3570  0.2005
 1094loPI   C1A16487   7.189  17.193   6.399  0.0636 -0.0215  0.0283
 1094loPI   C2A16488   7.322  17.186   6.789  0.0268 -0.0270  0.3004
 1094loPI   C3A16489   7.508  17.083   7.097  0.0188 -0.1321 -0.0947
 1094loPI   C4A16490   7.889  16.886   7.223 -0.0106  0.2349 -0.1826
 1094loPI   C5A16491   8.154  16.838   7.592 -0.0000 -0.0933 -0.1505
 1094loPI   C6A16492   8.311  17.073   8.007  0.1191 -0.3721  0.0669
 1094loPI   C1B16493   6.786  17.329   6.773  0.2228 -0.0415 -0.1616
 1094loPI   C2B16494   6.967  17.384   7.151  0.0278 -0.2971  0.4143
 1094loPI   C3B16495   7.147  17.098   7.411  0.1684 -0.0069 -0.1148
 1094loPI   C4B16496   7.292  17.033   7.812 -0.0917 -0.1873  0.0018
 1095loPI    C116497   2.906   8.668   5.143  0.0596  0.0514 -0.0031
 1095loPI    C216498   2.628   8.388   5.076 -0.0330  0.1480 -0.0255
 1095loPI    C316499   2.918   8.450   4.807 -0.0040  0.0641 -0.0138
 1095loPI   PO416500   2.935   8.728   5.484 -0.0114  0.0436  0.2817
 1095loPI   GL116501   3.012   8.487   5.947  0.1280  0.0966 -0.0195
 1095loPI   GL216502   2.700   8.625   6.203 -0.1861  0.1621  0.2682
 1095loPI   C1A16503   3.186   8.458   6.274 -0.0700  0.0194 -0.1723
 1095loPI   C2A16504   3.306   8.407   6.666  0.0292  0.0103 -0.1497
 1095loPI   C3A16505   3.624   8.381   6.864  0.1265  0.0421 -0.0490
 1095loPI   C4A16506   3.751   8.353   7.381  0.1975  0.1811 -0.2168
 1095loPI   C5A16507   3.756   8.045   7.744  0.0182  0.2523  0.1812
 1095loPI   C6A16508   3.822   8.164   8.178  0.0570  0.2152 -0.0480
 1095loPI   C1B16509   2.666   8.699   6.613  0.1613 -0.3182 -0.0577
 1095loPI   C2B16510   2.691   8.575   7.074 -0.3010 -0.2203 -0.2245
 1095loPI   C3B16511   2.843   8.584   7.542  0.0296 -0.0942  0.1989
 1095loPI   C4B16512   2.908   8.224   7.843  0.1104  0.1141  0.0054
 1096loPI    C116513  18.026  13.120   5.339  0.0059  0.0491  0.0800
 1096loPI    C216514  18.114  13.468   5.163  0.1741 -0.0698 -0.0741
 1096loPI    C316515  17.751  13.305   5.116  0.0598  0.1350  0.0846
 1096loPI   PO416516  18.102  13.116   5.533  0.0816 -0.0098  0.1872
 1096loPI   GL116517  18.239  12.920   5.944  0.0273  0.0482  0.0731
 1096loPI   GL216518  18.469  12.988   6.067  0.1261 -0.1337 -0.1571
 1096loPI   C1A16519  18.023  12.903   6.376  0.4200 -0.2091  0.1990
 1096loPI   C2A16520  18.104  12.993   6.827  0.0491  0.1257 -0.2301
 1096loPI   C3A16521  18.024  12.897   7.278 -0.1674 -0.1858  0.3338
 1096loPI   C4A16522  17.908  12.920   7.752 -0.1109 -0.0940 -0.1025
 1096loPI   C5A16523  18.059  12.916   8.195  0.3306  0.0705  0.1012
 1096loPI   C6A16524  18.088  13.146   8.620  0.0872  0.0092 -0.2478
 1096loPI   C1B16525  18.734  13.161   6.418  0.0636 -0.2862 -0.2240
 1096loPI   C2B16526  18.537  13.255   6.827 -0.1381  0.3156  0.0491
 1096loPI   C3B16527  18.540  13.199   7.284 -0.2100 -0.2350  0.0062
 1096loPI   C4B16528  18.399  13.030   7.757 -0.0720 -0.1285  0.1898
 1097loPI    C116529  13.052   2.637   5.661  0.1230  0.1763  0.2482
 1097loPI    C216530  13.065   2.736   5.274 -0.0193  0.1030  0.2238
 1097loPI    C316531  12.849   2.421   5.393  0.0653  0.0941  0.3570
 1097loPI   PO416532  13.160   2.853   5.771  0.3526 -0.0537  0.3284
 1097loPI   GL116533  13.108   3.060   6.100  0.0312  0.1741  0.0514
 1097loPI   GL216534  12.970   2.815   6.230  0.1794  0.0678  0.0232
 1097loPI   C1A16535  12.854   3.279   6.532 -0.1815  0.4711  0.0675
 1097loPI   C2A16536  12.758   3.197   7.043 -0.1758  0.1005 -0.1767
 1097loPI   C3A16537  12.779   3.124   7.453  0.0060 -0.1952 -0.1137
 1097loPI   C4A16538  13.091   3.143   7.714  0.1636  0.0370 -0.2801
 1097loPI   C5A16539  13.265   3.414   8.045 -0.2272  0.0142  0.1000
 1097loPI   C6A16540  13.160   3.629   8.498 -0.0834 -0.0388 -0.4715
 1097loPI   C1B16541  13.026   2.808   6.606  0.2831 -0.0983  0.1408
 1097loPI   C2B16542  13.033   2.819   6.988 -0.3145  0.0890  0.2301
 1097loPI   C3B16543  13.026   2.719   7.407  0.0387 -0.0466  0.1136
 1097loPI   C4B16544  12.948   2.550   7.846  0.0953 -0.1810  0.2532
 1098loPI    C116545  16.313   7.277   5.979  0.1618 -0.2106 -0.1272
 1098loPI    C216546  16.628   7.369   5.750  0.1083 -0.1853 -0.1909
 1098loPI    C316547  16.425   7.031   5.683  0.2710 -0.3249  0.0075
 1098loPI   PO416548  16.273   7.356   6.233  0.0391 -0.0537 -0.0462
 1098loPI   GL116549  16.089   7.243   6.628  0.3979  0.2256  0.0795
 1098loPI   GL216550  15.992   6.894   6.620 -0.0684 -0.1902 -0.1875
 1098loPI   C1A16551  16.084   7.475   6.997  0.1347 -0.2050 -0.1251
 1098loPI   C2A16552  16.070   7.396   7.462 -0.2525  0.1714  0.0616
 1098loPI   C3A16553  16.142   7.378   7.852  0.0911  0.1023 -0.1566
 1098loPI   C4A16554  15.936   7.419   8.230 -0.0286  0.0738 -0.0981
 1098loPI   C5A16555  15.545   7.330   8.482  0.0063  0.0640 -0.0856
 1098loPI   C6A16556  15.274   7.055   8.592 -0.1040  0.1502  0.0456
 1098loPI   C1B16557  16.159   6.911   7.012 -0.2430  0.1059  0.1318
 1098loPI   C2B16558  16.074   6.806   7.443  0.1975 -0.3803 -0.2515
 1098loPI   C3B16559  16.215   6.822   7.905  0.1760  0.0922  0.0514
 1098loPI   C4B16560  15.877   6.898   8.285  0.1383  0.0929 -0.2404
 1099loPI    C116561  15.836   4.029   5.363 -0.0650  0.1473  0.0375
 1099loPI    C216562  15.682   4.331   5.151 -0.4619 -0.1060 -0.0448
 1099loPI    C316563  15.800   3.996   4.966 -0.3118 -0.1223  0.0789
 1099loPI   PO416564  15.730   3.992   5.544 -0.2761 -0.1925 -0.0419
 1099loPI   GL116565  15.885   3.817   5.990 -0.1707 -0.0909  0.0083
 1099loPI   GL216566  15.862   3.947   6.208  0.1838  0.0450 -0.0795
 1099loPI   C1A16567  15.859   3.447   6.351 -0.2483  0.3071  0.2058
 1099loPI   C2A16568  15.934   3.258   6.745  0.1995  0.1183 -0.0814
 1099loPI   C3A16569  15.875   2.935   7.084  0.0512 -0.1415  0.1255
 1099loPI   C4A16570  15.710   2.628   7.372  0.1356 -0.0730  0.3237
 1099loPI   C5A16571  15.814   2.369   7.687 -0.0921  0.1037  0.0469
 1099loPI   C6A16572  16.029   2.016   7.794  0.0253  0.1364  0.3315
 1099loPI   C1B16573  16.072   3.836   6.700  0.0645  0.0181 -0.1997
 1099loPI   C2B16574  16.109   3.656   7.041 -0.1979 -0.0314 -0.0523
 1099loPI   C3B16575  15.944   3.509   7.429 -0.2224  0.1592 -0.1619
 1099loPI   C4B16576  15.941   3.339   7.878  0.1914  0.0887 -0.3297
 1100loPI    C116577  17.793  15.946   4.921  0.0719  0.1112 -0.1762
 1100loPI    C216578  18.159  16.001   5.072  0.1377 -0.1845 -0.2223
 1100loPI    C316579  18.115  15.885   4.692 -0.0041 -0.1601 -0.2139
 1100loPI   PO416580  17.643  15.853   5.221  0.0123  0.1466 -0.2702
 1100loPI   GL116581  17.693  15.947   5.600  0.0638 -0.1047  0.1810
 1100loPI   GL216582  18.036  15.950   5.569 -0.2210 -0.1012 -0.1038
 1100loPI   C1A16583  17.855  15.779   6.001  0.0809  0.1816  0.0200
 1100loPI   C2A16584  17.835  15.811   6.460 -0.0643  0.1834 -0.3425
 1100loPI   C3A16585  17.821  15.894   6.872 -0.2639  0.1602 -0.2865
 1100loPI   C4A16586  17.862  15.804   7.328 -0.4496  0.2731 -0.1816
 1100loPI   C5A16587  17.908  16.040   7.703 -0.0246  0.0074 -0.4006
 1100loPI   C6A16588  18.287  16.300   7.810 -0.1140  0.0575 -0.0433
 1100loPI   C1B16589  18.294  15.952   5.986  0.2593  0.1316 -0.3369
 1100loPI   C2B16590  18.346  16.107   6.378  0.0177  0.1253  0.0283
 1100loPI   C3B16591  18.282  16.118   6.689 -0.1542  0.5721  0.1348
 1100loPI   C4B16592  18.285  16.078   7.110  0.1514  0.0128  0.1749
 1101loPI    C116593   1.148  16.462   5.077 -0.1236 -0.0534 -0.0116
 1101loPI    C216594   1.489  16.585   4.907 -0.1324  0.1826  0.1365
 1101loPI    C316595   1.162  16.533   4.683 -0.0174  0.0177  0.0043
 1101loPI   PO416596   1.104  16.651   5.262 -0.3722  0.1186  0.2405
 1101loPI   GL116597   0.914  16.368   5.567  0.1975 -0.0753  0.0615
 1101loPI   GL216598   0.710  16.574   5.604 -0.2027  0.0442 -0.1970
 1101loPI   C1A16599   1.138  16.503   5.880  0.3208 -0.0910  0.2196
 1101loPI   C2A16600   1.136  16.529   6.352  0.2586 -0.1249 -0.0067
 1101loPI   C3A16601   1.219  16.526   6.756  0.1549  0.0876 -0.2232
 1101loPI   C4A16602   1.115  16.522   7.203  0.1373 -0.2117 -0.0822
 1101loPI   C5A16603   1.272  16.511   7.636 -0.0875 -0.1739 -0.1754
 1101loPI   C6A16604   1.104  16.341   7.943  0.0987  0.2865 -0.0791
 1101loPI   C1B16605   0.748  16.803   5.997  0.1507 -0.1492 -0.0843
 1101loPI   C2B16606   0.725  16.930   6.368 -0.0304 -0.0353  0.0511
 1101loPI   C3B16607   0.816  16.917   6.760  0.0033 -0.0171 -0.0378
 1101loPI   C4B16608   0.738  16.901   7.152 -0.0488 -0.1222 -0.1026
 1102loPI    C116609  14.259   0.806   5.218  0.1395  0.0588 -0.1038
 1102loPI    C216610  14.394   1.133   5.406 -0.3550  0.3342 -0.2085
 1102loPI    C316611  14.539   1.035   5.046 -0.0298  0.2949 -0.0709
 1102loPI   PO416612  14.175   0.649   5.418  0.3205 -0.1964  0.1658
 1102loPI   GL116613  14.390   0.526   5.783  0.0806  0.1262  0.0665
 1102loPI   GL216614  14.527   0.757   5.868 -0.0300  0.1190 -0.3182
 1102loPI   C1A16615  14.188   0.413   6.251  0.2437  0.1615  0.0209
 1102loPI   C2A16616  14.172   0.402   6.764  0.0219  0.0840 -0.1040
 1102loPI   C3A16617  14.027   0.164   7.180  0.2505 -0.0273  0.1700
 1102loPI   C4A16618  14.245   0.043   7.513 -0.2100 -0.0528  0.0104
 1102loPI   C5A16619  14.325  -0.366   7.673  0.2228 -0.1151  0.0815
 1102loPI   C6A16620  14.193  -0.841   7.764 -0.0718  0.0664  0.0476
 1102loPI   C1B16621  14.449   0.972   6.103 -0.1580 -0.1049  0.2167
 1102loPI   C2B16622  14.370   0.902   6.490 -0.2416  0.0037  0.0573
 1102loPI   C3B16623  14.201   0.821   6.996 -0.2234  0.1694 -0.0418
 1102loPI   C4B16624  14.130   0.705   7.442  0.1949  0.2039 -0.0119
 1103loPI    C116625   3.571   7.765   5.493 -0.1925 -0.2711  0.3401
 1103loPI    C216626   3.203   7.667   5.369 -0.2059 -0.1201  0.2572
 1103loPI    C316627   3.439   7.892   5.137 -0.2217  0.1466  0.4948
 1103loPI   PO416628   3.477   7.592   5.826  0.2013 -0.2139 -0.0521
 1103loPI   GL116629   3.482   7.489   6.328 -0.2042 -0.1166 -0.1088
 1103loPI   GL216630   3.167   7.574   6.252  0.1422 -0.0395 -0.1089
 1103loPI   C1A16631   3.747   7.666   6.707  0.1428  0.0975  0.0457
 1103loPI   C2A16632   3.731   7.516   7.123  0.0354 -0.1773  0.1653
 1103loPI   C3A16633   3.737   7.541   7.612 -0.2306 -0.1469  0.3704
 1103loPI   C4A16634   4.094   7.410   7.734  0.0540 -0.1999  0.0235
 1103loPI   C5A16635   4.509   7.392   7.745  0.0357 -0.0833  0.0432
 1103loPI   C6A16636   4.811   7.530   7.872 -0.1385 -0.1163  0.0834
 1103loPI   C1B16637   3.265   7.945   6.590  0.1224 -0.0880  0.0481
 1103loPI   C2B16638   3.385   7.982   7.022 -0.1474 -0.0798 -0.0833
 1103loPI   C3B16639   3.314   8.023   7.524 -0.0303  0.2439  0.1554
 1103loPI   C4B16640   3.334   8.079   8.031 -0.1342 -0.1433  0.0187
 1104loPI    C116641   1.907  13.019   5.410 -0.1429  0.0068  0.0601
 1104loPI    C216642   2.073  12.699   5.236 -0.0723  0.0449  0.0572
 1104loPI    C316643   1.843  12.947   5.022  0.0147  0.0916  0.0176
 1104loPI   PO416644   2.022  12.925   5.672  0.1162 -0.0158  0.0566
 1104loPI   GL116645   2.125  12.785   6.053  0.1230  0.1554  0.2599
 1104loPI   GL216646   2.240  12.477   6.041  0.2682 -0.1112 -0.2547
 1104loPI   C1A16647   1.902  12.767   6.421  0.1147 -0.2958  0.1359
 1104loPI   C2A16648   1.793  12.859   6.932  0.0024  0.0509 -0.1790
 1104loPI   C3A16649   1.749  12.870   7.407  0.0552 -0.0734  0.0944
 1104loPI   C4A16650   1.738  12.932   7.869  0.0682  0.1122  0.3887
 1104loPI   C5A16651   1.833  12.602   8.167 -0.1888  0.0609 -0.1363
 1104loPI   C6A16652   2.002  12.326   8.514 -0.3135 -0.0355  0.1917
 1104loPI   C1B16653   2.328  12.544   6.490 -0.1213  0.1579 -0.0620
 1104loPI   C2B16654   2.222  12.510   6.926  0.4338 -0.1718  0.2014
 1104loPI   C3B16655   2.152  12.579   7.327 -0.0716  0.0203 -0.3877
 1104loPI   C4B16656   2.174  12.687   7.750 -0.0964  0.0027  0.1062
 1105loPI    C116657   0.512   1.722   5.032  0.1507 -0.3372  0.0037
 1105loPI    C216658   0.159   1.780   4.852  0.1360  0.0535  0.1492
 1105loPI    C316659   0.490   1.732   4.632  0.0347 -0.0368  0.0147
 1105loPI   PO416660   0.439   1.551   5.210 -0.1522  0.0736 -0.3227
 1105loPI   GL116661   0.316   1.520   5.624  0.0889 -0.2920 -0.1075
 1105loPI   GL216662   0.643   1.402   5.740 -0.2904 -0.1912  0.0058
 1105loPI   C1A16663   0.128   1.349   5.958  0.1636  0.2894 -0.0525
 1105loPI   C2A16664   0.071   1.208   6.395  0.2361  0.1635  0.2769
 1105loPI   C3A16665  -0.101   1.021   6.748  0.0581 -0.1499  0.0238
 1105loPI   C4A16666  -0.142   0.949   7.037 -0.0909 -0.0923 -0.0252
 1105loPI   C5A16667  -0.273   0.806   7.414 -0.0110  0.2739  0.0503
 1105loPI   C6A16668  -0.449   0.496   7.621 -0.1173 -0.1401  0.1466
 1105loPI   C1B16669   0.630   1.272   6.146  0.1355 -0.1309 -0.0755
 1105loPI   C2B16670   0.601   1.363   6.627 -0.1678  0.0898 -0.0124
 1105loPI   C3B16671   0.789   1.306   7.012 -0.0467 -0.0493 -0.2877
 1105loPI   C4B16672   0.802   1.005   7.273  0.1469  0.3567  0.1263
 1106loPI    C116673   5.901   4.952   5.296 -0.0070  0.0871  0.0362
 1106loPI    C216674   5.818   5.331   5.391 -0.0799  0.0567  0.0944
 1106loPI    C316675   6.144   5.246   5.175 -0.0451  0.1491  0.1101
 1106loPI   PO416676   5.933   4.771   5.518 -0.0755  0.1025  0.0476
 1106loPI   GL116677   5.714   4.709   5.958 -0.0013 -0.1950 -0.3106
 1106loPI   GL216678   5.586   4.484   5.726  0.4879  0.2417  0.1747
 1106loPI   C1A16679   5.900   4.902   6.385 -0.0060  0.1424 -0.2386
 1106loPI   C2A16680   6.004   4.875   6.765  0.1660  0.2565 -0.1570
 1106loPI   C3A16681   6.165   4.737   7.253  0.1235  0.0554  0.3014
 1106loPI   C4A16682   6.400   4.743   7.676 -0.0862  0.0736 -0.0470
 1106loPI   C5A16683   6.834   4.597   7.750 -0.0594  0.1360 -0.2314
 1106loPI   C6A16684   7.262   4.586   7.881  0.2224  0.0347  0.0296
 1106loPI   C1B16685   5.428   4.331   6.123 -0.1249 -0.0784  0.0413
 1106loPI   C2B16686   5.146   4.444   6.501  0.2450 -0.0970 -0.2708
 1106loPI   C3B16687   5.149   4.431   6.957 -0.1644  0.2329 -0.2160
 1106loPI   C4B16688   5.229   4.498   7.301 -0.2877  0.3000  0.3636
 1107loPI    C116689   5.707   2.234   5.238  0.1981  0.1801  0.0980
 1107loPI    C216690   5.817   2.608   5.327 -0.1005  0.3213 -0.1086
 1107loPI    C316691   5.443   2.533   5.207 -0.1100 -0.0810  0.1523
 1107loPI   PO416692   5.850   2.070   5.461  0.1464 -0.0108 -0.2373
 1107loPI   GL116693   6.072   1.788   5.798  0.0235  0.2063 -0.3615
 1107loPI   GL216694   5.967   1.518   5.866 -0.1501 -0.2101  0.1329
 1107loPI   C1A16695   6.286   1.992   6.246  0.3543  0.2342 -0.1436
 1107loPI   C2A16696   6.226   2.075   6.656 -0.2232  0.0229  0.1810
 1107loPI   C3A16697   6.177   2.055   7.114  0.0545  0.1096 -0.3897
 1107loPI   C4A16698   6.125   2.086   7.507  0.1980  0.0903  0.2904
 1107loPI   C5A16699   5.975   2.065   7.945  0.4009  0.1857  0.0860
 1107loPI   C6A16700   6.335   2.276   8.305 -0.0442  0.0145 -0.0406
 1107loPI   C1B16701   5.897   1.651   6.282  0.4358 -0.0422  0.3637
 1107loPI   C2B16702   5.851   1.715   6.710 -0.0915 -0.0465 -0.2066
 1107loPI   C3B16703   5.900   1.631   7.179  0.2058  0.0807  0.1931
 1107loPI   C4B16704   5.801   1.687   7.596 -0.0692  0.1075  0.1034
 1108loPI    C116705   0.586  17.537   5.231 -0.1892  0.0814 -0.1463
 1108loPI    C216706   0.350  17.577   4.911  0.0673  0.0198 -0.3468
 1108loPI    C316707   0.732  17.468   4.865  0.1166  0.0452 -0.0208
 1108loPI   PO416708   0.598  17.756   5.364  0.0564  0.0893  0.1222
 1108loPI   GL116709   0.716  18.244   5.602  0.2095  0.1289  0.1848
 1108loPI   GL216710   0.401  18.113   5.691  0.1664  0.0107  0.0394
 1108loPI   C1A16711   0.584  18.461   5.939 -0.1320 -0.0979  0.0234
 1108loPI   C2A16712   0.562  18.481   6.367  0.1176 -0.0343 -0.0466
 1108loPI   C3A16713   0.628  18.509   6.743  0.0053 -0.0582 -0.0979
 1108loPI   C4A16714   0.807  18.403   7.051  0.2648 -0.0259 -0.0935
 1108loPI   C5A16715   0.709  18.446   7.469 -0.0062  0.0318 -0.1767
 1108loPI   C6A16716   0.611  18.508   7.937  0.0687  0.2491  0.0952
 1108loPI   C1B16717   0.365  17.730   5.958 -0.0267 -0.2308 -0.0357
 1108loPI   C2B16718   0.302  17.637   6.408 -0.2135  0.2323 -0.1624
 1108loPI   C3B16719   0.217  17.647   6.783  0.2094 -0.0232 -0.0660
 1108loPI   C4B16720   0.213  17.613   7.197  0.3256 -0.2718 -0.1830
 1109loPI    C116721   8.421  10.132   5.423  0.1689  0.0022  0.0240
 1109loPI    C216722   8.369  10.235   5.040 -0.1576 -0.1614  0.0204
 1109loPI    C316723   8.736  10.155   5.178 -0.0360 -0.0866 -0.2532
 1109loPI   PO416724   8.268  10.285   5.610  0.1262  0.0547 -0.1873
 1109loPI   GL116725   8.558  10.335   5.927 -0.0008 -0.0522  0.2197
 1109loPI   GL216726   8.778  10.599   6.059  0.2913  0.1178  0.0143
 1109loPI   C1A16727   8.613  10.269   6.366  0.0770  0.0306 -0.0705
 1109loPI   C2A16728   8.575  10.072   6.769 -0.2969  0.1583  0.1257
 1109loPI   C3A16729   8.754  10.241   7.117  0.0631  0.1863 -0.0544
 1109loPI   C4A16730   8.697  10.217   7.554  0.1190  0.0152  0.0393
 1109loPI   C5A16731   8.839  10.029   7.951  0.1047 -0.0172  0.0769
 1109loPI   C6A16732   8.978   9.952   8.364  0.1254 -0.1098 -0.0010
 1109loPI   C1B16733   8.853  10.676   6.488 -0.3142 -0.0651 -0.1350
 1109loPI   C2B16734   8.969  10.896   6.938 -0.0036 -0.0370  0.1565
 1109loPI   C3B16735   9.252  10.898   7.313  0.0511  0.2631  0.1535
 1109loPI   C4B16736   9.440  11.039   7.665  0.1970 -0.2428  0.0812
 1110loPI    C116737  13.559  15.588   5.357  0.1814 -0.0787 -0.0776
 1110loPI    C216738  13.939  15.588   5.233  0.2098  0.1125  0.0049
 1110loPI    C316739  13.723  15.924   5.216  0.1146  0.0613  0.1702
 1110loPI   PO416740  13.482  15.370   5.253 -0.2201 -0.1127  0.1499
 1110loPI   GL116741  13.415  15.097   5.552  0.2566  0.2188  0.1813
 1110loPI   GL216742  13.605  15.284   5.770 -0.1635 -0.1431  0.1239
 1110loPI   C1A16743  13.166  14.947   5.948  0.3096 -0.0754  0.1975
 1110loPI   C2A16744  13.240  14.906   6.440 -0.2765 -0.5292  0.2722
 1110loPI   C3A16745  13.345  14.911   6.867  0.1787 -0.3750 -0.0226
 1110loPI   C4A16746  13.382  14.991   7.304  0.1072 -0.2954 -0.0275
 1110loPI   C5A16747  13.539  15.128   7.751 -0.0764  0.0843 -0.1860
 1110loPI   C6A16748  13.325  15.329   8.009  0.0605  0.0809 -0.0609
 1110loPI   C1B16749  13.405  15.385   6.152 -0.0011 -0.1635 -0.1694
 1110loPI   C2B16750  13.176  15.355   6.658 -0.0712 -0.2761  0.0272
 1110loPI   C3B16751  13.232  15.425   7.083 -0.1921 -0.2274  0.0975
 1110loPI   C4B16752  13.153  15.455   7.462  0.0817  0.2440  0.0532
 1111loPI    C116753  16.347  16.106   5.190  0.0321  0.0247  0.2257
 1111loPI    C216754  15.992  16.149   5.010  0.3016  0.2171 -0.2809
 1111loPI    C316755  16.256  15.883   4.871  0.1870 -0.2724  0.3849
 1111loPI   PO416756  16.304  16.061   5.447  0.3137 -0.2796  0.0393
 1111loPI   GL116757  16.197  16.060   5.807  0.0780 -0.0907  0.0745
 1111loPI   GL216758  16.298  15.778   5.883  0.1838  0.1583 -0.1356
 1111loPI   C1A16759  16.102  16.122   6.248  0.1872 -0.2360 -0.0390
 1111loPI   C2A16760  16.044  16.235   6.634 -0.0020 -0.0121  0.0065
 1111loPI   C3A16761  16.023  16.195   7.084 -0.0632 -0.3956 -0.2257
 1111loPI   C4A16762  15.920  16.318   7.479  0.3279 -0.0896  0.1259
 1111loPI   C5A16763  15.678  16.346   7.860 -0.2219 -0.0348  0.1384
 1111loPI   C6A16764  15.303  16.234   7.973 -0.0018  0.0801 -0.0371
 1111loPI   C1B16765  16.498  15.772   6.284  0.2313  0.0460 -0.0346
 1111loPI   C2B16766  16.422  15.946   6.696 -0.1731 -0.3853 -0.2086
 1111loPI   C3B16767  16.501  16.241   7.010  0.0855 -0.2498 -0.1349
 1111loPI   C4B16768  16.442  16.360   7.487  0.1719  0.0537  0.0071
 1112loPI    C116769   1.660  13.769   5.716 -0.0275 -0.1235 -0.1896
 1112loPI    C216770   1.867  13.832   5.379  0.1266  0.0134 -0.0710
 1112loPI    C316771   1.742  14.143   5.599 -0.2765 -0.0646 -0.1816
 1112loPI   PO416772   1.451  13.707   5.685 -0.2452 -0.2903  0.1751
 1112loPI   GL116773   1.218  13.522   6.002 -0.3241 -0.0861  0.1998
 1112loPI   GL216774   1.474  13.571   6.134  0.0013 -0.1773 -0.1924
 1112loPI   C1A16775   0.966  13.609   6.329  0.4137  0.2237  0.1372
 1112loPI   C2A16776   0.940  13.502   6.736 -0.0139  0.1291  0.0300
 1112loPI   C3A16777   0.917  13.429   7.147  0.3566 -0.1646  0.1306
 1112loPI   C4A16778   0.851  13.294   7.612 -0.2772  0.0236  0.2092
 1112loPI   C5A16779   0.689  13.352   7.970  0.1336  0.2886  0.2083
 1112loPI   C6A16780   0.729  13.639   8.315 -0.0002  0.1358  0.1524
 1112loPI   C1B16781   1.405  13.564   6.535 -0.0959 -0.1648 -0.0101
 1112loPI   C2B16782   1.372  13.649   7.024 -0.3832 -0.1825  0.0173
 1112loPI   C3B16783   1.245  13.535   7.466 -0.0212  0.1254  0.0008
 1112loPI   C4B16784   1.206  13.579   7.925  0.3316  0.2441 -0.0893
 1113loPI    C116785   5.383  10.369   5.777  0.1332 -0.1358  0.1266
 1113loPI    C216786   5.166  10.064   5.918 -0.2720  0.1790  0.2008
 1113loPI    C316787   5.129  10.176   5.536  0.0635 -0.0197  0.1064
 1113loPI   PO416788   5.358  10.606   5.877  0.1215  0.0077 -0.0628
 1113loPI   GL116789   5.298  10.792   6.268  0.2122 -0.0261  0.0002
 1113loPI   GL216790   5.474  10.993   6.272  0.1411 -0.0361 -0.0866
 1113loPI   C1A16791   5.187  10.916   6.752  0.1326  0.2556 -0.1027
 1113loPI   C2A16792   5.203  10.997   7.216  0.2071 -0.0509  0.1926
 1113loPI   C3A16793   5.096  11.096   7.635 -0.0782 -0.0075 -0.0240
 1113loPI   C4A16794   5.206  10.971   8.004  0.1321  0.0984 -0.1751
 1113loPI   C5A16795   5.214  10.637   8.224  0.0255 -0.2506  0.0692
 1113loPI   C6A16796   5.463  10.346   8.461  0.0030  0.0060 -0.1558
 1113loPI   C1B16797   5.646  11.076   6.770 -0.2972 -0.2686 -0.1456
 1113loPI   C2B16798   5.654  11.166   7.207 -0.0275 -0.0591 -0.0366
 1113loPI   C3B16799   5.637  11.156   7.596  0.0148  0.2861 -0.1708
 1113loPI   C4B16800   5.707  10.956   7.914 -0.0692  0.1093  0.0102
 1114loPI    C116801   7.388  11.471   5.851 -0.1029  0.0660 -0.0334
 1114loPI    C216802   7.266  11.359   5.487 -0.1560 -0.2080  0.0661
 1114loPI    C316803   7.403  11.086   5.745 -0.1464 -0.0202  0.2631
 1114loPI   PO416804   7.514  11.750   5.888 -0.0836  0.2208 -0.0284
 1114loPI   GL116805   7.592  11.924   6.211 -0.1625 -0.2019  0.0608
 1114loPI   GL216806   7.770  12.176   6.226 -0.2651 -0.1552 -0.2528
 1114loPI   C1A16807   7.276  12.145   6.410  0.2385 -0.1158  0.1993
 1114loPI   C2A16808   6.938  12.332   6.572 -0.0400  0.0823  0.0785
 1114loPI   C3A16809   6.774  12.551   6.978 -0.0813 -0.1139  0.1113
 1114loPI   C4A16810   6.803  12.656   7.408  0.0272 -0.1138  0.0660
 1114loPI   C5A16811   6.604  12.970   7.764  0.2114  0.2764 -0.1011
 1114loPI   C6A16812   6.523  12.950   8.152  0.3245 -0.1556  0.0166
 1114loPI   C1B16813   7.663  12.449   6.650 -0.3565 -0.2144 -0.0121
 1114loPI   C2B16814   7.804  12.567   6.961 -0.2791  0.0122  0.3289
 1114loPI   C3B16815   7.671  12.491   7.404  0.0838 -0.0472 -0.1754
 1114loPI   C4B16816   7.697  12.510   7.875  0.1472 -0.0992  0.0237
 1115loPI    C116817  17.892  14.574   5.183  0.1794 -0.1087 -0.3331
 1115loPI    C216818  17.918  14.958   5.075  0.0298  0.0056  0.0208
 1115loPI    C316819  17.559  14.790   5.130  0.0998 -0.0785  0.2294
 1115loPI   PO416820  18.140  14.473   5.275  0.1503 -0.2155 -0.1350
 1115loPI   GL116821  18.152  14.371   5.715  0.0255 -0.4563  0.4231
 1115loPI   GL216822  18.247  14.683   5.755  0.0567 -0.3289  0.6079
 1115loPI   C1A16823  18.177  14.345   6.202  0.0396  0.3073 -0.1347
 1115loPI   C2A16824  18.179  14.452   6.516  0.3299  0.2523 -0.0223
 1115loPI   C3A16825  18.110  14.423   6.817 -0.1331 -0.0983  0.1830
 1115loPI   C4A16826  18.212  14.495   7.182 -0.1363 -0.1855 -0.3254
 1115loPI   C5A16827  18.174  14.508   7.632  0.1374 -0.0770 -0.1047
 1115loPI   C6A16828  18.167  14.345   8.084 -0.1601 -0.0516 -0.1528
 1115loPI   C1B16829  18.216  14.966   6.062 -0.1379 -0.0974  0.0545
 1115loPI   C2B16830  18.227  15.022   6.489 -0.0234 -0.0678  0.2215
 1115loPI   C3B16831  18.202  15.101   6.964 -0.0431 -0.2926  0.1353
 1115loPI   C4B16832  18.279  14.998   7.366 -0.2555  0.1744  0.1589
 1116loPI    C116833  10.205   9.143   5.446  0.2123 -0.0335 -0.0238
 1116loPI    C216834  10.097   9.431   5.191 -0.0897 -0.0253  0.1089
 1116loPI    C316835  10.475   9.299   5.195 -0.0206  0.1547 -0.1611
 1116loPI   PO416836  10.119   9.263   5.669 -0.0448  0.2517 -0.2169
 1116loPI   GL116837  10.112   9.139   6.139  0.3158 -0.2432 -0.0766
 1116loPI   GL216838  10.372   8.959   6.216 -0.0214  0.2623  0.2127
 1116loPI   C1A16839   9.951   9.560   6.370 -0.1885 -0.0749 -0.1735
 1116loPI   C2A16840   9.978   9.747   6.785  0.0023 -0.3052  0.1292
 1116loPI   C3A16841   9.929   9.729   7.218 -0.1777  0.1062  0.0113
 1116loPI   C4A16842  10.036   9.934   7.530 -0.0099 -0.2400  0.2318
 1116loPI   C5A16843   9.981  10.017   7.928 -0.1054 -0.1393 -0.0337
 1116loPI   C6A16844   9.736   9.888   8.296  0.1558  0.1232  0.2317
 1116loPI   C1B16845  10.338   8.947   6.626  0.0350  0.3241 -0.0371
 1116loPI   C2B16846  10.382   8.967   7.038  0.0744 -0.1120 -0.3128
 1116loPI   C3B16847  10.360   9.006   7.513  0.2240  0.0884  0.0348
 1116loPI   C4B16848  10.191   8.964   7.846 -0.0223 -0.0624 -0.3677
 1117loPI    C116849  13.966  13.615   5.057  0.1274  0.0551 -0.1484
 1117loPI    C216850  13.901  13.265   5.239  0.1706  0.1510  0.0542
 1117loPI    C316851  14.234  13.320   5.024  0.1021  0.0249 -0.0853
 1117loPI   PO416852  13.952  13.804   5.223 -0.0676 -0.0772 -0.1892
 1117loPI   GL116853  13.965  13.955   5.602  0.1967 -0.2094 -0.0606
 1117loPI   GL216854  13.746  14.133   5.747 -0.0130 -0.1701 -0.0715
 1117loPI   C1A16855  14.202  13.912   5.910  0.0943  0.0365 -0.0483
 1117loPI   C2A16856  14.254  13.927   6.377  0.0927  0.1033 -0.0712
 1117loPI   C3A16857  14.323  13.959   6.848 -0.0639  0.0029  0.0511
 1117loPI   C4A16858  14.096  13.761   7.179 -0.2530  0.0478 -0.2891
 1117loPI   C5A16859  14.032  13.407   7.515 -0.1077  0.0732  0.6969
 1117loPI   C6A16860  13.838  13.241   7.822  0.0849 -0.0891  0.3856
 1117loPI   C1B16861  13.799  13.970   6.132 -0.0242  0.0758 -0.3940
 1117loPI   C2B16862  13.825  13.964   6.617 -0.1561  0.1107 -0.1955
 1117loPI   C3B16863  13.713  14.008   7.027  0.1464 -0.4253  0.1982
 1117loPI   C4B16864  13.749  13.824   7.495 -0.4191 -0.0984 -0.0264
 1118loPI    C116865  15.983  11.577   5.669  0.0378  0.2332  0.1304
 1118loPI    C216866  15.583  11.579   5.676  0.0355  0.1396  0.0389
 1118loPI    C316867  15.778  11.752   5.373  0.0573 -0.1606 -0.1219
 1118loPI   PO416868  16.075  11.672   5.923 -0.1048 -0.1111 -0.2557
 1118loPI   GL116869  15.895  12.075   6.170  0.0185  0.1177 -0.0945
 1118loPI   GL216870  16.149  12.249   6.172 -0.0157  0.0145 -0.0403
 1118loPI   C1A16871  15.774  11.890   6.535 -0.2087 -0.0677 -0.0620
 1118loPI   C2A16872  15.660  11.886   6.998  0.3270  0.1438  0.0233
 1118loPI   C3A16873  15.691  11.857   7.467  0.0961  0.1237  0.2553
 1118loPI   C4A16874  15.868  11.597   7.771  0.2621  0.0462  0.1893
 1118loPI   C5A16875  16.130  11.349   8.096  0.0463  0.0897  0.0825
 1118loPI   C6A16876  16.283  10.939   8.137 -0.1287  0.4372  0.0883
 1118loPI   C1B16877  16.296  12.370   6.515 -0.1513 -0.1215 -0.0769
 1118loPI   C2B16878  16.367  12.385   6.978 -0.2652 -0.2608 -0.0687
 1118loPI   C3B16879  16.395  12.379   7.497 -0.0395 -0.0730  0.4357
 1118loPI   C4B16880  16.706  12.216   7.784  0.0784 -0.0192  0.0745
 1119loPI    C116881  12.584   1.563   4.889  0.1799  0.1409  0.0374
 1119loPI    C216882  12.859   1.439   4.627 -0.1459  0.2028 -0.3431
 1119loPI    C316883  12.506   1.253   4.648 -0.0279  0.0248  0.2496
 1119loPI   PO416884  12.697   1.550   5.153 -0.0630 -0.0073 -0.1005
 1119loPI   GL116885  12.704   1.453   5.556  0.2044 -0.0099 -0.1000
 1119loPI   GL216886  12.835   1.638   5.825  0.2450  0.0702  0.0604
 1119loPI   C1A16887  12.503   1.254   6.006 -0.0964  0.2320  0.0210
 1119loPI   C2A16888  12.540   0.989   6.366 -0.0576  0.1946  0.0915
 1119loPI   C3A16889  12.435   0.851   6.796 -0.0412  0.2031  0.3313
 1119loPI   C4A16890  12.353   0.818   7.270 -0.1146  0.0749 -0.1950
 1119loPI   C5A16891  12.360   0.865   7.667  0.3924 -0.1971  0.0770
 1119loPI   C6A16892  12.443   1.113   8.120  0.0183  0.1528  0.0206
 1119loPI   C1B16893  12.569   1.948   6.063  0.0437  0.0907 -0.1215
 1119loPI   C2B16894  12.642   2.042   6.455  0.1177  0.2071 -0.0016
 1119loPI   C3B16895  12.686   1.942   6.877 -0.0352 -0.2729 -0.1193
 1119loPI   C4B16896  12.731   1.790   7.233  0.1056  0.0600 -0.0497
 1120loPI    C116897   9.223   6.383   5.836 -0.0020  0.0198 -0.0060
 1120loPI    C216898   9.482   6.163   5.626 -0.0559  0.0264 -0.0797
 1120loPI    C316899   9.187   6.358   5.439 -0.1919 -0.0855  0.0166
 1120loPI   PO416900   9.086   6.223   5.971 -0.1607 -0.0535  0.0271
 1120loPI   GL116901   9.108   5.910   6.258  0.1456  0.0457  0.2118
 1120loPI   GL216902   9.101   6.003   6.499  0.2696 -0.0075 -0.0710
 1120loPI   C1A16903   8.864   5.571   6.513  0.1490  0.0200 -0.1329
 1120loPI   C2A16904   8.849   5.528   6.905 -0.0216  0.2387  0.3873
 1120loPI   C3A16905   8.718   5.539   7.307 -0.1483  0.3057  0.0260
 1120loPI   C4A16906   8.581   5.442   7.750  0.0378 -0.4361  0.0072
 1120loPI   C5A16907   8.396   5.342   8.201 -0.3999 -0.0368 -0.0325
 1120loPI   C6A16908   7.948   5.307   8.332  0.1772  0.0858 -0.2042
 1120loPI   C1B16909   9.129   5.937   6.917 -0.2981 -0.2404 -0.1495
 1120loPI   C2B16910   9.161   5.788   7.273  0.2094 -0.2099  0.0018
 1120loPI   C3B16911   9.328   5.868   7.733  0.1413  0.1324  0.5777
 1120loPI   C4B16912   9.571   5.819   8.152 -0.2369 -0.1106  0.1437
 1121loPI    C116913   2.975   3.295   5.089 -0.1096 -0.2318  0.0012
 1121loPI    C216914   3.166   2.981   4.931  0.1925 -0.0348 -0.0341
 1121loPI    C316915   3.144   3.324   4.727  0.2493  0.1034  0.1889
 1121loPI   PO416916   3.108   3.276   5.355  0.0517 -0.1688  0.2716
 1121loPI   GL116917   3.115   3.283   5.750 -0.2675 -0.1582 -0.5141
 1121loPI   GL216918   2.750   3.338   5.720  0.2634 -0.1672 -0.0129
 1121loPI   C1A16919   3.481   3.501   6.013 -0.1698  0.0215  0.0212
 1121loPI   C2A16920   3.582   3.512   6.403 -0.0480 -0.2245  0.2406
 1121loPI   C3A16921   3.662   3.593   6.704 -0.2623  0.2735 -0.1380
 1121loPI   C4A16922   3.510   3.517   7.084 -0.2440  0.3096 -0.1584
 1121loPI   C5A16923   3.376   3.473   7.559  0.2003 -0.1483  0.0434
 1121loPI   C6A16924   3.292   3.521   8.072 -0.2515  0.2503  0.0610
 1121loPI   C1B16925   2.555   3.331   6.089 -0.0301 -0.2458 -0.1143
 1121loPI   C2B16926   2.540   3.646   6.409  0.1242  0.2010  0.0264
 1121loPI   C3B16927   2.587   3.825   6.812 -0.1601  0.1082 -0.0262
 1121loPI   C4B16928   2.689   3.991   7.194 -0.2048  0.0730  0.0066
 1122loPI    C116929  12.277  13.032   5.284 -0.0795 -0.0319 -0.0424
 1122loPI    C216930  12.315  12.667   5.126 -0.1889  0.0333 -0.2220
 1122loPI    C316931  12.606  12.817   5.355 -0.1794 -0.1983 -0.0799
 1122loPI   PO416932  11.957  12.923   5.408 -0.3403 -0.2073  0.0772
 1122loPI   GL116933  11.750  13.016   5.791  0.1788 -0.2711 -0.2195
 1122loPI   GL216934  11.779  12.685   5.870 -0.0293  0.0653  0.0849
 1122loPI   C1A16935  11.791  13.396   6.083 -0.0587  0.2490 -0.1534
 1122loPI   C2A16936  11.925  13.327   6.527  0.3034  0.2184  0.0844
 1122loPI   C3A16937  11.941  13.165   6.900 -0.1052  0.0783  0.0227
 1122loPI   C4A16938  11.901  13.075   7.282 -0.0954  0.1453 -0.1576
 1122loPI   C5A16939  11.853  13.007   7.729 -0.2696 -0.2731 -0.0995
 1122loPI   C6A16940  11.772  12.886   8.150  0.1121  0.3291 -0.0963
 1122loPI   C1B16941  11.685  12.934   6.263  0.1118  0.0607 -0.3597
 1122loPI   C2B16942  11.482  13.105   6.582  0.2078 -0.3939  0.0227
 1122loPI   C3B16943  11.432  13.199   7.066  0.2467  0.1126 -0.3270
 1122loPI   C4B16944  11.532  13.465   7.461  0.0980 -0.1974  0.2340
 1123loPI    C116945   2.604   0.863   5.279  0.1369 -0.0416  0.0429
 1123loPI    C216946   2.589   0.513   5.087  0.1336 -0.0459  0.0511
 1123loPI    C316947   2.402   0.833   4.936  0.2026 -0.0282  0.0027
 1123loPI   PO416948   2.539   0.924   5.553  0.2029  0.1381  0.2383
 1123loPI   GL116949   2.351   0.703   5.910 -0.1363  0.1282  0.1194
 1123loPI   GL216950   2.328   0.398   5.928 -0.3310 -0.3643  0.0607
 1123loPI   C1A16951   2.013   0.781   6.153  0.1180  0.0390  0.0567
 1123loPI   C2A16952   1.796   0.778   6.568 -0.1295 -0.1535  0.1460
 1123loPI   C3A16953   1.613   0.920   6.909 -0.0552  0.1739  0.0419
 1123loPI   C4A16954   1.720   0.879   7.289 -0.0158  0.1195  0.1892
 1123loPI   C5A16955   1.845   0.726   7.644 -0.2065  0.0286  0.3373
 1123loPI   C6A16956   2.131   0.354   7.865  0.0781 -0.0310 -0.1258
 1123loPI   C1B16957   2.310   0.366   6.284 -0.1172 -0.0460 -0.0563
 1123loPI   C2B16958   2.229   0.484   6.674 -0.3967  0.3372  0.0327
 1123loPI   C3B16959   2.019   0.585   6.970  0.0818 -0.2115 -0.1115
 1123loPI   C4B16960   2.057   0.395   7.356  0.2151 -0.2669 -0.1006
 1124loPI    C116961   7.385   6.471   5.340  0.1175 -0.0954  0.3264
 1124loPI    C216962   7.685   6.670   5.164 -0.1947  0.1351  0.0401
 1124loPI    C316963   7.562   6.320   5.014 -0.1923  0.1314  0.0468
 1124loPI   PO416964   7.399   6.479   5.641 -0.1942 -0.0210  0.3253
 1124loPI   GL116965   7.343   6.842   5.925  0.0792  0.0276  0.0906
 1124loPI   GL216966   7.575   7.006   6.082 -0.2674  0.0642  0.0267
 1124loPI   C1A16967   7.085   6.750   6.265 -0.0084 -0.0702 -0.0787
 1124loPI   C2A16968   7.019   6.695   6.712  0.1278 -0.1986  0.1456
 1124loPI   C3A16969   7.005   6.791   7.227 -0.0165  0.1989  0.2236
 1124loPI   C4A16970   7.171   6.830   7.663  0.1650  0.0647  0.0643
 1124loPI   C5A16971   7.349   6.865   8.084  0.0701 -0.1945 -0.0733
 1124loPI   C6A16972   7.446   7.229   8.428 -0.0095 -0.1943  0.0854
 1124loPI   C1B16973   7.342   7.090   6.480  0.2287  0.1074  0.0978
 1124loPI   C2B16974   7.370   6.925   6.997  0.2372 -0.1460  0.3442
 1124loPI   C3B16975   7.514   6.702   7.331 -0.0743 -0.1415  0.1189
 1124loPI   C4B16976   7.716   6.517   7.768  0.3141  0.2629  0.1504
 1125loPI    C116977  14.725   0.588   5.323 -0.1961 -0.2968 -0.0181
 1125loPI    C216978  14.976   0.505   5.023  0.0434 -0.0477  0.1078
 1125loPI    C316979  14.581   0.513   4.958  0.0891 -0.0561 -0.1850
 1125loPI   PO416980  14.891   0.794   5.440 -0.2533  0.0950  0.1895
 1125loPI   GL116981  15.143   0.916   5.764 -0.0271 -0.2346 -0.0220
 1125loPI   GL216982  15.323   0.693   5.891  0.2419 -0.0244  0.0165
 1125loPI   C1A16983  14.967   0.812   6.197 -0.2341 -0.0029  0.3304
 1125loPI   C2A16984  15.141   0.699   6.568 -0.1493 -0.0643  0.0881
 1125loPI   C3A16985  15.091   0.515   6.913  0.0323  0.0421 -0.0973
 1125loPI   C4A16986  15.164   0.377   7.430  0.1974  0.0747  0.2025
 1125loPI   C5A16987  15.514   0.445   7.697  0.1558 -0.0331 -0.1290
 1125loPI   C6A16988  15.821   0.398   7.942 -0.1808 -0.2725 -0.0144
 1125loPI   C1B16989  15.443   0.439   6.220  0.0974 -0.0952 -0.0038
 1125loPI   C2B16990  15.612   0.546   6.659  0.0105  0.0990  0.0865
 1125loPI   C3B16991  15.506   0.618   7.066 -0.2085 -0.0118 -0.0653
 1125loPI   C4B16992  15.732   0.800   7.347  0.0348  0.1696  0.3051
 1126loPI    C116993  12.706   6.578   5.768 -0.2916 -0.0920 -0.1851
 1126loPI    C216994  12.523   6.840   5.527 -0.0761  0.0680 -0.1780
 1126loPI    C316995  12.647   6.488   5.383 -0.0199  0.1300 -0.2830
 1126loPI   PO416996  12.607   6.715   5.977  0.1271  0.1008 -0.1699
 1126loPI   GL116997  12.345   6.520   6.377  0.1946  0.3995  0.0487
 1126loPI   GL216998  12.683   6.443   6.466  0.6155 -0.0531  0.2015
 1126loPI   C1A16999  12.332   6.646   6.757 -0.0789  0.0676  0.0810
 1126loPI   C2A17000  12.074   6.561   7.150  0.0675 -0.0333  0.0480
 1126loPI   C3A17001  12.220   6.707   7.571 -0.1485  0.1355  0.0389
 1126loPI   C4A17002  12.148   6.858   8.007  0.4467  0.0107  0.0738
 1126loPI   C5A17003  12.364   7.330   8.181  0.1022  0.3537 -0.3140
 1126loPI   C6A17004  12.102   7.545   8.496  0.0837  0.3247 -0.1909
 1126loPI   C1B17005  12.816   6.259   6.801 -0.1200  0.0950  0.2083
 1126loPI   C2B17006  13.007   6.198   7.227  0.1475  0.0258  0.3144
 1126loPI   C3B17007  12.936   5.980   7.639  0.0121 -0.0974 -0.1862
 1126loPI   C4B17008  13.025   5.894   8.063  0.0347 -0.1872  0.0907
 1127loPI    C117009   1.635   5.720   5.439 -0.2326 -0.1675 -0.1002
 1127loPI    C217010   1.835   5.729   5.093  0.0491  0.2145  0.0649
 1127loPI    C317011   1.447   5.827   5.103  0.0688  0.3167 -0.1238
 1127loPI   PO417012   1.668   5.491   5.548  0.1949  0.1497  0.1029
 1127loPI   GL117013   1.944   5.532   6.000 -0.1260  0.2233 -0.3676
 1127loPI   GL217014   1.591   5.453   6.006 -0.3466 -0.0474 -0.0201
 1127loPI   C1A17015   2.216   5.350   6.142 -0.0927 -0.0763  0.2293
 1127loPI   C2A17016   2.510   5.392   6.571  0.1292 -0.2037  0.2058
 1127loPI   C3A17017   2.602   5.390   7.075 -0.0248 -0.0528 -0.0461
 1127loPI   C4A17018   2.576   5.475   7.520 -0.0906  0.0354  0.4024
 1127loPI   C5A17019   2.709   5.345   7.835  0.1372 -0.0442 -0.2755
 1127loPI   C6A17020   2.607   5.344   8.319  0.0776  0.1100 -0.1767
 1127loPI   C1B17021   1.711   5.473   6.443 -0.2873  0.2872 -0.1127
 1127loPI   C2B17022   2.069   5.487   6.836  0.5400 -0.0913  0.0534
 1127loPI   C3B17023   2.136   5.436   7.298  0.1682  0.1879  0.0444
 1127loPI   C4B17024   2.030   5.474   7.680 -0.2484  0.3275  0.2045
 1128loPI    C117025   6.549  17.444   5.556  0.2400  0.2190  0.0999
 1128loPI    C217026   6.490  17.777   5.341 -0.0052  0.2159  0.1593
 1128loPI    C317027   6.794  17.532   5.252 -0.0192  0.2876 -0.0930
 1128loPI   PO417028   6.593  17.488   5.799  0.0632 -0.2206  0.0009
 1128loPI   GL117029   6.219  17.660   6.113 -0.2224 -0.2945 -0.2014
 1128loPI   GL217030   6.237  17.380   6.276  0.1196  0.0764 -0.0411
 1128loPI   C1A17031   6.208  17.937   6.376 -0.1342  0.1046  0.1135
 1128loPI   C2A17032   6.213  17.861   6.757  0.3007 -0.0922 -0.1844
 1128loPI   C3A17033   6.056  17.791   7.192 -0.2145  0.0344  0.2368
 1128loPI   C4A17034   6.093  17.878   7.604  0.3794 -0.0121  0.0155
 1128loPI   C5A17035   6.258  17.597   7.872 -0.1418  0.2439 -0.0891
 1128loPI   C6A17036   6.621  17.622   8.167  0.1899 -0.2181 -0.0165
 1128loPI   C1B17037   6.299  17.399   6.586  0.2555 -0.0433  0.2379
 1128loPI   C2B17038   6.242  17.339   6.993  0.0616  0.0996 -0.3300
 1128loPI   C3B17039   6.011  17.347   7.373 -0.0929 -0.0537  0.0491
 1128loPI   C4B17040   5.918  17.119   7.697  0.3193 -0.0194  0.1905
 1129loPI    C117041   5.473  16.268   5.318  0.0416  0.0375 -0.0402
 1129loPI    C217042   5.764  16.067   5.131  0.1263  0.1252 -0.0036
 1129loPI    C317043   5.851  16.398   5.338 -0.0096  0.1887 -0.0468
 1129loPI   PO417044   5.354  16.110   5.413 -0.2070 -0.0479  0.1391
 1129loPI   GL117045   5.098  16.181   5.818 -0.2088 -0.0295  0.1303
 1129loPI   GL217046   5.404  15.934   5.920 -0.1363 -0.0237 -0.3647
 1129loPI   C1A17047   4.927  16.172   6.114  0.0583  0.0668 -0.0714
 1129loPI   C2A17048   4.868  16.210   6.567  0.2016 -0.0039 -0.3812
 1129loPI   C3A17049   4.837  15.859   6.910 -0.0690 -0.0538 -0.1755
 1129loPI   C4A17050   4.768  15.808   7.387  0.1860 -0.0643 -0.0178
 1129loPI   C5A17051   4.677  15.968   7.783  0.1324  0.0164  0.0642
 1129loPI   C6A17052   4.318  15.927   8.132  0.0089 -0.0064 -0.2957
 1129loPI   C1B17053   5.531  15.580   6.126  0.2137 -0.1884  0.1564
 1129loPI   C2B17054   5.682  15.409   6.471 -0.1672  0.2319 -0.4335
 1129loPI   C3B17055   5.394  15.485   6.872 -0.1052 -0.3286  0.2896
 1129loPI   C4B17056   5.171  15.561   7.219  0.0171  0.1107 -0.2583
 1130loPI    C117057   4.261  13.862   5.537  0.2003 -0.0287  0.1074
 1130loPI    C217058   4.383  13.885   5.157  0.1825  0.2907  0.1181
 1130loPI    C317059   4.073  14.106   5.281 -0.0357 -0.0725  0.2359
 1130loPI   PO417060   4.534  13.766   5.680  0.5461 -0.2033  0.1210
 1130loPI   GL117061   4.649  13.536   5.926 -0.0375 -0.0671 -0.2721
 1130loPI   GL217062   4.842  13.342   6.032 -0.2057 -0.0979  0.0006
 1130loPI   C1A17063   4.728  13.673   6.350 -0.1596 -0.0958  0.0406
 1130loPI   C2A17064   4.410  13.801   6.654  0.3747 -0.3127  0.1177
 1130loPI   C3A17065   4.128  13.866   6.995 -0.2721 -0.0560 -0.3088
 1130loPI   C4A17066   4.127  14.001   7.369 -0.0409 -0.0977  0.1704
 1130loPI   C5A17067   4.209  14.250   7.802 -0.2203 -0.0205 -0.1449
 1130loPI   C6A17068   4.575  14.320   8.038  0.0679 -0.1830  0.0769
 1130loPI   C1B17069   5.152  13.205   6.391 -0.0561  0.1257 -0.4261
 1130loPI   C2B17070   5.093  13.277   6.784 -0.1182  0.3613 -0.3049
 1130loPI   C3B17071   5.018  13.323   7.216 -0.1060  0.2364 -0.0254
 1130loPI   C4B17072   4.975  13.508   7.549  0.0406 -0.1661 -0.1694
 1131loPI    C117073  16.766  15.718   5.280  0.0282  0.0411 -0.0007
 1131loPI    C217074  16.805  15.347   5.424  0.0873  0.0616  0.0363
 1131loPI    C317075  17.003  15.455   5.093 -0.2323 -0.0574 -0.1984
 1131loPI   PO417076  16.733  15.833   5.542 -0.0018 -0.0562 -0.1133
 1131loPI   GL117077  16.813  15.562   5.952 -0.2421 -0.0813 -0.5474
 1131loPI   GL217078  16.820  15.953   6.007  0.0798  0.1090 -0.0897
 1131loPI   C1A17079  16.840  15.465   6.462 -0.1352  0.1230 -0.1744
 1131loPI   C2A17080  16.900  15.331   6.927  0.1498  0.0063  0.1561
 1131loPI   C3A17081  16.967  15.272   7.323 -0.1438  0.0929 -0.1097
 1131loPI   C4A17082  17.026  15.524   7.734 -0.1244  0.2486  0.3139
 1131loPI   C5A17083  16.623  15.602   8.038 -0.2435  0.2272 -0.1775
 1131loPI   C6A17084  16.255  15.764   8.045  0.4312 -0.0432 -0.1780
 1131loPI   C1B17085  16.979  15.915   6.413  0.4125 -0.1389 -0.0507
 1131loPI   C2B17086  16.966  15.883   6.818 -0.0459 -0.0402 -0.0522
 1131loPI   C3B17087  16.863  15.880   7.273  0.1659  0.2780 -0.1132
 1131loPI   C4B17088  16.694  15.984   7.685 -0.1027 -0.1295  0.1458
 1132loPI    C117089  14.551  16.618   5.301 -0.0773  0.0281 -0.1179
 1132loPI    C217090  14.250  16.881   5.283 -0.2032 -0.0938  0.1345
 1132loPI    C317091  14.380  16.701   4.949 -0.3930 -0.0218  0.0203
 1132loPI   PO417092  14.545  16.486   5.461  0.1174  0.0669 -0.2080
 1132loPI   GL117093  14.306  16.504   5.743 -0.0325  0.1596 -0.1782
 1132loPI   GL217094  14.177  16.807   5.768  0.2033  0.4172  0.3308
 1132loPI   C1A17095  14.351  16.635   6.250  0.1926 -0.2436 -0.1192
 1132loPI   C2A17096  14.346  16.681   6.591  0.1167 -0.0877  0.2027
 1132loPI   C3A17097  14.529  16.532   6.954  0.0791 -0.3323 -0.1881
 1132loPI   C4A17098  14.792  16.511   7.289 -0.1710 -0.0867 -0.0991
 1132loPI   C5A17099  15.251  16.583   7.603 -0.0528  0.2697  0.1585
 1132loPI   C6A17100  15.444  16.906   7.751  0.0282  0.3476 -0.2550
 1132loPI   C1B17101  14.074  17.053   6.005  0.0524 -0.3583  0.0096
 1132loPI   C2B17102  14.148  17.149   6.393  0.0701 -0.0543 -0.0292
 1132loPI   C3B17103  14.197  17.407   6.746 -0.2231  0.1745  0.0871
 1132loPI   C4B17104  14.286  17.470   7.162 -0.0206  0.0077  0.1967
 1133loPI    C117105   7.976  13.349   5.814  0.2102 -0.0111  0.0254
 1133loPI    C217106   8.309  13.383   5.594  0.0167  0.2373 -0.2370
 1133loPI    C317107   8.306  13.509   5.974  0.2684  0.0759 -0.1788
 1133loPI   PO417108   7.933  13.068   5.778  0.1084  0.1592 -0.0953
 1133loPI   GL117109   7.526  12.872   5.967 -0.0917 -0.0973 -0.2546
 1133loPI   GL217110   7.322  12.683   5.855 -0.0406  0.0120  0.0522
 1133loPI   C1A17111   7.516  13.051   6.413 -0.1234  0.1767  0.0437
 1133loPI   C2A17112   7.650  13.043   6.840 -0.0895  0.1998 -0.0567
 1133loPI   C3A17113   7.754  12.976   7.374  0.2187 -0.0613  0.0856
 1133loPI   C4A17114   8.128  12.806   7.614  0.3662  0.1996 -0.0090
 1133loPI   C5A17115   8.263  12.536   7.968 -0.2740  0.1859  0.2131
 1133loPI   C6A17116   8.113  12.143   8.123  0.0273  0.0573  0.0225
 1133loPI   C1B17117   7.284  12.603   6.320  0.0323 -0.3556  0.3908
 1133loPI   C2B17118   7.206  12.747   6.707  0.2075  0.1192  0.1151
 1133loPI   C3B17119   7.351  12.780   7.128 -0.0421 -0.0962  0.2196
 1133loPI   C4B17120   7.347  12.872   7.660  0.1214 -0.1116 -0.0148
 1134loPI    C117121   9.443  11.340   5.718 -0.2589 -0.1776  0.0858
 1134loPI    C217122   9.813  11.317   5.869 -0.1686  0.1226 -0.0834
 1134loPI    C317123   9.602  10.983   5.807  0.0833 -0.0534 -0.0097
 1134loPI   PO417124   9.331  11.532   5.968 -0.1775  0.0292  0.1299
 1134loPI   GL117125   9.550  11.501   6.329  0.0188 -0.0227 -0.1742
 1134loPI   GL217126   9.585  11.166   6.289  0.0627  0.5237 -0.0589
 1134loPI   C1A17127   9.676  11.747   6.719  0.2289  0.2019  0.2159
 1134loPI   C2A17128   9.887  11.748   7.069  0.0999  0.1864 -0.1530
 1134loPI   C3A17129   9.820  11.766   7.544  0.0712  0.1078 -0.1123
 1134loPI   C4A17130  10.036  11.764   7.912  0.4929  0.1645 -0.0204
 1134loPI   C5A17131  10.228  11.933   8.226  0.2061 -0.0457  0.1033
 1134loPI   C6A17132  10.359  11.723   8.694 -0.1491  0.0822 -0.2061
 1134loPI   C1B17133   9.929  11.288   6.490  0.0413 -0.0829  0.0606
 1134loPI   C2B17134  10.090  11.252   6.931 -0.1906 -0.0167  0.0675
 1134loPI   C3B17135  10.313  11.440   7.229 -0.0696  0.2659 -0.0710
 1134loPI   C4B17136  10.264  11.430   7.664 -0.1516 -0.0041 -0.0277
 1135loPI    C117137  16.949   9.871   5.629  0.1294 -0.0391 -0.2133
 1135loPI    C217138  17.150   9.946   5.292  0.0938 -0.1342 -0.2562
 1135loPI    C317139  16.875  10.205   5.423  0.1312 -0.0809 -0.2822
 1135loPI   PO417140  17.137   9.820   5.789  0.1885  0.1919  0.0880
 1135loPI   GL117141  17.050  10.042   6.154 -0.2055 -0.2134 -0.0813
 1135loPI   GL217142  17.040  10.352   6.219 -0.0745 -0.1035 -0.0373
 1135loPI   C1A17143  16.918   9.942   6.641  0.2084 -0.1418 -0.3200
 1135loPI   C2A17144  16.951   9.960   7.026 -0.0468 -0.2638 -0.3669
 1135loPI   C3A17145  16.949   9.838   7.492 -0.1779 -0.0200 -0.0027
 1135loPI   C4A17146  16.948   9.507   7.801  0.0231 -0.0618  0.0134
 1135loPI   C5A17147  16.676   9.271   8.111  0.1746 -0.2221  0.0632
 1135loPI   C6A17148  16.234   9.484   8.215  0.1523  0.2068 -0.1598
 1135loPI   C1B17149  17.253  10.281   6.612  0.4042 -0.3671  0.3408
 1135loPI   C2B17150  17.371  10.184   7.059  0.1515 -0.2865  0.3403
 1135loPI   C3B17151  17.443  10.146   7.402  0.0452 -0.0610  0.0659
 1135loPI   C4B17152  17.345   9.978   7.818  0.0378  0.0264 -0.0664
 1136loPI    C117153  14.321  15.126   4.898 -0.0117 -0.1504 -0.1570
 1136loPI    C217154  14.129  15.405   4.685  0.2027  0.0881 -0.0432
 1136loPI    C317155  13.921  15.133   4.892 -0.0074  0.0538 -0.2940
 1136loPI   PO417156  14.448  15.272   5.143 -0.0167  0.1397  0.0116
 1136loPI   GL117157  14.398  15.477   5.573  0.1360  0.3020  0.4071
 1136loPI   GL217158  14.134  15.446   5.690  0.1803 -0.1911 -0.1501
 1136loPI   C1A17159  14.524  15.205   5.952 -0.0202 -0.0955  0.1992
 1136loPI   C2A17160  14.465  15.316   6.380 -0.1937 -0.0263  0.1891
 1136loPI   C3A17161  14.549  15.434   6.817 -0.1428 -0.0772  0.0701
 1136loPI   C4A17162  14.629  15.472   7.236  0.0879 -0.2237 -0.4429
 1136loPI   C5A17163  14.823  15.707   7.598 -0.2125  0.2020  0.1757
 1136loPI   C6A17164  15.017  15.671   8.085 -0.0244 -0.3374 -0.1141
 1136loPI   C1B17165  13.957  15.357   6.160  0.3383  0.1290 -0.1202
 1136loPI   C2B17166  13.677  15.436   6.589  0.1188 -0.0771 -0.0678
 1136loPI   C3B17167  13.686  15.330   6.953  0.0606 -0.0393  0.1351
 1136loPI   C4B17168  13.739  15.385   7.378 -0.2237  0.0523 -0.0444
 1137loPI    C117169   1.181  12.800   5.775  0.1017  0.1440  0.0553
 1137loPI    C217170   0.987  12.965   5.467  0.0587 -0.0434 -0.0191
 1137loPI    C317171   0.946  13.118   5.834 -0.3818 -0.1917  0.0002
 1137loPI   PO417172   1.191  12.512   5.675  0.0677  0.1058 -0.2382
 1137loPI   GL117173   1.133  12.141   5.946 -0.1640  0.2034  0.2847
 1137loPI   GL217174   1.385  12.226   6.085 -0.0404 -0.1668 -0.3344
 1137loPI   C1A17175   1.136  11.787   6.166  0.0711 -0.0727 -0.1739
 1137loPI   C2A17176   1.253  11.531   6.563  0.3091 -0.0910  0.0890
 1137loPI   C3A17177   1.200  11.549   7.020 -0.0661 -0.0546 -0.0795
 1137loPI   C4A17178   1.229  11.484   7.480 -0.1848  0.0940  0.3283
 1137loPI   C5A17179   1.123  11.366   7.940  0.1483  0.2575 -0.1435
 1137loPI   C6A17180   1.179  11.195   8.408 -0.1645  0.1080  0.0568
 1137loPI   C1B17181   1.254  12.200   6.535 -0.0600  0.0373 -0.0297
 1137loPI   C2B17182   1.253  12.149   6.992 -0.3488 -0.0537  0.0620
 1137loPI   C3B17183   1.334  12.101   7.375 -0.0849 -0.1087  0.2099
 1137loPI   C4B17184   1.313  11.954   7.756  0.1599  0.1151 -0.3430
 1138loPI    C117185   0.923  15.635   5.477  0.1640  0.0187  0.0115
 1138loPI    C217186   1.045  15.646   5.096 -0.0525 -0.0769 -0.0622
 1138loPI    C317187   1.033  15.983   5.311  0.0127 -0.0125 -0.1581
 1138loPI   PO417188   1.069  15.410   5.567 -0.0993 -0.0985  0.2150
 1138loPI   GL117189   1.033  15.280   5.922  0.0337  0.1734 -0.0684
 1138loPI   GL217190   1.066  15.068   6.021 -0.3905  0.0560 -0.1220
 1138loPI   C1A17191   1.096  15.531   6.250 -0.1999  0.3236  0.5263
 1138loPI   C2A17192   1.024  15.504   6.773 -0.1890  0.0975  0.0079
 1138loPI   C3A17193   1.092  15.439   7.324 -0.0430  0.1865  0.3592
 1138loPI   C4A17194   1.094  15.420   7.768  0.1577 -0.1572  0.0425
 1138loPI   C5A17195   0.729  15.642   7.976  0.1128  0.0880 -0.2201
 1138loPI   C6A17196   0.321  15.810   8.006 -0.2489 -0.1914  0.0561
 1138loPI   C1B17197   1.048  15.048   6.543 -0.0407 -0.0832  0.1047
 1138loPI   C2B17198   1.122  14.964   6.967 -0.0075 -0.0884 -0.3618
 1138loPI   C3B17199   1.141  14.934   7.502 -0.0544 -0.1898  0.2367
 1138loPI   C4B17200   1.185  14.978   7.942  0.2100  0.0621  0.0335
 1139loPI    C117201  16.572   6.186   5.679  0.1384  0.1752  0.1344
 1139loPI    C217202  16.749   6.540   5.620 -0.0752  0.2801  0.1151
 1139loPI    C317203  16.350   6.516   5.636 -0.0802 -0.0201 -0.2945
 1139loPI   PO417204  16.678   6.080   5.886 -0.0355  0.1154 -0.0215
 1139loPI   GL117205  16.457   5.895   6.250 -0.1315 -0.2001  0.0153
 1139loPI   GL217206  16.493   5.617   6.417 -0.0494  0.1429 -0.1580
 1139loPI   C1A17207  16.452   6.016   6.729 -0.0240 -0.0519  0.0973
 1139loPI   C2A17208  16.446   6.461   6.975  0.0203  0.1498 -0.0069
 1139loPI   C3A17209  16.559   6.650   7.359 -0.2381 -0.0964  0.1349
 1139loPI   C4A17210  16.760   6.736   7.760 -0.0473 -0.1628  0.0919
 1139loPI   C5A17211  16.650   6.631   8.131 -0.1503  0.2076 -0.0363
 1139loPI   C6A17212  16.318   6.732   8.371 -0.2528 -0.0943 -0.4433
 1139loPI   C1B17213  16.511   5.474   6.892 -0.0492 -0.0706  0.4573
 1139loPI   C2B17214  16.469   5.529   7.384  0.0795 -0.1931 -0.0945
 1139loPI   C3B17215  16.389   5.297   7.765 -0.0252 -0.0995 -0.0819
 1139loPI   C4B17216  16.249   5.053   8.169 -0.2478  0.1592 -0.2508
 1140loPI    C117217   1.429   1.904   5.003  0.0342  0.0932  0.1510
 1140loPI    C217218   1.797   1.800   4.884 -0.0172  0.0057  0.0664
 1140loPI    C317219   1.478   1.610   4.735 -0.1138  0.2868 -0.0932
 1140loPI   PO417220   1.384   1.800   5.307 -0.0646 -0.0740  0.0208
 1140loPI   GL117221   1.338   1.955   5.692 -0.4149  0.1309 -0.2060
 1140loPI   GL217222   1.027   1.868   5.703 -0.0073  0.0378 -0.1113
 1140loPI   C1A17223   1.382   1.850   6.184  0.0991 -0.2536 -0.1239
 1140loPI   C2A17224   1.465   1.845   6.550 -0.2748  0.0949  0.0187
 1140loPI   C3A17225   1.513   1.883   6.971 -0.2461  0.0430 -0.1365
 1140loPI   C4A17226   1.545   1.774   7.407  0.3025  0.1847 -0.2923
 1140loPI   C5A17227   1.579   1.521   7.762 -0.1953 -0.1369 -0.1255
 1140loPI   C6A17228   1.201   1.383   7.927  0.0772 -0.0579 -0.1845
 1140loPI   C1B17229   0.832   1.792   6.138 -0.0614 -0.0885 -0.0889
 1140loPI   C2B17230   0.972   1.893   6.497  0.0410  0.1586 -0.1687
 1140loPI   C3B17231   1.050   1.788   6.936 -0.0279  0.0232  0.1579
 1140loPI   C4B17232   0.951   1.787   7.370 -0.1071  0.0109  0.1481
 1141loPI    C117233   3.096   0.137   5.475 -0.2769 -0.0271 -0.1107
 1141loPI    C217234   3.094  -0.026   5.110 -0.0725 -0.0884 -0.0854
 1141loPI    C317235   3.361   0.258   5.201 -0.1217 -0.0750  0.0174
 1141loPI   PO417236   3.078  -0.233   5.611  0.0910 -0.1829  0.1117
 1141loPI   GL117237   3.331  -0.379   5.956 -0.2415  0.0182  0.2509
 1141loPI   GL217238   3.299  -0.125   6.058  0.0488  0.1231  0.0544
 1141loPI   C1A17239   3.505  -0.814   6.199  0.1396  0.0479 -0.3074
 1141loPI   C2A17240   3.508  -0.819   6.594  0.0422 -0.0948 -0.1825
 1141loPI   C3A17241   3.395  -0.850   7.025 -0.2267 -0.1140  0.1021
 1141loPI   C4A17242   3.454  -0.758   7.408 -0.3495  0.4131 -0.0960
 1141loPI   C5A17243   3.615  -0.586   7.752 -0.0567 -0.0395 -0.0373
 1141loPI   C6A17244   3.532  -0.507   8.144  0.1632 -0.1328 -0.0098
 1141loPI   C1B17245   3.272  -0.346   6.452 -0.1545 -0.0632 -0.1598
 1141loPI   C2B17246   3.128  -0.346   6.901  0.1074  0.0142 -0.1094
 1141loPI   C3B17247   3.068  -0.489   7.272 -0.0311  0.0465  0.3007
 1141loPI   C4B17248   2.725  -0.361   7.539  0.0512 -0.2882  0.2598
 1142loPI    C117249   1.098   8.992   5.478 -0.0374 -0.0472 -0.1383
 1142loPI    C217250   1.035   8.719   5.192 -0.1840  0.0318 -0.1825
 1142loPI    C317251   1.075   9.105   5.096 -0.0853  0.0403 -0.1097
 1142loPI   PO417252   1.216   8.851   5.690 -0.3196 -0.1402  0.1319
 1142loPI   GL117253   1.510   8.817   5.968  0.1663 -0.1338  0.0162
 1142loPI   GL217254   1.453   8.410   6.059 -0.1191 -0.1181  0.4123
 1142loPI   C1A17255   1.610   8.870   6.349 -0.1076 -0.1551  0.1761
 1142loPI   C2A17256   1.704   8.952   6.782 -0.2287 -0.0571 -0.0242
 1142loPI   C3A17257   1.507   9.123   7.132 -0.3968 -0.0620 -0.0693
 1142loPI   C4A17258   1.463   9.251   7.483  0.0443  0.1650  0.1696
 1142loPI   C5A17259   1.270   9.084   7.846 -0.0239  0.0784  0.1301
 1142loPI   C6A17260   1.263   9.030   8.315  0.3292 -0.2997  0.1499
 1142loPI   C1B17261   1.831   8.332   6.406  0.3010 -0.1624 -0.2594
 1142loPI   C2B17262   1.792   8.420   6.857 -0.0339  0.0604 -0.2669
 1142loPI   C3B17263   1.658   8.375   7.309  0.1268  0.0695 -0.0413
 1142loPI   C4B17264   1.715   8.142   7.621  0.1513  0.0633 -0.3045
 1143loPI    C117265  15.232   7.608   5.661  0.2002  0.3231 -0.1448
 1143loPI    C217266  14.971   7.814   5.438  0.1178  0.2120 -0.1517
 1143loPI    C317267  15.294   7.651   5.268  0.0492  0.1181 -0.1929
 1143loPI   PO417268  15.158   7.769   5.920  0.0122  0.1431  0.3820
 1143loPI   GL117269  14.987   7.939   6.302  0.2071  0.0349 -0.2594
 1143loPI   GL217270  15.410   8.112   6.236 -0.0302  0.0622  0.3485
 1143loPI   C1A17271  15.049   7.822   6.768  0.1178 -0.1447 -0.1807
 1143loPI   C2A17272  15.027   7.788   7.238  0.0432 -0.1772 -0.1481
 1143loPI   C3A17273  14.877   7.817   7.646  0.0812  0.0481 -0.2043
 1143loPI   C4A17274  14.798   7.927   8.095 -0.0723 -0.0149 -0.0784
 1143loPI   C5A17275  14.430   8.055   8.384  0.0625  0.1597  0.0623
 1143loPI   C6A17276  13.916   8.265   8.600 -0.2077 -0.0662  0.3165
 1143loPI   C1B17277  15.380   8.256   6.619  0.0051  0.0721 -0.5009
 1143loPI   C2B17278  15.365   8.206   6.997 -0.1011 -0.1284  0.1239
 1143loPI   C3B17279  15.208   8.278   7.323  0.0938  0.0482 -0.0271
 1143loPI   C4B17280  15.089   8.305   7.755 -0.1891  0.0850  0.0104
 1144loPI    C117281   8.432  15.323   5.588  0.0589  0.0013  0.0948
 1144loPI    C217282   8.387  15.321   5.190  0.2173 -0.0008  0.0761
 1144loPI    C317283   8.473  14.981   5.383 -0.0101 -0.0287  0.1309
 1144loPI   PO417284   8.195  15.448   5.693 -0.0772 -0.0136  0.1927
 1144loPI   GL117285   8.383  15.592   6.057 -0.4015 -0.5806  0.1361
 1144loPI   GL217286   8.613  15.529   5.984 -0.2411 -0.1505  0.0920
 1144loPI   C1A17287   8.309  15.699   6.391  0.0535 -0.1217 -0.0666
 1144loPI   C2A17288   8.535  15.733   6.748 -0.0565  0.6181 -0.1957
 1144loPI   C3A17289   8.490  15.608   7.229  0.0847  0.0796 -0.1523
 1144loPI   C4A17290   8.374  15.616   7.662 -0.2476 -0.0467 -0.3047
 1144loPI   C5A17291   8.149  15.880   7.972 -0.1152 -0.0604  0.5386
 1144loPI   C6A17292   8.150  16.143   8.335  0.0558 -0.1245 -0.1533
 1144loPI   C1B17293   8.761  15.350   6.528  0.2238 -0.0562 -0.1061
 1144loPI   C2B17294   8.883  15.374   6.941 -0.1149 -0.0652  0.1627
 1144loPI   C3B17295   9.071  15.211   7.293  0.2543 -0.0579  0.3347
 1144loPI   C4B17296   9.106  14.884   7.651 -0.1710 -0.0767 -0.0106
 1145loPI    C117297  13.936  11.277   5.366  0.1823 -0.0732  0.0832
 1145loPI    C217298  13.763  11.201   5.013  0.1313 -0.1584  0.1261
 1145loPI    C317299  14.093  11.427   5.030 -0.1092  0.2057  0.0669
 1145loPI   PO417300  13.689  11.264   5.623  0.1867  0.1324  0.0904
 1145loPI   GL117301  13.743  11.241   6.056 -0.0378 -0.1873  0.1314
 1145loPI   GL217302  14.038  11.158   6.064 -0.0640  0.0953 -0.0148
 1145loPI   C1A17303  13.531  11.454   6.345 -0.0159  0.1110  0.1955
 1145loPI   C2A17304  13.479  11.334   6.789  0.2275  0.3253  0.1776
 1145loPI   C3A17305  13.416  11.375   7.281 -0.0826 -0.1421 -0.2797
 1145loPI   C4A17306  13.570  11.458   7.694 -0.2849  0.2815 -0.0504
 1145loPI   C5A17307  13.422  11.496   7.992 -0.1243  0.0576 -0.2173
 1145loPI   C6A17308  13.431  11.291   8.271 -0.2585 -0.0812  0.0418
 1145loPI   C1B17309  13.982  11.200   6.510 -0.1300 -0.2247  0.1593
 1145loPI   C2B17310  13.860  11.128   6.985 -0.1153  0.0815  0.3337
 1145loPI   C3B17311  13.815  11.106   7.394  0.0415  0.1448 -0.1964
 1145loPI   C4B17312  13.959  11.158   7.800  0.2345  0.1790 -0.0873
 1146loPI    C117313  11.541   5.324   5.622  0.0116 -0.0339  0.0387
 1146loPI    C217314  11.594   5.398   5.232  0.0181  0.0485  0.0552
 1146loPI    C317315  11.427   5.054   5.349 -0.2458  0.1438 -0.0341
 1146loPI   PO417316  11.702   5.534   5.749  0.1430  0.2780  0.4206
 1146loPI   GL117317  11.840   5.436   6.239  0.2123  0.4895  0.0448
 1146loPI   GL217318  11.626   5.811   6.228 -0.2100  0.0867  0.0330
 1146loPI   C1A17319  11.703   5.357   6.603 -0.2277 -0.1420  0.2891
 1146loPI   C2A17320  11.938   5.189   7.017  0.2044  0.3434  0.2752
 1146loPI   C3A17321  12.137   5.319   7.386  0.2111  0.3645 -0.0825
 1146loPI   C4A17322  12.257   5.180   7.884  0.0767  0.1397  0.2122
 1146loPI   C5A17323  12.596   4.956   8.132 -0.1048 -0.1607  0.3304
 1146loPI   C6A17324  12.636   4.897   8.567 -0.1547  0.0508 -0.1261
 1146loPI   C1B17325  11.400   6.061   6.591  0.2345  0.1157 -0.1528
 1146loPI   C2B17326  11.465   6.090   6.979  0.4443  0.0792  0.1127
 1146loPI   C3B17327  11.645   6.268   7.425  0.0720  0.1887  0.2380
 1146loPI   C4B17328  11.801   6.449   7.751  0.1753 -0.2111  0.4036
 1147loPI    C117329  17.787  16.838   5.125  0.1255 -0.1977  0.1404
 1147loPI    C217330  17.396  16.922   5.100  0.1328 -0.1050  0.3207
 1147loPI    C317331  17.580  16.733   4.799  0.0337  0.1956  0.0662
 1147loPI   PO417332  17.829  16.858   5.404 -0.0954  0.2718  0.0643
 1147loPI   GL117333  17.891  17.111   5.721  0.0063 -0.0057  0.1137
 1147loPI   GL217334  18.034  17.410   5.739 -0.1159  0.1571  0.1056
 1147loPI   C1A17335  18.045  16.829   6.036  0.0565 -0.0924 -0.0496
 1147loPI   C2A17336  17.899  16.860   6.480  0.1143 -0.0795  0.0765
 1147loPI   C3A17337  17.834  16.911   6.936  0.2532  0.3483  0.0826
 1147loPI   C4A17338  17.922  16.868   7.393 -0.1014  0.3262 -0.1429
 1147loPI   C5A17339  17.886  16.897   7.775 -0.0388  0.2543  0.0253
 1147loPI   C6A17340  17.521  16.821   8.122  0.1810  0.1025  0.0876
 1147loPI   C1B17341  18.005  17.406   6.134  0.0642 -0.0236 -0.0066
 1147loPI   C2B17342  17.915  17.329   6.540  0.0863  0.1134  0.0141
 1147loPI   C3B17343  17.840  17.457   6.989 -0.1535 -0.1638  0.1499
 1147loPI   C4B17344  17.854  17.366   7.335  0.0302 -0.1484 -0.3851
 1148POPI    C117345  10.511  14.221   5.637 -0.1272  0.1710 -0.0270
 1148POPI    C217346  10.331  14.528   5.453  0.0348  0.1994 -0.1402
 1148POPI    C317347  10.638  14.341   5.277 -0.1413 -0.1086 -0.1276
 1148POPI   PO417348  10.345  13.986   5.755  0.3388 -0.1143 -0.0487
 1148POPI   GL117349  10.187  14.016   6.123  0.1347 -0.0209 -0.0370
 1148POPI   GL217350  10.478  14.037   6.248 -0.0029 -0.0973  0.0676
 1148POPI   C1A17351  10.259  14.456   6.292 -0.0027 -0.1250 -0.1588
 1148POPI   D2A17352  10.463  14.605   6.713  0.2826 -0.0331  0.0314
 1148POPI   C3A17353  10.544  14.815   6.949  0.2627 -0.0040  0.2695
 1148POPI   C4A17354  10.529  15.111   7.334 -0.1014  0.0334  0.0462
 1148POPI   C1B17355  10.399  14.046   6.670  0.1621 -0.1000  0.0077
 1148POPI   C2B17356  10.215  13.836   6.950 -0.1552 -0.1147 -0.1665
 1148POPI   C3B17357  10.319  13.740   7.483 -0.0030 -0.0418  0.2002
 1148POPI   C4B17358  10.631  13.931   7.684  0.0518 -0.1838  0.1850
 1149POPI    C117359   9.041   9.018   5.942  0.1406  0.1521  0.0800
 1149POPI    C217360   8.789   8.970   5.635  0.2400  0.3201 -0.0292
 1149POPI    C317361   9.170   8.855   5.601  0.1900  0.1038  0.1217
 1149POPI   PO417362   8.879   9.229   6.064 -0.2076  0.0619 -0.1227
 1149POPI   GL117363   8.852   9.353   6.516 -0.2295 -0.0101 -0.0367
 1149POPI   GL217364   8.628   9.077   6.671 -0.0446  0.3185 -0.1478
 1149POPI   C1A17365   8.817   9.500   6.933  0.2468 -0.1164  0.0800
 1149POPI   D2A17366   8.610   9.671   7.209  0.0434  0.1057  0.0036
 1149POPI   C3A17367   8.542   9.704   7.619  0.0077 -0.1447 -0.1650
 1149POPI   C4A17368   8.270   9.542   7.705  0.1941 -0.0203 -0.2125
 1149POPI   C1B17369   8.458   9.136   7.031 -0.0874  0.0675 -0.1701
 1149POPI   C2B17370   8.417   9.204   7.374  0.0338 -0.2801  0.0542
 1149POPI   C3B17371   8.613   9.139   7.793  0.0602  0.3036 -0.0804
 1149POPI   C4B17372   8.614   8.868   8.176  0.2295  0.1304  0.0062
 1150POPI    C117373   5.150  13.974   5.388 -0.2326  0.3120  0.0132
 1150POPI    C217374   4.886  13.877   5.104 -0.0533  0.0857 -0.0793
 1150POPI    C317375   5.242  14.028   5.002 -0.0150  0.0687  0.0279
 1150POPI   PO417376   5.073  14.144   5.634 -0.1268 -0.0976  0.0874
 1150POPI   GL117377   4.816  14.051   5.945 -0.1733 -0.0804 -0.0045
 1150POPI   GL217378   4.736  14.428   5.914  0.1328 -0.2987 -0.1828
 1150POPI   C1A17379   4.970  14.148   6.333 -0.1932 -0.1526 -0.0562
 1150POPI   D2A17380   4.830  14.163   6.776  0.1186 -0.0473  0.2542
 1150POPI   C3A17381   4.566  14.160   7.083  0.0760  0.4129 -0.1550
 1150POPI   C4A17382   4.579  14.157   7.487 -0.0419 -0.1476  0.1299
 1150POPI   C1B17383   4.964  14.658   6.179 -0.0726  0.0035 -0.0145
 1150POPI   C2B17384   4.782  14.717   6.605 -0.1518 -0.0913  0.2278
 1150POPI   C3B17385   4.803  14.836   7.016 -0.0823  0.0143 -0.2917
 1150POPI   C4B17386   4.667  14.695   7.394  0.4101 -0.0912  0.1957
 1151POPI    C117387  17.125   9.192   5.678  0.3366  0.0944 -0.0385
 1151POPI    C217388  17.161   9.470   5.393  0.1859  0.1691  0.0141
 1151POPI    C317389  16.931   9.150   5.331  0.0385  0.2563  0.1046
 1151POPI   PO417390  16.996   9.314   5.886 -0.2066 -0.1646  0.1080
 1151POPI   GL117391  17.051   9.297   6.300  0.0785 -0.2284  0.0762
 1151POPI   GL217392  17.222   9.593   6.223  0.1088  0.1559 -0.0415
 1151POPI   C1A17393  16.988   9.451   6.784  0.2284  0.1144  0.0286
 1151POPI   D2A17394  17.006   9.495   7.143 -0.1047 -0.1051 -0.0816
 1151POPI   C3A17395  17.064   9.051   7.393 -0.0918 -0.0869 -0.1204
 1151POPI   C4A17396  17.064   8.981   7.812 -0.0719  0.0245  0.1665
 1151POPI   C1B17397  17.438   9.798   6.514 -0.1032 -0.3424  0.1652
 1151POPI   C2B17398  17.464   9.669   6.921 -0.2007 -0.2627  0.1515
 1151POPI   C3B17399  17.429   9.654   7.359 -0.0458  0.3120  0.1702
 1151POPI   C4B17400  17.404   9.482   7.780 -0.1487  0.1599  0.1104
 1152POPI    C117401   9.032  12.498   5.711  0.0973  0.3233 -0.0787
 1152POPI    C217402   8.888  12.349   5.369  0.0171 -0.1029  0.1340
 1152POPI    C317403   9.281  12.338   5.442  0.0469  0.0912  0.0104
 1152POPI   PO417404   8.850  12.778   5.765  0.2299 -0.0858  0.0250
 1152POPI   GL117405   8.874  12.914   6.167 -0.0169  0.0739  0.1804
 1152POPI   GL217406   9.196  12.701   6.137  0.0329 -0.0012 -0.2229
 1152POPI   C1A17407   9.014  13.321   6.350  0.1190 -0.0301  0.0318
 1152POPI   D2A17408   8.857  13.554   6.652  0.1611 -0.0165 -0.0303
 1152POPI   C3A17409   8.537  13.481   6.971  0.0210 -0.1149  0.1125
 1152POPI   C4A17410   8.260  13.408   7.288 -0.2050 -0.0339 -0.2333
 1152POPI   C1B17411   9.200  12.874   6.578  0.1798 -0.2606  0.0246
 1152POPI   C2B17412   9.228  13.229   6.852 -0.0432  0.0135 -0.0631
 1152POPI   C3B17413   9.271  13.544   7.133  0.1137 -0.1310 -0.2188
 1152POPI   C4B17414   9.425  13.685   7.644  0.2224 -0.1347 -0.2244
 1153POPI    C117415  14.123  16.311   5.104  0.0347  0.0305  0.0568
 1153POPI    C217416  14.272  16.000   5.306 -0.0100  0.0759  0.1602
 1153POPI    C317417  14.503  16.199   5.047  0.0228 -0.0344  0.1042
 1153POPI   PO417418  14.038  16.407   5.318 -0.5418  0.2512 -0.0910
 1153POPI   GL117419  13.937  16.109   5.647  0.0246 -0.1720 -0.1260
 1153POPI   GL217420  13.839  15.857   5.697 -0.1169  0.0554 -0.0309
 1153POPI   C1A17421  14.056  16.259   6.114  0.0195  0.1037  0.0052
 1153POPI   D2A17422  14.079  16.240   6.532 -0.0527 -0.0064  0.0704
 1153POPI   C3A17423  14.087  16.251   6.925 -0.1682  0.3064 -0.0401
 1153POPI   C4A17424  14.205  16.442   7.282  0.0640 -0.0094 -0.1678
 1153POPI   C1B17425  13.745  15.759   6.025 -0.2080  0.0124  0.2928
 1153POPI   C2B17426  13.761  15.867   6.430  0.0762  0.0762 -0.0970
 1153POPI   C3B17427  13.746  15.841   6.842 -0.2310 -0.0416 -0.2981
 1153POPI   C4B17428  13.847  15.966   7.322 -0.1386 -0.1711  0.0877
 1154POPI    C117429  10.568   0.678   5.252  0.2730  0.1289 -0.1367
 1154POPI    C217430  10.718   0.313   5.189 -0.0524 -0.0659  0.1777
 1154POPI    C317431  10.794   0.607   4.930  0.1593 -0.3707 -0.1153
 1154POPI   PO417432  10.533   0.634   5.610  0.2010  0.2078 -0.0449
 1154POPI   GL117433  10.785   0.625   6.075 -0.0375  0.1603  0.0979
 1154POPI   GL217434  10.955   0.341   6.213 -0.0452 -0.1232  0.0871
 1154POPI   C1A17435  10.852   0.903   6.439 -0.0770 -0.0464 -0.2789
 1154POPI   D2A17436  11.073   1.119   6.648 -0.4256  0.0539  0.0034
 1154POPI   C3A17437  10.980   1.202   7.092 -0.1039  0.3125  0.1031
 1154POPI   C4A17438  10.654   1.051   7.456 -0.2358  0.2905 -0.0370
 1154POPI   C1B17439  11.000   0.440   6.607  0.0652 -0.0379 -0.0271
 1154POPI   C2B17440  10.919   0.319   6.960  0.1543  0.0204 -0.0348
 1154POPI   C3B17441  10.980   0.125   7.495 -0.1123  0.0243  0.0809
 1154POPI   C4B17442  11.300   0.285   7.810  0.1497  0.0157  0.0309
 1155POPI    C117443  15.941  10.115   5.693  0.0682 -0.0963  0.0013
 1155POPI    C217444  15.795   9.745   5.652 -0.1415 -0.0028 -0.1085
 1155POPI    C317445  16.023   9.902   5.364  0.1243 -0.1235  0.0326
 1155POPI   PO417446  15.994  10.126   5.985 -0.0645 -0.4342  0.0944
 1155POPI   GL117447  15.837  10.336   6.445  0.4866  0.0969 -0.3418
 1155POPI   GL217448  16.050  10.357   6.427 -0.0441  0.0542  0.0292
 1155POPI   C1A17449  15.390  10.495   6.481 -0.1092 -0.1359 -0.2570
 1155POPI   D2A17450  15.272  10.533   6.882  0.3828 -0.1284 -0.1147
 1155POPI   C3A17451  15.301  10.537   7.371 -0.2434 -0.0695 -0.0820
 1155POPI   C4A17452  15.297  10.564   7.824 -0.1273 -0.0394 -0.0039
 1155POPI   C1B17453  16.024  10.310   6.889 -0.1355 -0.2722 -0.1794
 1155POPI   C2B17454  16.019  10.198   7.310  0.0606 -0.1415  0.1328
 1155POPI   C3B17455  15.990  10.194   7.717  0.0030  0.2671 -0.1697
 1155POPI   C4B17456  16.115   9.982   8.035  0.2864  0.1748  0.0004
 1156POPI    C117457   9.663   9.049   5.695 -0.1427  0.0080  0.1339
 1156POPI    C217458   9.632   9.373   5.462 -0.1269 -0.0956 -0.0136
 1156POPI    C317459   9.598   9.008   5.303  0.0529 -0.1715  0.1191
 1156POPI   PO417460   9.579   9.011   5.986  0.3070  0.0661  0.1417
 1156POPI   GL117461   9.664   8.904   6.430  0.0489  0.1055 -0.0465
 1156POPI   GL217462   9.844   9.011   6.506  0.1213 -0.0832  0.0822
 1156POPI   C1A17463   9.661   8.768   6.876 -0.4000  0.1232  0.2353
 1156POPI   D2A17464   9.947   8.692   7.142  0.2166 -0.2096  0.1634
 1156POPI   C3A17465   9.899   8.695   7.572 -0.1193  0.0313  0.3671
 1156POPI   C4A17466   9.873   8.373   7.898  0.2744 -0.1034 -0.1444
 1156POPI   C1B17467  10.036   9.245   6.860 -0.1469 -0.0278 -0.0706
 1156POPI   C2B17468  10.328   9.520   7.071  0.0126  0.0587  0.0983
 1156POPI   C3B17469  10.406   9.536   7.446 -0.0127  0.2151 -0.3187
 1156POPI   C4B17470  10.140   9.579   7.804 -0.2312  0.0490 -0.1213
 1157POPI    C117471   3.744   8.876   5.709 -0.1237 -0.0833 -0.1839
 1157POPI    C217472   3.684   8.880   6.104  0.1377  0.0629 -0.1431
 1157POPI    C317473   3.503   8.605   5.877  0.1970 -0.1917  0.1119
 1157POPI   PO417474   4.019   8.955   5.698  0.0561 -0.0516  0.2752
 1157POPI   GL117475   4.121   9.248   6.040 -0.1596 -0.3004  0.0360
 1157POPI   GL217476   4.266   8.946   6.095  0.0001  0.1255 -0.3209
 1157POPI   C1A17477   4.037   9.187   6.454  0.0580 -0.1082 -0.1069
 1157POPI   D2A17478   3.995   9.219   6.878 -0.1841 -0.1813 -0.0596
 1157POPI   C3A17479   4.240   9.377   7.195 -0.5523  0.0605 -0.1661
 1157POPI   C4A17480   4.278   9.586   7.499  0.0375  0.2785 -0.0505
 1157POPI   C1B17481   4.419   8.899   6.625  0.1903  0.1696  0.0142
 1157POPI   C2B17482   4.558   9.061   7.048  0.0999  0.1146 -0.2570
 1157POPI   C3B17483   4.623   9.250   7.461 -0.3051  0.3656  0.1938
 1157POPI   C4B17484   4.723   9.387   7.771 -0.1970 -0.3647  0.0118
 1158POPI    C117485   3.714   6.320   5.463 -0.1525  0.1194  0.1112
 1158POPI    C217486   3.572   6.433   5.107 -0.2910 -0.1725  0.0703
 1158POPI    C317487   3.857   6.153   5.129 -0.2899 -0.1626  0.1899
 1158POPI   PO417488   3.477   6.296   5.590 -0.0384  0.1325 -0.2671
 1158POPI   GL117489   3.358   6.395   5.960  0.2097  0.0560 -0.0717
 1158POPI   GL217490   3.038   6.297   5.907 -0.1076 -0.0594  0.0226
 1158POPI   C1A17491   3.540   6.321   6.386 -0.0423 -0.0775 -0.2945
 1158POPI   D2A17492   3.717   6.204   6.754  0.0989 -0.2326 -0.0970
 1158POPI   C3A17493   3.667   6.232   7.218 -0.2567  0.3884  0.1397
 1158POPI   C4A17494   3.788   6.263   7.676  0.1034 -0.0361 -0.0857
 1158POPI   C1B17495   3.024   6.380   6.381 -0.2218  0.0672 -0.0785
 1158POPI   C2B17496   3.136   6.296   6.754 -0.1356 -0.2583  0.1476
 1158POPI   C3B17497   3.188   6.282   7.213 -0.0364  0.0267  0.0636
 1158POPI   C4B17498   3.248   6.167   7.727 -0.1534 -0.0585  0.1782
 1159POPI    C117499   0.756   5.126   5.759  0.0825 -0.0758  0.0304
 1159POPI    C217500   0.525   4.967   5.474  0.0558 -0.2933  0.1714
 1159POPI    C317501   0.819   5.219   5.375 -0.1489 -0.1253 -0.0212
 1159POPI   PO417502   0.563   5.151   5.955  0.4350  0.0748 -0.1721
 1159POPI   GL117503   0.560   4.853   6.225 -0.0471 -0.2140  0.0888
 1159POPI   GL217504   0.874   4.805   6.298  0.2171  0.2758  0.0159
 1159POPI   C1A17505   0.415   4.952   6.623  0.1236  0.1375  0.0900
 1159POPI   D2A17506   0.208   4.867   6.938 -0.2098 -0.2827 -0.1758
 1159POPI   C3A17507   0.372   4.820   7.352  0.0638  0.1502  0.1908
 1159POPI   C4A17508   0.775   5.068   7.571  0.0643  0.2175  0.1830
 1159POPI   C1B17509   1.233   5.054   6.518  0.1338 -0.1670 -0.1601
 1159POPI   C2B17510   1.386   4.978   6.965 -0.0373 -0.2033 -0.0846
 1159POPI   C3B17511   1.504   4.697   7.180  0.1160  0.1604  0.0581
 1159POPI   C4B17512   1.588   4.241   7.269  0.0521  0.0492  0.2021
 1160POPI    C117513  13.173   5.913   5.736  0.0403 -0.0206  0.1026
 1160POPI    C217514  12.916   6.137   5.945 -0.0805 -0.2695  0.2246
 1160POPI    C317515  12.828   6.029   5.571 -0.0454 -0.1583  0.1837
 1160POPI   PO417516  13.174   5.697   5.975  0.1443  0.1827  0.0978
 1160POPI   GL117517  13.304   5.643   6.403  0.1063  0.1054 -0.4050
 1160POPI   GL217518  12.992   5.324   6.483 -0.3755 -0.3036  0.0494
 1160POPI   C1A17519  13.382   5.450   6.731  0.1273  0.2470 -0.1785
 1160POPI   D2A17520  13.441   5.294   7.131 -0.0034  0.1825  0.0770
 1160POPI   C3A17521  13.711   5.386   7.537  0.1215  0.2428  0.0141
 1160POPI   C4A17522  13.654   5.377   7.918 -0.1970 -0.0938 -0.1559
 1160POPI   C1B17523  12.974   5.153   6.961  0.1802  0.0517 -0.1639
 1160POPI   C2B17524  13.058   5.054   7.436 -0.1895 -0.1420  0.0336
 1160POPI   C3B17525  12.994   4.958   7.798 -0.0027 -0.0433 -0.3900
 1160POPI   C4B17526  13.139   4.752   8.224  0.0767  0.1307 -0.0819
 1161POPI    C117527   9.590   3.385   5.355  0.0988  0.0542  0.0509
 1161POPI    C217528   9.975   3.452   5.441  0.0733  0.3815 -0.0734
 1161POPI    C317529   9.831   3.550   5.081 -0.0131 -0.2056 -0.2090
 1161POPI   PO417530   9.473   3.477   5.603 -0.0476 -0.0430 -0.2474
 1161POPI   GL117531   9.459   3.727   5.896 -0.1508 -0.1494 -0.1071
 1161POPI   GL217532   9.795   3.851   5.895  0.1037 -0.0596 -0.0681
 1161POPI   C1A17533   9.321   3.926   6.260 -0.0571 -0.0714  0.2106
 1161POPI   D2A17534   9.611   4.128   6.548  0.0954  0.1096  0.0734
 1161POPI   C3A17535   9.656   4.138   6.940  0.2023  0.0038 -0.0044
 1161POPI   C4A17536   9.595   4.402   7.279  0.0593 -0.1307 -0.0613
 1161POPI   C1B17537   9.948   4.046   6.169  0.0433  0.1170  0.0196
 1161POPI   C2B17538  10.033   3.953   6.679 -0.0814  0.0713 -0.0842
 1161POPI   C3B17539  10.000   3.758   7.100  0.2376  0.1980  0.2054
 1161POPI   C4B17540   9.944   3.746   7.484 -0.0756 -0.1826 -0.3274
 1162POPI    C117541  14.766  12.366   5.652 -0.1731 -0.0141  0.0397
 1162POPI    C217542  14.752  12.718   5.463 -0.0180  0.0414  0.1303
 1162POPI    C317543  14.850  12.387   5.261  0.3109  0.1263  0.1450
 1162POPI   PO417544  14.563  12.295   5.761  0.0685  0.2466  0.1521
 1162POPI   GL117545  14.331  12.513   5.932 -0.2856  0.0343  0.1304
 1162POPI   GL217546  14.085  12.542   5.704  0.0342 -0.1258  0.0729
 1162POPI   C1A17547  14.168  12.521   6.304 -0.1522 -0.1095 -0.1612
 1162POPI   D2A17548  14.353  12.510   6.716 -0.1542  0.1374  0.0283
 1162POPI   C3A17549  14.407  12.443   7.166  0.3251  0.1505 -0.1593
 1162POPI   C4A17550  14.484  12.392   7.621 -0.0812 -0.0176  0.1626
 1162POPI   C1B17551  14.060  12.910   5.857  0.2924  0.1702 -0.4118
 1162POPI   C2B17552  13.994  13.003   6.278  0.1620  0.1400  0.0605
 1162POPI   C3B17553  14.010  13.030   6.751 -0.0868 -0.1467  0.2637
 1162POPI   C4B17554  13.976  12.621   7.028  0.2014  0.0523  0.0748
 1163POPI    C117555   3.072   7.905   5.778  0.3273 -0.2027 -0.2800
 1163POPI    C217556   2.947   8.171   5.506  0.0911  0.0968  0.1105
 1163POPI    C317557   3.331   8.165   5.617  0.1190  0.2031  0.0221
 1163POPI   PO417558   2.910   7.896   5.955 -0.0451  0.1562  0.1608
 1163POPI   GL117559   2.784   8.194   6.339 -0.1298  0.1913 -0.4496
 1163POPI   GL217560   2.678   7.887   6.355 -0.2021 -0.1202 -0.0835
 1163POPI   C1A17561   2.855   8.230   6.771 -0.3053 -0.0772 -0.0837
 1163POPI   D2A17562   2.908   8.120   7.233 -0.1961  0.0313  0.0899
 1163POPI   C3A17563   2.847   7.843   7.531 -0.1935  0.1494 -0.0106
 1163POPI   C4A17564   2.929   7.718   8.003 -0.0387  0.0007 -0.0090
 1163POPI   C1B17565   2.850   7.696   6.629 -0.1517  0.0481 -0.0083
 1163POPI   C2B17566   2.719   7.702   7.094  0.1343 -0.1470 -0.1410
 1163POPI   C3B17567   2.418   7.613   7.435 -0.0203  0.4757 -0.2760
 1163POPI   C4B17568   2.289   7.394   7.790  0.1970  0.2298 -0.1875
 1164POPI    C117569   3.721  14.503   5.312 -0.1282  0.1136 -0.2035
 1164POPI    C217570   3.558  14.162   5.181  0.0943 -0.0204 -0.1360
 1164POPI    C317571   3.704  14.428   4.919  0.1007 -0.0676 -0.1805
 1164POPI   PO417572   3.837  14.398   5.597  0.0979 -0.1721  0.1391
 1164POPI   GL117573   3.850  14.466   6.075 -0.0081 -0.1388  0.1588
 1164POPI   GL217574   3.966  14.196   6.294 -0.1247 -0.1205  0.2155
 1164POPI   C1A17575   3.727  14.863   6.243 -0.3893  0.0263  0.1003
 1164POPI   D2A17576   3.755  15.190   6.485 -0.1284  0.1642  0.0955
 1164POPI   C3A17577   3.898  15.287   6.905  0.0782 -0.2128 -0.1223
 1164POPI   C4A17578   3.826  15.421   7.453 -0.0995 -0.4015 -0.2036
 1164POPI   C1B17579   4.003  14.252   6.769  0.2442  0.0954  0.2353
 1164POPI   C2B17580   3.797  14.283   7.096  0.1703  0.0652 -0.1466
 1164POPI   C3B17581   3.747  14.211   7.580  0.1731 -0.3121 -0.1340
 1164POPI   C4B17582   3.598  14.167   7.910  0.2182  0.1362 -0.2906
 1165POPI    C117583   7.689   8.736   5.736 -0.2828  0.1251  0.1715
 1165POPI    C217584   7.560   9.020   5.485 -0.0707 -0.0277 -0.1174
 1165POPI    C317585   7.819   8.743   5.358  0.0287 -0.1192  0.2693
 1165POPI   PO417586   7.399   8.766   5.868 -0.0696 -0.2196 -0.3990
 1165POPI   GL117587   7.289   8.734   6.305 -0.0098 -0.1461  0.3059
 1165POPI   GL217588   7.567   8.592   6.303  0.2118  0.0763  0.0300
 1165POPI   C1A17589   7.183   8.712   6.729  0.0228  0.5105 -0.0227
 1165POPI   D2A17590   6.942   8.977   7.043 -0.0861 -0.1171  0.0766
 1165POPI   C3A17591   7.024   8.941   7.482  0.0319 -0.0192  0.0876
 1165POPI   C4A17592   7.196   8.804   7.905  0.0913 -0.0069  0.1134
 1165POPI   C1B17593   7.758   8.764   6.602 -0.1623  0.0405  0.2050
 1165POPI   C2B17594   7.612   8.814   7.018 -0.1943 -0.0588 -0.2009
 1165POPI   C3B17595   7.670   8.534   7.410  0.2373 -0.0961 -0.2337
 1165POPI   C4B17596   7.588   8.490   7.815 -0.0219  0.0871 -0.2009
 1166POPI    C117597   4.869   0.239   5.549  0.0681  0.0159 -0.0305
 1166POPI    C217598   5.034   0.180   5.189 -0.1137 -0.2437 -0.0743
 1166POPI    C317599   4.668   0.037   5.267 -0.1911  0.0531  0.1239
 1166POPI   PO417600   5.142   0.191   5.687  0.0054 -0.0395  0.1820
 1166POPI   GL117601   5.147  -0.193   5.933 -0.2611 -0.1013  0.3994
 1166POPI   GL217602   5.163   0.042   6.162 -0.1412 -0.1864 -0.0518
 1166POPI   C1A17603   5.171  -0.640   6.058  0.1866  0.3403 -0.0627
 1166POPI   D2A17604   5.353  -0.968   6.325 -0.1607 -0.2167 -0.0414
 1166POPI   C3A17605   5.162  -1.031   6.606  0.2517  0.3620  0.1056
 1166POPI   C4A17606   5.241  -1.004   6.919 -0.0151 -0.2669 -0.0094
 1166POPI   C1B17607   4.789  -0.223   6.368 -0.0305  0.1785 -0.0677
 1166POPI   C2B17608   4.705  -0.257   6.730  0.1993 -0.2385 -0.0062
 1166POPI   C3B17609   4.480  -0.535   7.039 -0.1496 -0.3561  0.1713
 1166POPI   C4B17610   4.451  -0.432   7.498 -0.2403  0.0344 -0.0185
 1167POPI    C117611   0.874   0.835   5.138  0.0553 -0.0604 -0.0630
 1167POPI    C217612   1.223   0.701   4.994  0.1337 -0.0782  0.1412
 1167POPI    C317613   0.959   0.444   5.149 -0.0095 -0.0754 -0.0947
 1167POPI   PO417614   0.888   1.045   5.316  0.1700 -0.0423 -0.0797
 1167POPI   GL117615   1.220   1.206   5.571 -0.0138 -0.1442 -0.1527
 1167POPI   GL217616   1.116   1.386   5.765  0.2417  0.1162 -0.1053
 1167POPI   C1A17617   1.315   0.908   5.834 -0.0782  0.1653 -0.1597
 1167POPI   D2A17618   1.446   0.778   6.169 -0.1973  0.1487 -0.1880
 1167POPI   C3A17619   1.273   0.947   6.491 -0.3158 -0.0101  0.0042
 1167POPI   C4A17620   0.981   0.838   6.859 -0.1316  0.2491 -0.0182
 1167POPI   C1B17621   1.118   1.384   6.199 -0.1829  0.0393  0.0574
 1167POPI   C2B17622   1.088   1.422   6.547 -0.2237 -0.0223  0.0936
 1167POPI   C3B17623   1.244   1.317   6.907  0.2683 -0.1023 -0.0167
 1167POPI   C4B17624   1.234   1.372   7.346  0.0104  0.0960  0.2660
 1168POPI    C117625  17.063   6.044   5.526 -0.2211  0.1273 -0.2104
 1168POPI    C217626  16.745   5.826   5.420 -0.1191 -0.0022 -0.2529
 1168POPI    C317627  17.041   5.887   5.159  0.0437 -0.1591 -0.1080
 1168POPI   PO417628  17.171   5.901   5.726 -0.0007  0.0465  0.0690
 1168POPI   GL117629  17.318   5.857   6.143  0.1108  0.0044  0.1204
 1168POPI   GL217630  16.969   5.856   6.180 -0.0432  0.1098 -0.0915
 1168POPI   C1A17631  17.379   5.810   6.641 -0.0743 -0.1650  0.3243
 1168POPI   D2A17632  17.369   5.492   6.924  0.3131 -0.0167  0.3877
 1168POPI   C3A17633  17.334   5.442   7.311 -0.0444 -0.1392  0.0305
 1168POPI   C4A17634  17.266   5.333   7.763  0.2040  0.0571 -0.0718
 1168POPI   C1B17635  16.948   5.531   6.592 -0.1060 -0.2477  0.0529
 1168POPI   C2B17636  16.861   5.242   7.078  0.1380  0.1063 -0.1034
 1168POPI   C3B17637  16.941   5.130   7.446  0.1138  0.1102  0.1501
 1168POPI   C4B17638  16.870   5.063   7.861  0.2632  0.1232  0.1752
 1169POPI    C117639   5.348   1.827   5.159 -0.0748 -0.2290 -0.2337
 1169POPI    C217640   5.251   2.148   4.940  0.1695  0.1061  0.1355
 1169POPI    C317641   5.445   1.841   4.771 -0.0186  0.1726 -0.2092
 1169POPI   PO417642   5.274   1.954   5.419 -0.0425 -0.5038 -0.0075
 1169POPI   GL117643   5.339   2.343   5.660  0.0618 -0.2491  0.0760
 1169POPI   GL217644   5.554   2.485   5.710 -0.2139 -0.2064 -0.1933
 1169POPI   C1A17645   5.401   2.223   6.201  0.2523  0.1740 -0.2074
 1169POPI   D2A17646   5.756   2.141   6.432  0.0331 -0.1161  0.3760
 1169POPI   C3A17647   5.657   2.172   6.862 -0.1408  0.0501  0.0988
 1169POPI   C4A17648   5.666   2.128   7.272  0.2228  0.3464 -0.0933
 1169POPI   C1B17649   5.633   2.665   6.105 -0.1984 -0.0307  0.1178
 1169POPI   C2B17650   5.504   2.556   6.574  0.1049 -0.0932 -0.0853
 1169POPI   C3B17651   5.450   2.594   7.019 -0.4384 -0.2046 -0.0296
 1169POPI   C4B17652   5.440   2.678   7.417 -0.1074 -0.1549  0.2146
 1170POPI    C117653   0.802   5.659   5.685  0.1735 -0.0052 -0.1392
 1170POPI    C217654   0.446   5.672   5.866  0.2430 -0.0294  0.0005
 1170POPI    C317655   0.530   5.930   5.572  0.1243  0.0008 -0.0075
 1170POPI   PO417656   0.949   5.552   5.877  0.2978  0.0077 -0.1205
 1170POPI   GL117657   0.947   5.392   6.241 -0.0543  0.0390  0.1955
 1170POPI   GL217658   1.177   5.593   6.297  0.0445  0.2023 -0.0703
 1170POPI   C1A17659   0.800   5.251   6.603  0.1421 -0.1754  0.0844
 1170POPI   D2A17660   0.701   5.128   7.046  0.2556 -0.1328 -0.0872
 1170POPI   C3A17661   0.895   4.713   7.228  0.1317 -0.2422 -0.0034
 1170POPI   C4A17662   1.078   4.585   7.596  0.0992 -0.1513 -0.1815
 1170POPI   C1B17663   1.296   5.482   6.704  0.3206  0.0711  0.2415
 1170POPI   C2B17664   1.593   5.422   7.080  0.0473 -0.2967 -0.3752
 1170POPI   C3B17665   1.567   5.516   7.544 -0.3044  0.1754 -0.4630
 1170POPI   C4B17666   1.634   5.583   7.918  0.1523  0.1153 -0.2068
 1171POPI    C117667   2.775   9.919   5.904 -0.1125 -0.0764  0.0837
 1171POPI    C217668   2.850   9.879   5.513 -0.1050  0.0911  0.0673
 1171POPI    C317669   3.149   9.958   5.767 -0.1291  0.1119  0.0894
 1171POPI   PO417670   2.618   9.954   5.969  0.1318  0.0750  0.1855
 1171POPI   GL117671   2.426  10.082   6.384 -0.2595  0.1971  0.1059
 1171POPI   GL217672   2.589  10.307   6.373  0.0082 -0.3733 -0.1743
 1171POPI   C1A17673   2.490  10.063   6.807 -0.2032 -0.2813 -0.0277
 1171POPI   D2A17674   2.582  10.044   7.194  0.1629 -0.1999 -0.0038
 1171POPI   C3A17675   2.717   9.814   7.510 -0.0747  0.3135  0.0366
 1171POPI   C4A17676   2.795   9.596   7.911 -0.3774  0.0426 -0.1127
 1171POPI   C1B17677   2.870  10.361   6.704 -0.2148  0.1952  0.0953
 1171POPI   C2B17678   2.762  10.469   7.109 -0.1546 -0.1598  0.5137
 1171POPI   C3B17679   2.796  10.356   7.510 -0.1081  0.0971  0.0424
 1171POPI   C4B17680   2.504  10.123   7.860  0.1233 -0.0888 -0.0017
 1172POPI    C117681   7.782   5.255   5.505 -0.0878  0.0888 -0.1574
 1172POPI    C217682   7.484   4.994   5.454  0.0909 -0.0940 -0.2832
 1172POPI    C317683   7.557   5.271   5.175 -0.0152  0.0080 -0.2111
 1172POPI   PO417684   7.812   5.233   5.699 -0.1013  0.1094 -0.0526
 1172POPI   GL117685   7.930   5.278   6.034  0.0323 -0.1426  0.1783
 1172POPI   GL217686   8.086   5.245   6.253  0.2288  0.0094  0.0128
 1172POPI   C1A17687   7.617   5.138   6.336  0.0134 -0.1487  0.2671
 1172POPI   D2A17688   7.633   4.933   6.808 -0.0960  0.0057 -0.1788
 1172POPI   C3A17689   7.238   4.896   7.026  0.2086 -0.0429  0.1792
 1172POPI   C4A17690   7.189   4.571   7.356 -0.0221  0.0625 -0.0253
 1172POPI   C1B17691   8.145   5.082   6.638  0.0339  0.3164  0.0054
 1172POPI   C2B17692   8.131   4.919   7.067  0.1090  0.3201  0.0290
 1172POPI   C3B17693   7.989   4.755   7.463 -0.1305 -0.0431  0.2361
 1172POPI   C4B17694   7.617   4.401   7.573  0.0659  0.1143 -0.3452
 1173POPI    C117695  14.638   8.959   5.659  0.0132 -0.0816 -0.1202
 1173POPI    C217696  14.779   8.586   5.631 -0.0398 -0.1178  0.0793
 1173POPI    C317697  14.499   8.714   5.376  0.1246 -0.1473 -0.1187
 1173POPI   PO417698  14.593   8.945   5.889  0.2358 -0.1739  0.1306
 1173POPI   GL117699  14.618   8.680   6.156 -0.0968  0.0145 -0.0545
 1173POPI   GL217700  14.691   8.352   6.287  0.2051 -0.0812 -0.0440
 1173POPI   C1A17701  14.552   8.859   6.670  0.1238  0.2510 -0.0349
 1173POPI   D2A17702  14.592   8.943   7.092  0.2361 -0.2960  0.0885
 1173POPI   C3A17703  14.658   9.150   7.413 -0.0370  0.2094  0.0575
 1173POPI   C4A17704  14.632   9.244   7.843  0.3564  0.0724 -0.1172
 1173POPI   C1B17705  14.744   8.225   6.696 -0.0548  0.0120 -0.1196
 1173POPI   C2B17706  14.791   8.128   7.028  0.0688 -0.0435 -0.1689
 1173POPI   C3B17707  14.675   8.281   7.533  0.2116  0.0414 -0.0145
 1173POPI   C4B17708  14.591   8.336   7.979 -0.1938  0.2392  0.1227
 1174POPI    C117709  14.947  10.183   5.476 -0.2677 -0.1344 -0.1210
 1174POPI    C217710  15.169  10.453   5.671 -0.2936 -0.0507 -0.2064
 1174POPI    C317711  14.887  10.574   5.415 -0.3351 -0.1587 -0.2122
 1174POPI   PO417712  14.882   9.954   5.733  0.2463  0.0835  0.0266
 1174POPI   GL117713  15.048   9.795   6.189  0.3041 -0.3418 -0.3035
 1174POPI   GL217714  15.045  10.193   6.139 -0.0913 -0.2101  0.2829
 1174POPI   C1A17715  14.988   9.668   6.565 -0.0669  0.3842 -0.0955
 1174POPI   D2A17716  14.820   9.408   6.914  0.0778  0.1885 -0.1489
 1174POPI   C3A17717  14.811   9.586   7.159  0.1343  0.3532 -0.0741
 1174POPI   C4A17718  14.831   9.632   7.579  0.0404  0.1235 -0.0723
 1174POPI   C1B17719  14.922  10.210   6.501  0.1261 -0.0922  0.0070
 1174POPI   C2B17720  15.002  10.028   6.932 -0.2251 -0.0325  0.0298
 1174POPI   C3B17721  15.061  10.029   7.319 -0.2096  0.0191  0.0721
 1174POPI   C4B17722  15.020  10.097   7.852  0.0797 -0.1047  0.1871
 1175POPI    C117723  13.421   2.385   5.335 -0.1607  0.2977 -0.0212
 1175POPI    C217724  13.154   2.300   5.050  0.0546 -0.0190 -0.1339
 1175POPI    C317725  13.545   2.303   4.964  0.1032  0.2101  0.0832
 1175POPI   PO417726  13.346   2.235   5.565  0.0342  0.0711  0.2540
 1175POPI   GL117727  13.327   1.860   5.851 -0.1962 -0.0701  0.1230
 1175POPI   GL217728  13.566   1.755   5.968  0.0422 -0.2355  0.1641
 1175POPI   C1A17729  13.083   1.882   6.189  0.0973  0.1590  0.2426
 1175POPI   D2A17730  13.161   1.745   6.630 -0.2286 -0.1009 -0.2027
 1175POPI   C3A17731  13.008   1.467   6.949 -0.0261  0.0437  0.1058
 1175POPI   C4A17732  13.010   1.368   7.307 -0.0264 -0.0023 -0.2220
 1175POPI   C1B17733  13.524   1.716   6.364  0.2285  0.1223 -0.3072
 1175POPI   C2B17734  13.672   1.612   6.794  0.1182 -0.2604 -0.2691
 1175POPI   C3B17735  13.544   1.526   7.145  0.2540  0.0792  0.0359
 1175POPI   C4B17736  13.590   1.597   7.621  0.1088 -0.1719 -0.1288
 1176POPI    C117737   7.583  16.753   5.700  0.2310 -0.1069 -0.0927
 1176POPI    C217738   7.421  17.068   5.885  0.0204 -0.4144  0.2612
 1176POPI    C317739   7.323  16.987   5.506  0.0005 -0.1156  0.1993
 1176POPI   PO417740   7.564  16.525   5.944  0.2380 -0.0171  0.3073
 1176POPI   GL117741   7.415  16.407   6.335  0.0073 -0.2464  0.2787
 1176POPI   GL217742   7.326  16.716   6.372  0.0696  0.0033 -0.1786
 1176POPI   C1A17743   7.752  16.415   6.694 -0.0504 -0.0406 -0.0457
 1176POPI   D2A17744   7.696  16.286   7.127 -0.3787 -0.0750  0.1211
 1176POPI   C3A17745   7.563  15.871   7.112  0.1290  0.0730  0.0172
 1176POPI   C4A17746   7.261  15.663   7.231  0.1809  0.1398 -0.1595
 1176POPI   C1B17747   7.418  16.728   6.815  0.0908  0.2770  0.3449
 1176POPI   C2B17748   7.381  16.643   7.214 -0.1035  0.1291 -0.0870
 1176POPI   C3B17749   7.610  16.636   7.549  0.2609 -0.1738 -0.1375
 1176POPI   C4B17750   7.688  16.289   7.813 -0.3921 -0.0356  0.2040
 1177POPI    C117751  10.940   7.347   5.471  0.0790 -0.0858  0.3337
 1177POPI    C217752  10.965   7.713   5.631 -0.0292  0.0825 -0.0250
 1177POPI    C317753  11.273   7.562   5.426  0.0530 -0.0712  0.2076
 1177POPI   PO417754  10.860   7.200   5.749  0.0980 -0.0937 -0.0847
 1177POPI   GL117755  10.812   7.294   6.143 -0.0842 -0.1171 -0.2461
 1177POPI   GL217756  10.980   7.244   6.393  0.0302 -0.2151 -0.1923
 1177POPI   C1A17757  10.506   7.062   6.388 -0.1323  0.1771  0.1306
 1177POPI   D2A17758  10.335   7.098   6.713 -0.0651  0.1096 -0.1541
 1177POPI   C3A17759  10.132   7.456   6.880  0.2558  0.3047 -0.0029
 1177POPI   C4A17760  10.127   7.453   7.351  0.0617  0.1259 -0.0553
 1177POPI   C1B17761  10.796   7.218   6.857 -0.3475 -0.1052 -0.2188
 1177POPI   C2B17762  10.931   7.314   7.201  0.3088 -0.0281  0.2181
 1177POPI   C3B17763  10.808   7.323   7.548  0.1604 -0.0350  0.0362
 1177POPI   C4B17764  10.476   7.244   7.719  0.1495  0.1838  0.1142
 1178POPI    C117765  11.769  11.206   5.690  0.0757 -0.0364 -0.0409
 1178POPI    C217766  11.705  11.599   5.657 -0.0190 -0.0333  0.1594
 1178POPI    C317767  11.942  11.459   5.947  0.0918 -0.1182  0.0293
 1178POPI   PO417768  11.499  11.106   5.757 -0.1740 -0.2433 -0.3487
 1178POPI   GL117769  11.163  11.070   6.041 -0.0471  0.1626 -0.0057
 1178POPI   GL217770  11.292  10.754   6.067 -0.2621 -0.2927  0.0950
 1178POPI   C1A17771  10.807  11.293   6.200  0.0863 -0.1006 -0.0879
 1178POPI   D2A17772  10.676  11.463   6.698 -0.0321 -0.3573  0.0938
 1178POPI   C3A17773  10.793  11.559   7.073  0.2572 -0.0213 -0.2012
 1178POPI   C4A17774  10.746  11.583   7.470 -0.1107 -0.3941  0.2903
 1178POPI   C1B17775  11.274  10.439   6.416  0.0990 -0.3418 -0.1137
 1178POPI   C2B17776  11.462  10.340   6.793 -0.0717  0.0069 -0.0649
 1178POPI   C3B17777  11.503  10.316   7.177  0.2979 -0.2102 -0.0655
 1178POPI   C4B17778  11.463  10.436   7.667 -0.0933 -0.0312 -0.0448
 1179POPI    C117779   6.151  16.748   5.626 -0.0913  0.1059 -0.0010
 1179POPI    C217780   6.354  17.024   5.419 -0.1107  0.0028 -0.1594
 1179POPI    C317781   6.359  16.642   5.301  0.0352 -0.0914  0.1418
 1179POPI   PO417782   5.927  16.801   5.704  0.2339 -0.0438 -0.3206
 1179POPI   GL117783   5.685  16.762   6.176  0.0053  0.0510  0.1342
 1179POPI   GL217784   5.911  16.905   6.169 -0.0157 -0.3126 -0.1430
 1179POPI   C1A17785   5.658  16.729   6.637  0.3508 -0.0764 -0.2701
 1179POPI   D2A17786   5.656  16.526   6.966  0.2888  0.2193  0.0687
 1179POPI   C3A17787   5.630  16.327   7.375  0.1908 -0.1419  0.2358
 1179POPI   C4A17788   5.744  16.109   7.697 -0.1409  0.3932 -0.0206
 1179POPI   C1B17789   5.894  17.125   6.549  0.0764 -0.0636  0.0906
 1179POPI   C2B17790   5.930  16.937   7.037  0.0117 -0.3515 -0.0959
 1179POPI   C3B17791   6.054  16.672   7.306 -0.1679  0.2792 -0.2228
 1179POPI   C4B17792   6.057  16.478   7.688 -0.1942  0.1661 -0.1319
 1180POPI    C117793   8.615  14.765   5.814  0.0843 -0.0021 -0.1183
 1180POPI    C217794   8.362  14.588   6.068  0.0725 -0.0690 -0.1762
 1180POPI    C317795   8.364  14.483   5.682  0.1895 -0.0699 -0.1758
 1180POPI   PO417796   8.810  14.855   5.959  0.0191  0.0032  0.0093
 1180POPI   GL117797   8.908  14.753   6.374 -0.2117 -0.1640 -0.1497
 1180POPI   GL217798   8.635  14.860   6.473 -0.3478  0.0364 -0.0554
 1180POPI   C1A17799   8.927  14.482   6.706 -0.1605 -0.0022  0.0906
 1180POPI   D2A17800   8.814  14.345   7.089  0.0919  0.0251  0.1535
 1180POPI   C3A17801   8.762  14.307   7.628 -0.0726  0.0447 -0.2960
 1180POPI   C4A17802   8.724  14.249   8.123 -0.2054  0.0058 -0.2087
 1180POPI   C1B17803   8.634  14.880   6.964  0.1321 -0.0727  0.0772
 1180POPI   C2B17804   8.714  14.748   7.402  0.1337 -0.0147  0.0872
 1180POPI   C3B17805   8.664  14.784   7.783 -0.1412 -0.2145 -0.3036
 1180POPI   C4B17806   8.890  14.893   8.085  0.2882  0.1802  0.3936
 1181POPI    C117807   5.970   9.582   5.713  0.1725  0.3720  0.1905
 1181POPI    C217808   6.281   9.332   5.694 -0.0334  0.1299 -0.0603
 1181POPI    C317809   6.180   9.552   5.375 -0.1535  0.1651  0.0011
 1181POPI   PO417810   6.016   9.608   5.970  0.0458 -0.0294  0.0555
 1181POPI   GL117811   5.809   9.455   6.343 -0.0417 -0.0442  0.1355
 1181POPI   GL217812   5.922   9.225   6.539 -0.0934  0.0474 -0.2359
 1181POPI   C1A17813   5.829   9.746   6.727 -0.0621 -0.1166  0.1163
 1181POPI   D2A17814   5.844   9.758   7.180  0.2226  0.0626  0.2818
 1181POPI   C3A17815   5.657   9.554   7.585 -0.0265  0.1059  0.2219
 1181POPI   C4A17816   5.429   9.198   7.819  0.0753 -0.0586 -0.1051
 1181POPI   C1B17817   5.905   9.298   6.986  0.1731 -0.0688 -0.0210
 1181POPI   C2B17818   6.035   9.182   7.392  0.0689 -0.1796 -0.2769
 1181POPI   C3B17819   6.010   9.087   7.810 -0.1140  0.3494 -0.1178
 1181POPI   C4B17820   5.750   8.989   8.096 -0.0125 -0.2262  0.1592
 1182POPI    C117821  17.888   7.452   5.854 -0.2200 -0.2377 -0.2027
 1182POPI    C217822  17.927   7.789   5.642 -0.0218 -0.1239  0.0090
 1182POPI    C317823  17.581   7.588   5.637 -0.1275  0.0583 -0.1531
 1182POPI   PO417824  17.977   7.454   6.078  0.0064  0.2561  0.1773
 1182POPI   GL117825  18.228   7.237   6.450 -0.1432 -0.0883  0.0924
 1182POPI   GL217826  18.145   6.898   6.315 -0.0758 -0.1585 -0.2605
 1182POPI   C1A17827  18.404   7.280   6.825  0.0785  0.0400  0.0475
 1182POPI   D2A17828  18.700   7.214   7.219 -0.1367 -0.1688  0.1364
 1182POPI   C3A17829  18.416   7.083   7.471 -0.2339 -0.2184  0.0452
 1182POPI   C4A17830  18.496   6.929   7.852  0.2259 -0.0733 -0.0784
 1182POPI   C1B17831  18.348   6.751   6.689  0.3193  0.0948  0.1030
 1182POPI   C2B17832  18.573   6.750   7.070  0.0968 -0.0782 -0.1409
 1182POPI   C3B17833  18.637   6.496   7.501  0.2551 -0.2059  0.1052
 1182POPI   C4B17834  18.573   6.361   7.948 -0.0198 -0.2438 -0.1393
 1183POPI    C117835   8.006   9.499   5.694 -0.0757 -0.2269 -0.0344
 1183POPI    C217836   7.964   9.884   5.593  0.1200 -0.1880  0.0275
 1183POPI    C317837   7.755   9.602   5.400  0.0842 -0.0647 -0.1160
 1183POPI   PO417838   8.006   9.523   5.985 -0.0427 -0.0280 -0.0307
 1183POPI   GL117839   7.971   9.629   6.403 -0.3036  0.0222 -0.0562
 1183POPI   GL217840   7.811   9.426   6.526 -0.0663  0.4019  0.1482
 1183POPI   C1A17841   8.131  10.023   6.532 -0.0538 -0.1286 -0.2650
 1183POPI   D2A17842   8.156  10.166   6.990 -0.1706  0.1396 -0.0755
 1183POPI   C3A17843   8.290  10.126   7.261  0.0800 -0.1269  0.0083
 1183POPI   C4A17844   8.187  10.100   7.666 -0.1624  0.2794 -0.1322
 1183POPI   C1B17845   7.893   9.217   6.830 -0.0745  0.1278 -0.2003
 1183POPI   C2B17846   7.871   9.153   7.309 -0.1952 -0.0507 -0.3151
 1183POPI   C3B17847   7.661   9.009   7.690 -0.0618 -0.1652  0.1096
 1183POPI   C4B17848   7.725   8.807   8.134 -0.1214 -0.0901 -0.1483
 1184POPI    C117849   8.880  13.257   5.188 -0.2012  0.1210 -0.0342
 1184POPI    C217850   8.494  13.185   5.111 -0.2151  0.0190  0.1252
 1184POPI    C317851   8.777  13.056   4.858 -0.2854  0.1045  0.0019
 1184POPI   PO417852   8.805  13.245   5.505 -0.1037  0.2086 -0.2198
 1184POPI   GL117853   8.732  13.341   5.957 -0.0579  0.3708 -0.2247
 1184POPI   GL217854   8.791  13.675   6.063 -0.2977  0.0375 -0.1007
 1184POPI   C1A17855   8.463  13.380   6.399 -0.0152 -0.0880  0.2620
 1184POPI   D2A17856   8.216  13.687   6.658 -0.0021 -0.1541 -0.4289
 1184POPI   C3A17857   7.967  13.477   6.915 -0.0444  0.0589 -0.0173
 1184POPI   C4A17858   7.768  13.553   7.339  0.0609  0.0149  0.2440
 1184POPI   C1B17859   8.614  13.887   6.314  0.2986  0.1212  0.2909
 1184POPI   C2B17860   8.706  14.024   6.712 -0.1583 -0.2367 -0.1241
 1184POPI   C3B17861   8.820  13.864   7.162  0.0427 -0.0545 -0.1764
 1184POPI   C4B17862   9.041  13.930   7.504  0.0833  0.0320  0.1251
 1185POPI    C117863   3.051  12.636   5.384  0.1354 -0.0142 -0.0081
 1185POPI    C217864   2.890  13.000   5.431  0.1894  0.0103 -0.0123
 1185POPI    C317865   3.096  12.914   5.100  0.1433 -0.0368 -0.0289
 1185POPI   PO417866   2.956  12.530   5.582 -0.1470  0.0277  0.0299
 1185POPI   GL117867   2.951  12.768   5.896 -0.0434  0.0925 -0.1481
 1185POPI   GL217868   3.300  12.838   5.864  0.0964  0.1433 -0.1526
 1185POPI   C1A17869   2.731  12.774   6.267  0.2111  0.3610 -0.0563
 1185POPI   D2A17870   2.748  12.733   6.798 -0.3061 -0.0374 -0.2113
 1185POPI   C3A17871   2.612  12.820   7.118  0.0210 -0.2383 -0.1914
 1185POPI   C4A17872   2.579  12.924   7.583 -0.0201  0.0424  0.0454
 1185POPI   C1B17873   3.270  12.956   6.242  0.4056  0.1867  0.0336
 1185POPI   C2B17874   3.148  13.013   6.612  0.0069  0.3234  0.1003
 1185POPI   C3B17875   3.182  12.996   7.068 -0.2512 -0.2378  0.0508
 1185POPI   C4B17876   3.062  13.141   7.543 -0.0311  0.1532  0.0570
 1186POPI    C117877  11.010  12.877   5.381 -0.2220 -0.0844  0.0768
 1186POPI    C217878  10.764  12.764   5.087  0.1389 -0.0912 -0.2302
 1186POPI    C317879  11.090  12.547   5.170  0.3484  0.2224 -0.2137
 1186POPI   PO417880  10.881  12.830   5.641  0.3537 -0.0740  0.2002
 1186POPI   GL117881  10.998  12.772   6.051  0.0334  0.0992  0.2216
 1186POPI   GL217882  11.249  13.016   5.999 -0.0996 -0.0354  0.1332
 1186POPI   C1A17883  11.169  12.800   6.442 -0.0864 -0.0287 -0.0087
 1186POPI   D2A17884  11.316  12.722   6.853  0.0486 -0.0517 -0.1547
 1186POPI   C3A17885  11.292  12.400   7.121  0.1066  0.1341 -0.0977
 1186POPI   C4A17886  11.319  12.220   7.475 -0.1786 -0.2499 -0.1826
 1186POPI   C1B17887  10.983  13.242   6.220  0.0835  0.1670 -0.1046
 1186POPI   C2B17888  10.981  13.222   6.701  0.0316 -0.0387 -0.0767
 1186POPI   C3B17889  11.051  13.506   7.104  0.2230 -0.3691 -0.2376
 1186POPI   C4B17890  11.363  13.805   7.182  0.0479 -0.1500 -0.1529
 1187POPI    C117891   7.981  16.487   5.554 -0.1182  0.2840 -0.2093
 1187POPI    C217892   7.849  16.119   5.469  0.1979  0.1227 -0.0226
 1187POPI    C317893   7.624  16.438   5.381 -0.1187 -0.1180 -0.1049
 1187POPI   PO417894   8.160  16.406   5.805  0.1242 -0.0439  0.3273
 1187POPI   GL117895   8.030  16.377   6.192 -0.0561  0.0974 -0.1628
 1187POPI   GL217896   7.838  16.125   6.267  0.2103 -0.1900 -0.2258
 1187POPI   C1A17897   8.234  16.525   6.557 -0.2198  0.1494  0.2298
 1187POPI   D2A17898   8.201  16.488   6.994 -0.0040 -0.0291 -0.1869
 1187POPI   C3A17899   8.522  16.642   7.337  0.0639  0.3142  0.1405
 1187POPI   C4A17900   8.625  16.609   7.781  0.0941 -0.0662  0.0197
 1187POPI   C1B17901   8.104  16.081   6.713  0.0344 -0.2005 -0.0815
 1187POPI   C2B17902   8.132  15.950   7.131  0.0289 -0.2446 -0.0131
 1187POPI   C3B17903   7.903  15.846   7.504 -0.0045  0.0838  0.3268
 1187POPI   C4B17904   7.525  15.696   7.659 -0.0517  0.1693  0.1731
 1188POPI    C117905  14.951   6.929   5.615  0.0415 -0.0400  0.1128
 1188POPI    C217906  14.846   7.305   5.527  0.1319 -0.0322  0.0371
 1188POPI    C317907  15.161   7.137   5.345  0.0691 -0.1573  0.0429
 1188POPI   PO417908  14.965   6.985   5.890 -0.0752  0.0968 -0.2128
 1188POPI   GL117909  14.914   7.094   6.361  0.0447 -0.0066 -0.1933
 1188POPI   GL217910  14.847   7.480   6.448 -0.2107 -0.2065 -0.0850
 1188POPI   C1A17911  14.873   7.042   6.810  0.1038 -0.3589  0.1206
 1188POPI   D2A17912  15.014   6.679   7.092  0.2122  0.1339  0.0384
 1188POPI   C3A17913  15.104   6.875   7.613 -0.1382  0.0115 -0.2163
 1188POPI   C4A17914  15.101   7.146   8.044  0.1385 -0.2586  0.3587
 1188POPI   C1B17915  15.212   7.365   6.703 -0.5106 -0.1357 -0.0651
 1188POPI   C2B17916  15.288   7.108   7.151  0.1174 -0.1953  0.1550
 1188POPI   C3B17917  15.594   7.018   7.503  0.0543  0.3560 -0.0208
 1188POPI   C4B17918  15.529   6.897   7.925 -0.1938 -0.2197 -0.0677
 1189POPI    C117919  13.982   6.071   5.795 -0.0090 -0.1247  0.0509
 1189POPI    C217920  13.675   5.835   5.697 -0.0359 -0.0654 -0.0081
 1189POPI    C317921  14.008   5.831   5.476 -0.0522 -0.0178 -0.0337
 1189POPI   PO417922  13.972   6.051   6.083  0.1119  0.1104  0.2014
 1189POPI   GL117923  14.178   5.753   6.341  0.0326 -0.0596 -0.1291
 1189POPI   GL217924  13.884   5.836   6.500 -0.0354 -0.0160 -0.0550
 1189POPI   C1A17925  14.275   5.950   6.779 -0.2611 -0.0360 -0.0363
 1189POPI   D2A17926  14.361   6.018   7.166 -0.0401  0.0959 -0.4193
 1189POPI   C3A17927  14.553   5.777   7.513  0.0871  0.1323 -0.1309
 1189POPI   C4A17928  14.461   5.664   7.853 -0.0710 -0.1780 -0.1223
 1189POPI   C1B17929  13.852   5.659   6.906  0.0018  0.5501 -0.0789
 1189POPI   C2B17930  13.903   5.917   7.262 -0.3164  0.2333 -0.1411
 1189POPI   C3B17931  13.988   5.794   7.691 -0.0464 -0.0719 -0.1787
 1189POPI   C4B17932  14.052   5.570   8.121 -0.1639 -0.1853 -0.1445
 1190POPI    C117933  14.551   4.161   5.626 -0.1168 -0.0913 -0.1867
 1190POPI    C217934  14.898   4.359   5.626 -0.0258 -0.2472  0.0381
 1190POPI    C317935  14.672   4.353   5.296 -0.0678  0.2912  0.0475
 1190POPI   PO417936  14.403   4.236   5.841 -0.0624  0.0275  0.1879
 1190POPI   GL117937  14.320   4.238   6.155 -0.0555  0.0577  0.1283
 1190POPI   GL217938  14.156   4.470   6.477 -0.0856 -0.0679  0.2694
 1190POPI   C1A17939  14.163   3.961   6.474 -0.2550  0.1732 -0.1003
 1190POPI   D2A17940  14.075   3.746   6.929  0.1543  0.3855  0.0480
 1190POPI   C3A17941  14.179   3.809   7.357  0.0365 -0.0722  0.3275
 1190POPI   C4A17942  14.194   3.744   7.802  0.2520  0.0468  0.0598
 1190POPI   C1B17943  14.132   4.307   6.858  0.0964  0.0063 -0.1039
 1190POPI   C2B17944  14.286   4.291   7.248  0.2479  0.0868 -0.1714
 1190POPI   C3B17945  14.136   4.236   7.589 -0.1063 -0.0436  0.0172
 1190POPI   C4B17946  14.404   4.224   8.011  0.0821 -0.2749  0.1303
 1191POPI    C117947  16.505  16.529   5.403 -0.0518 -0.1225  0.1132
 1191POPI    C217948  16.671  16.309   5.693  0.2688 -0.0998 -0.0488
 1191POPI    C317949  16.803  16.276   5.317  0.2685  0.3117 -0.0894
 1191POPI   PO417950  16.368  16.688   5.562 -0.0719  0.0704  0.0299
 1191POPI   GL117951  16.136  16.682   6.001  0.1435 -0.0570 -0.1314
 1191POPI   GL217952  15.795  16.719   5.965 -0.1264 -0.2205  0.1323
 1191POPI   C1A17953  16.416  16.473   6.086 -0.1395 -0.0567  0.0419
 1191POPI   D2A17954  16.561  16.355   6.428  0.3597 -0.0281  0.0442
 1191POPI   C3A17955  16.618  16.734   6.730  0.1584  0.1464  0.3311
 1191POPI   C4A17956  16.446  17.041   6.975  0.3676 -0.3218 -0.0270
 1191POPI   C1B17957  15.931  16.642   6.405  0.2857 -0.3818  0.0561
 1191POPI   C2B17958  16.095  16.717   6.865 -0.0667 -0.3110  0.0679
 1191POPI   C3B17959  16.098  16.829   7.286  0.2210  0.0553  0.2146
 1191POPI   C4B17960  15.892  16.773   7.649 -0.1130 -0.0446 -0.2264
 1192POPI    C117961  15.153  11.986   5.372 -0.2212 -0.0483 -0.3360
 1192POPI    C217962  15.351  11.787   5.087  0.2069 -0.0179 -0.0697
 1192POPI    C317963  15.438  12.171   5.160  0.0198  0.0073  0.0267
 1192POPI   PO417964  15.131  11.827   5.603 -0.1392 -0.0528 -0.1622
 1192POPI   GL117965  15.109  11.500   5.912 -0.0961  0.0458 -0.0094
 1192POPI   GL217966  14.940  11.569   6.065 -0.2753 -0.1719  0.0717
 1192POPI   C1A17967  14.944  11.210   6.356  0.0455  0.0636  0.7211
 1192POPI   D2A17968  14.739  11.176   6.718  0.0829  0.0238  0.2176
 1192POPI   C3A17969  14.766  11.155   7.129 -0.0109  0.1182 -0.1058
 1192POPI   C4A17970  14.754  11.128   7.529  0.0158  0.1263 -0.0343
 1192POPI   C1B17971  14.778  11.726   6.409 -0.0116 -0.0413 -0.0999
 1192POPI   C2B17972  14.713  11.662   6.859 -0.0222 -0.1910  0.1545
 1192POPI   C3B17973  14.793  11.587   7.270 -0.2414 -0.1143  0.1032
 1192POPI   C4B17974  14.902  11.574   7.745  0.0830 -0.1818 -0.0397
 1193POPI    C117975  10.256   8.487   5.640  0.0719 -0.0121 -0.1426
 1193POPI    C217976  10.064   8.770   5.847 -0.1766 -0.2285 -0.0720
 1193POPI    C317977   9.993   8.726   5.456  0.1730  0.0749 -0.1749
 1193POPI   PO417978  10.468   8.479   5.908  0.2484 -0.0620 -0.2608
 1193POPI   GL117979  10.400   8.275   6.338  0.1708 -0.0563  0.0877
 1193POPI   GL217980  10.269   8.486   6.396 -0.0304  0.1593  0.0259
 1193POPI   C1A17981  10.613   8.058   6.662  0.1716 -0.2529 -0.0669
 1193POPI   D2A17982  10.649   8.088   7.105  0.3041 -0.1758 -0.3116
 1193POPI   C3A17983  10.823   8.285   7.413  0.2980  0.1643  0.1987
 1193POPI   C4A17984  11.194   8.403   7.600  0.2536 -0.0673  0.0173
 1193POPI   C1B17985  10.282   8.411   6.866  0.1151  0.1848  0.0282
 1193POPI   C2B17986  10.327   8.450   7.384 -0.1520  0.2870  0.1322
 1193POPI   C3B17987  10.384   8.505   7.802  0.2459  0.0213  0.0173
 1193POPI   C4B17988  10.247   8.678   8.226  0.0766 -0.0632 -0.0815
 1194POPI    C117989  10.809  17.216   5.255  0.1503 -0.4432  0.0574
 1194POPI    C217990  10.511  17.163   4.993  0.0520 -0.1508  0.1073
 1194POPI    C317991  10.869  17.291   4.866  0.0134 -0.0380  0.1107
 1194POPI   PO417992  10.859  17.071   5.410 -0.1137  0.0261 -0.0449
 1194POPI   GL117993  10.709  16.920   5.777  0.0241 -0.1802  0.0126
 1194POPI   GL217994  10.870  17.173   5.994 -0.4328  0.0100 -0.1325
 1194POPI   C1A17995  10.536  16.758   6.169 -0.2134 -0.0644  0.1505
 1194POPI   D2A17996  10.504  16.733   6.622 -0.0420  0.0116 -0.1709
 1194POPI   C3A17997  10.427  16.753   7.023 -0.0875 -0.1208 -0.1347
 1194POPI   C4A17998  10.282  16.975   7.421 -0.2293 -0.0338 -0.3111
 1194POPI   C1B17999  10.984  16.992   6.405  0.0164 -0.0743 -0.2175
 1194POPI   C2B18000  11.024  16.815   6.838 -0.1184  0.1210 -0.1415
 1194POPI   C3B18001  11.080  16.833   7.253  0.0442 -0.1557  0.0071
 1194POPI   C4B18002  11.070  16.860   7.653  0.0134  0.2758  0.3398
 1195POPI    C118003  15.838   4.339   5.896 -0.1467  0.1248 -0.0296
 1195POPI    C218004  15.987   4.483   5.554  0.1328  0.0508  0.0582
 1195POPI    C318005  16.172   4.183   5.741 -0.0873  0.0086  0.2118
 1195POPI   PO418006  15.793   4.420   6.080  0.0777  0.1279 -0.0464
 1195POPI   GL118007  15.618   4.453   6.422 -0.2895 -0.2435  0.2735
 1195POPI   GL218008  15.413   4.659   6.481 -0.1592  0.0678  0.0977
 1195POPI   C1A18009  15.592   4.090   6.749 -0.0024 -0.0978  0.0138
 1195POPI   D2A18010  15.609   3.864   7.252 -0.2099 -0.1248 -0.0154
 1195POPI   C3A18011  15.556   3.692   7.678 -0.2237  0.0360  0.1730
 1195POPI   C4A18012  15.443   3.411   7.976  0.0586 -0.4122  0.1895
 1195POPI   C1B18013  15.569   4.579   6.936  0.3564  0.1339  0.1895
 1195POPI   C2B18014  15.586   4.384   7.323  0.1743 -0.1685  0.2498
 1195POPI   C3B18015  15.652   4.217   7.734 -0.0009  0.2234  0.4596
 1195POPI   C4B18016  15.764   4.124   8.148 -0.1651 -0.0555  0.3579
 1196POPI    C118017  13.901  16.693   4.790 -0.2562 -0.0311 -0.1122
 1196POPI    C218018  13.773  16.314   4.766  0.4160 -0.2787  0.0026
 1196POPI    C318019  13.852  16.520   4.432 -0.1399 -0.1609 -0.0663
 1196POPI   PO418020  13.674  16.764   4.951  0.2896  0.3358  0.1979
 1196POPI   GL118021  13.757  16.837   5.446 -0.0512 -0.2960  0.2414
 1196POPI   GL218022  13.697  16.632   5.633  0.2012  0.1447 -0.0786
 1196POPI   C1A18023  13.567  17.063   5.822 -0.3047 -0.4266 -0.0519
 1196POPI   D2A18024  13.673  17.175   6.199 -0.0548 -0.2142 -0.2015
 1196POPI   C3A18025  13.611  17.230   6.612  0.0600  0.1329  0.0886
 1196POPI   C4A18026  13.823  17.168   6.980  0.1578  0.0594 -0.2311
 1196POPI   C1B18027  13.781  16.675   6.051 -0.3372 -0.1856 -0.1040
 1196POPI   C2B18028  13.840  16.726   6.528 -0.2117  0.0125 -0.0475
 1196POPI   C3B18029  13.992  16.732   6.944 -0.0944 -0.0988  0.0122
 1196POPI   C4B18030  14.282  16.980   7.234  0.0720 -0.1331 -0.0471
 1197POPI    C118031   4.390   7.097   5.494 -0.0008 -0.2112  0.0481
 1197POPI    C218032   4.553   6.930   5.168 -0.0476  0.2307 -0.2095
 1197POPI    C318033   4.777   6.995   5.493  0.0557 -0.0080 -0.2309
 1197POPI   PO418034   4.140   7.033   5.445 -0.1364 -0.2115  0.2690
 1197POPI   GL118035   3.904   7.099   5.893 -0.2260 -0.1021 -0.1557
 1197POPI   GL218036   3.747   6.840   6.060  0.0335  0.2324  0.0478
 1197POPI   C1A18037   3.880   7.132   6.421 -0.2057  0.3498  0.6154
 1197POPI   D2A18038   3.572   7.141   6.803  0.3038  0.0862  0.1260
 1197POPI   C3A18039   3.356   7.041   7.202 -0.0877 -0.2146 -0.1374
 1197POPI   C4A18040   3.378   7.187   7.589  0.2304  0.0751  0.0258
 1197POPI   C1B18041   4.128   6.629   6.339  0.2498  0.0277  0.2966
 1197POPI   C2B18042   3.951   6.687   6.770 -0.1407  0.0296 -0.3601
 1197POPI   C3B18043   3.881   6.785   7.191 -0.0932  0.0678  0.0878
 1197POPI   C4B18044   3.913   6.803   7.652  0.0523  0.1971 -0.1312
 1198DPPI    C118045   4.532   1.118   5.500  0.0603 -0.0014 -0.1586
 1198DPPI    C218046   4.578   1.308   5.150  0.0842 -0.0268 -0.1693
 1198DPPI    C318047   4.342   0.986   5.173 -0.0942  0.1060 -0.1136
 1198DPPI   PO418048   4.745   1.259   5.743 -0.0800 -0.0665  0.0655
 1198DPPI   GL118049   5.157   1.466   5.948 -0.0367 -0.0544 -0.0801
 1198DPPI   GL218050   5.078   1.727   5.881 -0.0232  0.2313 -0.3049
 1198DPPI   C1A18051   5.523   1.334   6.098  0.0334  0.4385  0.0131
 1198DPPI   C2A18052   5.552   1.391   6.461  0.1444  0.1795 -0.0281
 1198DPPI   C3A18053   5.570   1.255   6.902 -0.2469 -0.0683  0.1018
 1198DPPI   C4A18054   5.545   1.281   7.419 -0.1842 -0.3565  0.1124
 1198DPPI   C1B18055   5.107   1.811   6.321 -0.0525  0.0284  0.1091
 1198DPPI   C2B18056   5.282   1.762   6.728  0.1775 -0.2099 -0.2256
 1198DPPI   C3B18057   5.416   1.691   7.146 -0.1935  0.4213  0.2120
 1198DPPI   C4B18058   5.351   1.837   7.580 -0.0628 -0.0285  0.0416
 1199DPPI    C118059   3.636  13.869   5.605  0.0806  0.0477  0.1831
 1199DPPI    C218060   3.874  13.628   5.393  0.0593  0.2552 -0.0822
 1199DPPI    C318061   3.487  13.661   5.297  0.0640  0.4007 -0.0533
 1199DPPI   PO418062   3.844  13.947   5.792  0.1015  0.2196  0.1585
 1199DPPI   GL118063   4.181  13.818   6.064 -0.1030  0.0826  0.2146
 1199DPPI   GL218064   4.377  13.947   6.143 -0.1713 -0.1690 -0.0437
 1199DPPI   C1A18065   3.954  13.759   6.411 -0.0312 -0.1699 -0.3289
 1199DPPI   C2A18066   3.740  13.651   6.760  0.3639 -0.0054 -0.1935
 1199DPPI   C3A18067   3.725  13.734   7.202 -0.1509  0.1002  0.0043
 1199DPPI   C4A18068   3.605  13.717   7.592  0.1413  0.3719 -0.0374
 1199DPPI   C1B18069   4.438  14.230   6.457 -0.0529  0.0886  0.1149
 1199DPPI   C2B18070   4.354  14.586   6.850  0.1019  0.2573 -0.0844
 1199DPPI   C3B18071   4.146  14.493   7.304 -0.1544 -0.1326 -0.0681
 1199DPPI   C4B18072   3.885  14.657   7.639  0.1819  0.1072  0.3533
 1200DPPI    C118073   8.797   6.002   5.570 -0.0912  0.1322 -0.1162
 1200DPPI    C218074   8.480   5.891   5.352  0.0760 -0.0955 -0.2483
 1200DPPI    C318075   8.798   6.055   5.173  0.0118  0.1885 -0.1088
 1200DPPI   PO418076   8.707   5.881   5.861 -0.2042 -0.0758  0.3406
 1200DPPI   GL118077   8.493   5.706   6.149  0.0114 -0.1985  0.2267
 1200DPPI   GL218078   8.087   5.749   6.114 -0.0654  0.1553 -0.1648
 1200DPPI   C1A18079   8.359   5.521   6.556  0.0165 -0.0068  0.2401
 1200DPPI   C2A18080   8.392   5.415   6.967  0.0542 -0.1093  0.1435
 1200DPPI   C3A18081   8.162   5.337   7.342 -0.0862 -0.0637 -0.1091
 1200DPPI   C4A18082   8.229   5.129   7.739 -0.0654 -0.0567 -0.0778
 1200DPPI   C1B18083   7.825   5.606   6.488  0.0044 -0.1764 -0.1811
 1200DPPI   C2B18084   7.839   5.439   6.858 -0.2780  0.0316  0.0081
 1200DPPI   C3B18085   7.630   5.224   7.163 -0.0947 -0.0429 -0.0539
 1200DPPI   C4B18086   7.493   4.951   7.457  0.0334 -0.1128 -0.2108
 1201DPPI    C118087  12.590   9.220   5.447 -0.0770  0.0829 -0.0878
 1201DPPI    C218088  12.260   9.117   5.648 -0.0919  0.2329 -0.0337
 1201DPPI    C318089  12.233   9.358   5.331 -0.0409  0.1939 -0.0680
 1201DPPI   PO418090  12.768   9.158   5.700  0.2048  0.0852  0.1320
 1201DPPI   GL118091  12.927   9.264   6.132 -0.1165 -0.0518  0.0570
 1201DPPI   GL218092  13.095   8.978   6.230  0.1628 -0.0766  0.1700
 1201DPPI   C1A18093  13.095   9.461   6.438 -0.0472 -0.0769 -0.2127
 1201DPPI   C2A18094  13.084   9.479   6.802 -0.1990 -0.1150 -0.1098
 1201DPPI   C3A18095  13.121   9.493   7.227  0.2239 -0.2002 -0.1354
 1201DPPI   C4A18096  13.256   9.413   7.635  0.0763 -0.2554  0.1929
 1201DPPI   C1B18097  12.980   8.969   6.693 -0.2831  0.1870 -0.2758
 1201DPPI   C2B18098  13.030   8.989   7.081  0.2348  0.0080  0.1324
 1201DPPI   C3B18099  13.032   8.982   7.533 -0.2980 -0.0694 -0.0146
 1201DPPI   C4B18100  12.902   9.034   7.961  0.0664 -0.0477  0.0473
 1202DPPI    C118101   0.352   7.735   5.983  0.1676  0.0092  0.0024
 1202DPPI    C218102   0.461   7.351   6.004  0.1356 -0.0158 -0.2543
 1202DPPI    C318103   0.359   7.511   5.652  0.0691  0.2070 -0.1359
 1202DPPI   PO418104   0.560   7.837   6.146  0.1107 -0.2079  0.0591
 1202DPPI   GL118105   0.713   8.079   6.405 -0.0329  0.4834  0.0711
 1202DPPI   GL218106   0.882   8.226   6.264 -0.0176  0.0798  0.1872
 1202DPPI   C1A18107   0.477   8.052   6.770  0.0584  0.0416  0.0185
 1202DPPI   C2A18108   0.409   7.768   7.095  0.1803 -0.0082  0.2117
 1202DPPI   C3A18109   0.305   7.608   7.526 -0.0196  0.0737  0.1296
 1202DPPI   C4A18110   0.216   7.410   7.933 -0.2225  0.1378 -0.4657
 1202DPPI   C1B18111   1.072   8.075   6.686 -0.0067  0.0192 -0.2169
 1202DPPI   C2B18112   1.257   8.140   7.050 -0.0875 -0.0065 -0.1013
 1202DPPI   C3B18113   1.210   8.213   7.490 -0.1005  0.0777 -0.2650
 1202DPPI   C4B18114   1.211   8.069   7.804 -0.3141 -0.0628 -0.1582
 1203DPPI    C118115  15.268  14.823   4.984  0.0254 -0.0808 -0.0391
 1203DPPI    C218116  15.529  15.094   5.121 -0.0649 -0.1154  0.2065
 1203DPPI    C318117  15.302  15.179   4.803 -0.1063  0.1057  0.2933
 1203DPPI   PO418118  15.178  14.744   5.168  0.3979  0.1812  0.0476
 1203DPPI   GL118119  15.141  14.561   5.529  0.0687 -0.0651 -0.1014
 1203DPPI   GL218120  15.405  14.464   5.559 -0.2825  0.0736 -0.0181
 1203DPPI   C1A18121  14.932  14.343   5.941 -0.0847  0.1542  0.1742
 1203DPPI   C2A18122  15.063  14.161   6.360  0.0729 -0.2065 -0.0969
 1203DPPI   C3A18123  15.042  14.205   6.806  0.0974  0.0517  0.2937
 1203DPPI   C4A18124  15.350  14.010   7.112  0.0585  0.3906 -0.1349
 1203DPPI   C1B18125  15.412  14.748   5.945 -0.2037  0.1239 -0.2321
 1203DPPI   C2B18126  15.258  14.625   6.274  0.1770 -0.1847 -0.1284
 1203DPPI   C3B18127  15.335  14.924   6.570  0.0181 -0.0556  0.3232
 1203DPPI   C4B18128  15.505  14.932   6.906  0.0173 -0.0616 -0.0633
 1204DPPI    C118129   8.834  14.357   5.658 -0.0322  0.1121  0.1241
 1204DPPI    C218130   9.135  14.601   5.560 -0.1146  0.3420  0.4264
 1204DPPI    C318131   8.801  14.598   5.341  0.1706 -0.0508 -0.0234
 1204DPPI   PO418132   8.893  14.183   5.706  0.1664 -0.2039 -0.2857
 1204DPPI   GL118133   9.160  14.089   5.981 -0.2315 -0.0658 -0.2639
 1204DPPI   GL218134   9.195  14.486   6.067 -0.2869  0.1249  0.0684
 1204DPPI   C1A18135   9.134  14.010   6.414  0.1449 -0.1612  0.0466
 1204DPPI   C2A18136   9.190  14.053   6.789  0.2078 -0.0261  0.0482
 1204DPPI   C3A18137   9.447  14.002   7.187 -0.2295 -0.0923 -0.1221
 1204DPPI   C4A18138   9.416  14.183   7.621 -0.0121  0.1423 -0.0269
 1204DPPI   C1B18139   9.502  14.542   6.450  0.0497  0.0649  0.0284
 1204DPPI   C2B18140   9.522  14.572   6.890 -0.3559 -0.1969  0.0659
 1204DPPI   C3B18141   9.745  14.542   7.323  0.2220  0.1107  0.0288
 1204DPPI   C4B18142   9.515  14.651   7.651 -0.1080  0.0461 -0.0246
 1205DPPI    C118143  17.356   4.784   5.765 -0.1533 -0.0569  0.1379
 1205DPPI    C218144  17.309   5.114   5.544 -0.1337 -0.1741 -0.0428
 1205DPPI    C318145  17.607   4.859   5.463 -0.0032 -0.1181  0.2455
 1205DPPI   PO418146  17.237   4.872   5.971 -0.1323  0.1089  0.0515
 1205DPPI   GL118147  17.189   4.778   6.403  0.1423  0.1312  0.2999
 1205DPPI   GL218148  16.902   4.784   6.612  0.1091 -0.0101  0.2090
 1205DPPI   C1A18149  17.392   5.049   6.733  0.0016 -0.1487  0.0713
 1205DPPI   C2A18150  17.386   4.946   7.115  0.0175  0.1292 -0.1308
 1205DPPI   C3A18151  17.384   4.800   7.560  0.2355  0.0884  0.1851
 1205DPPI   C4A18152  17.626   4.458   7.829  0.1238 -0.0638  0.0769
 1205DPPI   C1B18153  16.954   4.740   7.085 -0.0628 -0.0376  0.0714
 1205DPPI   C2B18154  16.920   4.583   7.500  0.0133 -0.2702  0.0671
 1205DPPI   C3B18155  17.082   4.396   7.851  0.1626 -0.0861 -0.1805
 1205DPPI   C4B18156  16.826   4.164   8.203 -0.0535  0.4376 -0.1795
 1206DPPI    C118157   5.453  17.517   5.687 -0.0556 -0.2754  0.1391
 1206DPPI    C218158   5.557  17.268   5.391  0.0318  0.0275 -0.0897
 1206DPPI    C318159   5.181  17.271   5.527  0.0299 -0.2268 -0.0849
 1206DPPI   PO418160   5.594  17.777   5.653  0.0865  0.1568 -0.5446
 1206DPPI   GL118161   5.623  18.169   5.894 -0.2459  0.0176  0.0584
 1206DPPI   GL218162   5.949  18.044   5.985 -0.1444 -0.0821 -0.0859
 1206DPPI   C1A18163   5.551  18.471   6.154 -0.2422  0.0273 -0.2669
 1206DPPI   C2A18164   5.485  18.521   6.637  0.2320 -0.3071 -0.0780
 1206DPPI   C3A18165   5.427  18.509   7.088 -0.2549 -0.1367  0.1932
 1206DPPI   C4A18166   5.359  18.394   7.474 -0.0227 -0.2352 -0.1179
 1206DPPI   C1B18167   5.719  18.026   6.422  0.2726 -0.1397 -0.2513
 1206DPPI   C2B18168   5.257  18.078   6.665  0.1334 -0.1019  0.1944
 1206DPPI   C3B18169   5.067  18.110   7.077  0.3304  0.3569 -0.4635
 1206DPPI   C4B18170   4.957  18.118   7.496 -0.2457 -0.1706  0.0703
 1207DPPI    C118171   5.064   6.485   5.630  0.0704 -0.1512 -0.1020
 1207DPPI    C218172   5.236   6.845   5.655 -0.1129 -0.0831  0.2381
 1207DPPI    C318173   5.096   6.715   5.304  0.0187  0.1455  0.0982
 1207DPPI   PO418174   4.838   6.605   5.910 -0.1921  0.1297  0.1052
 1207DPPI   GL118175   4.697   6.637   6.298 -0.1192 -0.1547  0.1114
 1207DPPI   GL218176   4.953   6.870   6.392  0.1038  0.2349 -0.1584
 1207DPPI   C1A18177   4.579   6.315   6.493 -0.1457  0.1168  0.3991
 1207DPPI   C2A18178   4.747   6.251   6.866 -0.1310 -0.0336  0.0678
 1207DPPI   C3A18179   4.712   6.300   7.343 -0.3588 -0.1301 -0.0958
 1207DPPI   C4A18180   4.938   6.508   7.607 -0.1775  0.1002  0.1117
 1207DPPI   C1B18181   4.977   6.727   6.802  0.1233  0.2028  0.0767
 1207DPPI   C2B18182   4.914   6.733   7.173  0.1069  0.0350  0.0290
 1207DPPI   C3B18183   4.727   7.029   7.360  0.2972 -0.4368  0.1161
 1207DPPI   C4B18184   4.227   7.117   7.352  0.1878  0.2543  0.2208
 1208DPPI    C118185  12.042   0.975   5.305  0.0383 -0.2222 -0.0725
 1208DPPI    C218186  12.369   1.052   5.522 -0.0717 -0.2756  0.1140
 1208DPPI    C318187  12.390   1.051   5.123  0.1103 -0.0787  0.1213
 1208DPPI   PO418188  11.861   1.148   5.415  0.0961 -0.1915 -0.2397
 1208DPPI   GL118189  11.956   1.303   5.742 -0.0485 -0.2296  0.0355
 1208DPPI   GL218190  12.051   0.947   5.880 -0.0236  0.0349  0.0238
 1208DPPI   C1A18191  12.019   1.259   6.234  0.0503 -0.1780 -0.0588
 1208DPPI   C2A18192  12.143   1.243   6.557  0.0448  0.0341  0.0169
 1208DPPI   C3A18193  12.030   1.182   7.008 -0.0356 -0.2283  0.1281
 1208DPPI   C4A18194  12.143   1.343   7.450 -0.2477 -0.2975  0.1326
 1208DPPI   C1B18195  11.880   0.721   6.219 -0.0804  0.0263  0.2330
 1208DPPI   C2B18196  11.849   0.764   6.725 -0.0518 -0.0477  0.1642
 1208DPPI   C3B18197  11.807   0.717   7.163  0.1475 -0.4431 -0.0615
 1208DPPI   C4B18198  11.898   0.888   7.480 -0.1073 -0.2146  0.0690
 1209DPPI    C118199   4.947   3.408   4.973  0.0884  0.0132 -0.1619
 1209DPPI    C218200   5.049   3.759   4.810  0.1731  0.0546 -0.0219
 1209DPPI    C318201   4.692   3.597   4.731 -0.0653  0.4093  0.2938
 1209DPPI   PO418202   5.081   3.414   5.171 -0.0426  0.3225 -0.0530
 1209DPPI   GL118203   5.101   3.453   5.549  0.0432  0.1206 -0.1624
 1209DPPI   GL218204   4.896   3.308   5.723 -0.0268  0.0732  0.0630
 1209DPPI   C1A18205   5.239   3.546   6.059 -0.0387  0.1348 -0.0852
 1209DPPI   C2A18206   5.173   3.546   6.556 -0.0151 -0.0982 -0.0638
 1209DPPI   C3A18207   5.060   3.555   6.953  0.1277 -0.0146 -0.1867
 1209DPPI   C4A18208   5.089   3.603   7.392 -0.0029  0.2314  0.2869
 1209DPPI   C1B18209   4.857   3.151   6.065 -0.1505 -0.1412  0.1007
 1209DPPI   C2B18210   4.847   3.170   6.467  0.2306  0.0274 -0.0120
 1209DPPI   C3B18211   4.786   3.147   6.920  0.0717  0.1497  0.0980
 1209DPPI   C4B18212   4.789   3.213   7.382 -0.0502 -0.4005 -0.2156
 1210DPPI    C118213  15.657  13.653   5.173 -0.0434  0.1462  0.0717
 1210DPPI    C218214  15.395  13.612   4.874 -0.1143  0.1589  0.1318
 1210DPPI    C318215  15.788  13.605   4.798 -0.1262 -0.1995  0.0835
 1210DPPI   PO418216  15.552  13.422   5.387 -0.1076 -0.1694  0.3918
 1210DPPI   GL118217  15.427  13.400   5.773  0.1683 -0.2979 -0.0164
 1210DPPI   GL218218  15.444  13.273   6.027  0.0248 -0.0044  0.2038
 1210DPPI   C1A18219  15.633  13.751   6.099  0.1883 -0.0228  0.0016
 1210DPPI   C2A18220  15.681  13.722   6.506  0.0200 -0.1516  0.0519
 1210DPPI   C3A18221  15.786  13.773   6.934 -0.0088  0.0331  0.0600
 1210DPPI   C4A18222  15.816  13.669   7.307 -0.0805  0.0233 -0.2890
 1210DPPI   C1B18223  15.339  13.248   6.429 -0.0536  0.1266 -0.2207
 1210DPPI   C2B18224  15.330  13.086   6.863 -0.0958 -0.2326 -0.1498
 1210DPPI   C3B18225  15.386  13.042   7.256  0.2170 -0.0237 -0.2658
 1210DPPI   C4B18226  15.079  13.013   7.665 -0.1195  0.0674  0.1839
 1211DPPI    C118227   3.409   3.740   5.535  0.1120 -0.3687  0.1161
 1211DPPI    C218228   3.604   4.069   5.653 -0.1428 -0.1242 -0.1290
 1211DPPI    C318229   3.782   3.712   5.677  0.2322  0.0601 -0.0968
 1211DPPI   PO418230   3.140   3.767   5.589 -0.0025 -0.1722  0.1760
 1211DPPI   GL118231   2.920   3.732   6.007 -0.2652 -0.1211 -0.0491
 1211DPPI   GL218232   2.877   3.936   6.187  0.0513  0.2463  0.0252
 1211DPPI   C1A18233   3.062   3.519   6.343  0.0820 -0.2245 -0.0806
 1211DPPI   C2A18234   3.097   3.515   6.819  0.2418 -0.2480 -0.0615
 1211DPPI   C3A18235   3.027   3.615   7.125  0.1141 -0.0306  0.1135
 1211DPPI   C4A18236   2.958   3.708   7.548 -0.0158  0.0864  0.0761
 1211DPPI   C1B18237   2.996   3.981   6.584 -0.1807  0.1638 -0.4825
 1211DPPI   C2B18238   3.294   4.061   6.860  0.1112  0.1232 -0.2325
 1211DPPI   C3B18239   3.347   3.977   7.346  0.2845 -0.4461 -0.1219
 1211DPPI   C4B18240   3.358   3.960   7.810  0.0605  0.0484  0.0103
 1212DPPI    C118241  11.930  15.020   5.036 -0.1444  0.0497 -0.1225
 1212DPPI    C218242  12.182  15.250   5.245 -0.0990  0.0347 -0.1604
 1212DPPI    C318243  12.289  15.113   4.885 -0.1268 -0.0439 -0.1389
 1212DPPI   PO418244  11.746  14.950   5.211  0.2321 -0.0126 -0.0459
 1212DPPI   GL118245  11.522  15.098   5.539  0.1040  0.1214 -0.2065
 1212DPPI   GL218246  11.287  14.944   5.621 -0.1291  0.0121  0.3530
 1212DPPI   C1A18247  11.680  15.038   6.055 -0.1430  0.3183 -0.0180
 1212DPPI   C2A18248  11.858  14.994   6.397 -0.0460 -0.2656  0.0080
 1212DPPI   C3A18249  11.923  14.942   6.804 -0.3371 -0.1354  0.1364
 1212DPPI   C4A18250  12.067  14.910   7.207 -0.0112 -0.0316 -0.2061
 1212DPPI   C1B18251  11.224  15.182   6.001 -0.1664 -0.1778 -0.0523
 1212DPPI   C2B18252  11.247  15.151   6.424 -0.1365  0.0549  0.2986
 1212DPPI   C3B18253  11.467  15.172   6.857 -0.0233  0.0439 -0.0687
 1212DPPI   C4B18254  11.692  15.251   7.174  0.0763  0.1138 -0.0869
 1213DPPI    C118255   9.734   8.521   6.063  0.0015  0.0452 -0.0566
 1213DPPI    C218256   9.543   8.532   5.712 -0.1956 -0.2616  0.0370
 1213DPPI    C318257   9.334   8.519   6.053 -0.0053 -0.2093  0.1566
 1213DPPI   PO418258   9.897   8.378   6.060  0.0870  0.0387  0.0708
 1213DPPI   GL118259   9.900   7.924   6.276 -0.1620 -0.1586 -0.1533
 1213DPPI   GL218260  10.068   7.887   6.390 -0.0034 -0.0068 -0.0793
 1213DPPI   C1A18261   9.727   7.660   6.669  0.2374  0.0610 -0.0066
 1213DPPI   C2A18262   9.773   7.726   7.172  0.1765  0.1767  0.0728
 1213DPPI   C3A18263   9.692   7.742   7.595 -0.4091 -0.0641 -0.1643
 1213DPPI   C4A18264   9.619   7.594   7.951  0.1434 -0.0986 -0.1401
 1213DPPI   C1B18265  10.150   7.935   6.800  0.1656 -0.0168 -0.1795
 1213DPPI   C2B18266  10.159   7.957   7.196 -0.1272 -0.0888 -0.0355
 1213DPPI   C3B18267  10.164   8.052   7.664  0.0735  0.1422  0.0632
 1213DPPI   C4B18268  10.299   8.173   8.118  0.2024  0.0423 -0.0545
 1214DPPI    C118269  17.962   4.464   5.746 -0.1993 -0.1286  0.1574
 1214DPPI    C218270  18.319   4.644   5.747 -0.2865  0.0484 -0.0124
 1214DPPI    C318271  18.290   4.259   5.642 -0.1700  0.0874 -0.1936
 1214DPPI   PO418272  17.814   4.641   5.968  0.0712 -0.1162  0.2898
 1214DPPI   GL118273  17.827   4.628   6.342 -0.4678 -0.0601  0.0091
 1214DPPI   GL218274  17.526   4.450   6.384 -0.1280  0.1702  0.2520
 1214DPPI   C1A18275  17.780   4.661   6.767 -0.0742  0.1910 -0.2411
 1214DPPI   C2A18276  17.767   4.617   7.200  0.0920 -0.0307 -0.0566
 1214DPPI   C3A18277  17.926   4.740   7.564  0.1620 -0.1813  0.2794
 1214DPPI   C4A18278  18.165   4.633   7.826 -0.1171 -0.0954 -0.2251
 1214DPPI   C1B18279  17.338   4.442   6.754  0.0041 -0.1658  0.0412
 1214DPPI   C2B18280  17.330   4.360   7.194  0.0592  0.1981  0.1813
 1214DPPI   C3B18281  17.384   4.084   7.541 -0.0315  0.4526  0.1926
 1214DPPI   C4B18282  17.535   3.955   7.985  0.0269 -0.4281 -0.1867
 1215DPPI    C118283   4.175  12.747   5.375 -0.3260 -0.0503  0.2218
 1215DPPI    C218284   4.081  12.886   5.012  0.0191 -0.0661  0.1230
 1215DPPI    C318285   3.911  12.550   5.148 -0.1955  0.0004  0.0241
 1215DPPI   PO418286   4.061  12.937   5.562 -0.1359 -0.2972 -0.1905
 1215DPPI   GL118287   3.817  12.788   5.955  0.1467  0.0663  0.1317
 1215DPPI   GL218288   3.717  13.115   6.065 -0.2289  0.0720 -0.1607
 1215DPPI   C1A18289   3.645  12.672   6.339 -0.0886  0.1023  0.1624
 1215DPPI   C2A18290   3.613  12.664   6.716 -0.0721 -0.3490 -0.0461
 1215DPPI   C3A18291   3.550  12.689   7.127 -0.2446  0.2307  0.5125
 1215DPPI   C4A18292   3.463  12.727   7.567 -0.2562 -0.2722 -0.3932
 1215DPPI   C1B18293   3.781  13.160   6.505  0.0874 -0.1769  0.2112
 1215DPPI   C2B18294   3.714  13.153   6.963 -0.2657 -0.0112  0.1318
 1215DPPI   C3B18295   3.601  13.243   7.359  0.0510 -0.2899 -0.1983
 1215DPPI   C4B18296   3.536  13.273   7.817 -0.0196 -0.2225  0.0168
 1216DPPI    C118297  10.148   0.337   5.754  0.0783 -0.0052  0.0090
 1216DPPI    C218298   9.958   0.465   5.426  0.3639  0.2174 -0.0734
 1216DPPI    C318299  10.271   0.219   5.392  0.0579 -0.2040  0.0652
 1216DPPI   PO418300   9.976   0.284   5.918  0.1856 -0.1551 -0.2442
 1216DPPI   GL118301   9.739   0.422   6.174 -0.2128  0.0647  0.0629
 1216DPPI   GL218302   9.465   0.309   6.188 -0.0910  0.0560  0.2066
 1216DPPI   C1A18303   9.935   0.535   6.607 -0.1290 -0.1928  0.2065
 1216DPPI   C2A18304   9.991   0.722   6.940  0.0647 -0.0341 -0.0435
 1216DPPI   C3A18305  10.145   0.983   7.264  0.0711 -0.0281 -0.3869
 1216DPPI   C4A18306  10.136   1.042   7.720  0.0373 -0.0870 -0.3153
 1216DPPI   C1B18307   9.375   0.696   6.464 -0.0706 -0.2316  0.0730
 1216DPPI   C2B18308   9.154   0.918   6.738  0.3780 -0.1029 -0.1610
 1216DPPI   C3B18309   8.967   1.300   6.804 -0.0121 -0.0239 -0.2786
 1216DPPI   C4B18310   8.834   1.619   6.671 -0.2302 -0.0129  0.1576
 1217DPPI    C118311   4.703   4.108   5.040  0.1705  0.0964  0.0612
 1217DPPI    C218312   4.556   4.445   4.883  0.3457  0.1373 -0.0172
 1217DPPI    C318313   4.481   4.094   4.707 -0.0313  0.1070  0.1936
 1217DPPI   PO418314   4.605   4.126   5.307 -0.0859  0.2216  0.2630
 1217DPPI   GL118315   4.791   4.013   5.715 -0.0140 -0.0778 -0.2972
 1217DPPI   GL218316   4.798   3.796   5.842 -0.0506 -0.0617  0.0612
 1217DPPI   C1A18317   4.471   4.096   6.087  0.1350 -0.1801  0.4007
 1217DPPI   C2A18318   4.414   4.039   6.541 -0.1619  0.0862 -0.1399
 1217DPPI   C3A18319   4.412   4.082   6.956  0.0489  0.1221 -0.1823
 1217DPPI   C4A18320   4.333   4.038   7.389  0.4993  0.0131 -0.1970
 1217DPPI   C1B18321   4.730   3.636   6.248 -0.3152  0.0321  0.1339
 1217DPPI   C2B18322   4.622   3.586   6.616  0.1065 -0.1920  0.1199
 1217DPPI   C3B18323   4.594   3.626   7.185  0.2247 -0.3780  0.2808
 1217DPPI   C4B18324   4.572   3.634   7.636 -0.0879  0.0899 -0.2094
 1218DPPI    C118325   6.515   6.128   5.514  0.0655  0.3406 -0.0831
 1218DPPI    C218326   6.204   6.278   5.312  0.0462  0.0168 -0.3024
 1218DPPI    C318327   6.472   6.048   5.125  0.2374  0.0206 -0.0400
 1218DPPI   PO418328   6.449   6.023   5.688  0.0859 -0.0538 -0.2095
 1218DPPI   GL118329   6.507   6.019   6.191  0.1034  0.0728  0.0401
 1218DPPI   GL218330   6.432   5.669   6.356 -0.0406 -0.2666  0.1060
 1218DPPI   C1A18331   6.672   6.211   6.623 -0.0349 -0.0546 -0.2522
 1218DPPI   C2A18332   6.659   6.242   7.050 -0.3005 -0.1010 -0.1581
 1218DPPI   C3A18333   6.823   6.299   7.469  0.1739  0.0937  0.0673
 1218DPPI   C4A18334   6.927   6.167   7.802  0.1401 -0.3081  0.1500
 1218DPPI   C1B18335   6.664   5.592   6.796  0.1827  0.1101  0.1185
 1218DPPI   C2B18336   6.781   5.613   7.161  0.2150  0.0701  0.2999
 1218DPPI   C3B18337   6.850   5.696   7.662  0.0740  0.2667  0.2339
 1218DPPI   C4B18338   6.923   5.501   8.084 -0.2064  0.0693  0.1087
 1219DPPI    C118339  16.142   5.254   5.972  0.1154  0.0925  0.1043
 1219DPPI    C218340  16.101   5.638   6.074  0.0380  0.1269 -0.0529
 1219DPPI    C318341  15.777   5.409   6.022  0.0741  0.1200 -0.2551
 1219DPPI   PO418342  16.415   5.213   6.109  0.1834 -0.0432 -0.1650
 1219DPPI   GL118343  16.422   5.062   6.471  0.0379 -0.2353  0.0921
 1219DPPI   GL218344  16.419   4.750   6.478  0.0401  0.0414 -0.1497
 1219DPPI   C1A18345  16.485   4.981   6.931 -0.0264 -0.0351 -0.2604
 1219DPPI   C2A18346  16.416   4.885   7.344 -0.0987 -0.2415 -0.1320
 1219DPPI   C3A18347  16.462   4.795   7.749  0.2726  0.2655  0.3065
 1219DPPI   C4A18348  16.551   4.618   8.125  0.0160 -0.0706 -0.0415
 1219DPPI   C1B18349  16.465   4.489   6.875 -0.1334 -0.3375  0.0082
 1219DPPI   C2B18350  16.489   4.409   7.340  0.0549 -0.0839  0.0149
 1219DPPI   C3B18351  16.459   4.174   7.803 -0.2162  0.0232  0.1044
 1219DPPI   C4B18352  16.309   4.108   8.198 -0.2075 -0.0035  0.1394
 1220DPPI    C118353   3.185   4.410   5.376 -0.1284 -0.4468 -0.1271
 1220DPPI    C218354   3.455   4.192   5.177  0.1805 -0.1767 -0.0106
 1220DPPI    C318355   3.292   4.515   5.005  0.1826 -0.1472  0.0424
 1220DPPI   PO418356   3.284   4.433   5.591 -0.1830  0.2189 -0.0314
 1220DPPI   GL118357   3.296   4.339   5.998 -0.0538  0.1909  0.1683
 1220DPPI   GL218358   3.316   4.087   6.026  0.1754  0.1118  0.1626
 1220DPPI   C1A18359   3.095   4.443   6.470 -0.2343 -0.2549 -0.2530
 1220DPPI   C2A18360   3.090   4.484   6.857 -0.1299  0.0451 -0.1343
 1220DPPI   C3A18361   3.036   4.361   7.282 -0.2861 -0.0692 -0.0763
 1220DPPI   C4A18362   2.918   4.219   7.593  0.0080 -0.0198  0.0336
 1220DPPI   C1B18363   3.541   4.060   6.384  0.0314 -0.0453  0.0139
 1220DPPI   C2B18364   3.848   4.011   6.709 -0.0520  0.0512 -0.0075
 1220DPPI   C3B18365   3.925   3.885   7.108  0.0766 -0.0612 -0.0740
 1220DPPI   C4B18366   3.910   3.758   7.550 -0.1017 -0.2387  0.1004
 1221DPPI    C118367  11.909   3.883   5.760 -0.0784 -0.0691  0.0945
 1221DPPI    C218368  12.008   3.852   5.374  0.2823  0.1247  0.1670
 1221DPPI    C318369  11.816   4.177   5.506 -0.1360 -0.0861  0.0956
 1221DPPI   PO418370  11.875   3.511   5.796 -0.1396 -0.0443 -0.0622
 1221DPPI   GL118371  11.722   3.384   6.181 -0.1294 -0.1696 -0.1054
 1221DPPI   GL218372  11.861   3.136   6.241  0.1261 -0.0919  0.0617
 1221DPPI   C1A18373  11.528   3.546   6.594 -0.1881  0.3836  0.0900
 1221DPPI   C2A18374  11.375   3.574   6.954 -0.2602  0.1121  0.3129
 1221DPPI   C3A18375  11.493   3.525   7.388  0.3150 -0.3190 -0.1198
 1221DPPI   C4A18376  11.610   3.512   7.892  0.1955 -0.3413 -0.1472
 1221DPPI   C1B18377  11.812   3.106   6.723  0.3620 -0.0495  0.1715
 1221DPPI   C2B18378  11.766   3.150   7.070  0.2926  0.2753  0.0518
 1221DPPI   C3B18379  11.662   3.095   7.520  0.1845 -0.1374  0.5607
 1221DPPI   C4B18380  11.533   3.023   7.903 -0.1994  0.2312  0.0947
 1222DPPI    C118381   9.554   1.908   5.308 -0.0678 -0.1471 -0.0743
 1222DPPI    C218382   9.905   1.740   5.401  0.0686  0.1347 -0.0710
 1222DPPI    C318383   9.728   1.652   5.054  0.1457 -0.0026 -0.0763
 1222DPPI   PO418384   9.493   1.945   5.538 -0.1993 -0.2473 -0.1617
 1222DPPI   GL118385   9.488   2.060   6.013  0.0851 -0.2803 -0.2088
 1222DPPI   GL218386   9.702   2.256   6.129 -0.2834 -0.0209  0.0792
 1222DPPI   C1A18387   9.180   2.271   6.275  0.2244  0.2477 -0.1493
 1222DPPI   C2A18388   9.102   2.449   6.720 -0.0136 -0.0216  0.0047
 1222DPPI   C3A18389   8.867   2.706   6.952  0.1097  0.2361 -0.3473
 1222DPPI   C4A18390   8.628   3.033   7.207  0.1302  0.2966 -0.0729
 1222DPPI   C1B18391   9.620   2.289   6.553 -0.0095  0.0371  0.0247
 1222DPPI   C2B18392   9.503   2.214   6.964  0.1041 -0.3090  0.2202
 1222DPPI   C3B18393   9.247   2.378   7.224  0.3300 -0.0381  0.1945
 1222DPPI   C4B18394   9.258   2.353   7.651 -0.1509 -0.1746 -0.0876
 1223DPPI    C118395   2.305  16.995   5.286  0.0854 -0.0158 -0.0983
 1223DPPI    C218396   2.063  17.118   4.992  0.1524  0.2981 -0.0256
 1223DPPI    C318397   2.370  16.874   4.910  0.0245  0.1852 -0.1746
 1223DPPI   PO418398   2.354  17.210   5.371 -0.1765  0.0256  0.1765
 1223DPPI   GL118399   2.112  17.323   5.697  0.1073  0.0146 -0.0015
 1223DPPI   GL218400   1.924  16.999   5.624 -0.0836  0.1336 -0.0164
 1223DPPI   C1A18401   2.117  17.451   6.211  0.3270  0.4166  0.2979
 1223DPPI   C2A18402   2.145  17.497   6.600  0.0740  0.1233 -0.2336
 1223DPPI   C3A18403   2.178  17.481   6.999  0.0799 -0.4168  0.1018
 1223DPPI   C4A18404   2.208  17.605   7.359  0.2714 -0.0198  0.0072
 1223DPPI   C1B18405   1.975  16.962   6.072 -0.1044  0.0451 -0.0430
 1223DPPI   C2B18406   1.987  17.003   6.488 -0.0652  0.2326 -0.1238
 1223DPPI   C3B18407   2.104  16.968   6.907  0.0566  0.0509  0.1050
 1223DPPI   C4B18408   2.034  16.989   7.310  0.1138 -0.0918  0.0921
 1224DPPI    C118409   6.130  15.190   5.370  0.0238 -0.1259 -0.0537
 1224DPPI    C218410   5.739  15.256   5.313  0.0418  0.0400  0.0109
 1224DPPI    C318411   5.959  15.093   5.021 -0.0498  0.0616 -0.0707
 1224DPPI   PO418412   6.105  15.096   5.618  0.1009  0.1002  0.0000
 1224DPPI   GL118413   6.119  15.297   6.042  0.1626 -0.2343  0.3240
 1224DPPI   GL218414   6.428  15.221   5.985 -0.0291 -0.0702 -0.1625
 1224DPPI   C1A18415   6.178  15.101   6.500  0.0671  0.2569  0.2374
 1224DPPI   C2A18416   6.097  15.313   6.867  0.0634 -0.0229  0.0531
 1224DPPI   C3A18417   6.152  15.576   7.229 -0.2818 -0.0394 -0.1597
 1224DPPI   C4A18418   5.863  15.651   7.616  0.0350 -0.1914  0.1637
 1224DPPI   C1B18419   6.649  15.018   6.312  0.0314  0.0262  0.1917
 1224DPPI   C2B18420   6.576  14.939   6.724  0.0367 -0.0600 -0.0158
 1224DPPI   C3B18421   6.433  15.096   7.201  0.1267 -0.0535  0.1575
 1224DPPI   C4B18422   6.571  15.388   7.521 -0.2295  0.3984  0.3045
 1225DPPI    C118423   1.031  14.301   5.610  0.2400 -0.2651 -0.2785
 1225DPPI    C218424   0.918  14.070   5.303  0.0729 -0.1995 -0.2678
 1225DPPI    C318425   1.042  14.445   5.237 -0.0492 -0.1552 -0.2473
 1225DPPI   PO418426   1.241  14.155   5.670 -0.1732  0.0765  0.2898
 1225DPPI   GL118427   1.460  14.169   5.989 -0.0905  0.0972  0.0285
 1225DPPI   GL218428   1.208  14.028   6.161  0.0919  0.1427  0.3523
 1225DPPI   C1A18429   1.524  14.200   6.461  0.0362  0.0237 -0.5110
 1225DPPI   C2A18430   1.398  14.241   6.873  0.0174 -0.0547 -0.0608
 1225DPPI   C3A18431   1.393  14.115   7.273 -0.3477  0.0871 -0.1337
 1225DPPI   C4A18432   1.417  14.207   7.699 -0.0707  0.0948  0.1115
 1225DPPI   C1B18433   1.044  14.072   6.587 -0.0059 -0.1995  0.0392
 1225DPPI   C2B18434   0.936  13.939   6.983 -0.0270  0.2724 -0.0828
 1225DPPI   C3B18435   0.828  13.955   7.409  0.0656 -0.0435  0.0006
 1225DPPI   C4B18436   0.951  14.026   7.835  0.0761 -0.1461  0.0226
 1226DPPI    C118437   2.498   2.042   5.268  0.0339 -0.2060 -0.0860
 1226DPPI    C218438   2.338   1.880   4.939 -0.0690  0.0332 -0.1553
 1226DPPI    C318439   2.663   2.112   4.910 -0.1161  0.1069 -0.0969
 1226DPPI   PO418440   2.468   1.882   5.462 -0.1051  0.1824 -0.2634
 1226DPPI   GL118441   2.602   1.989   5.830  0.1198  0.0010 -0.2873
 1226DPPI   GL218442   2.930   2.007   5.839 -0.1001 -0.0837  0.1838
 1226DPPI   C1A18443   2.308   2.170   6.161  0.0282 -0.0791  0.0531
 1226DPPI   C2A18444   2.210   2.283   6.553 -0.1447  0.3405  0.0000
 1226DPPI   C3A18445   2.097   2.153   6.872  0.0838  0.2657  0.1389
 1226DPPI   C4A18446   1.994   1.837   7.057 -0.3081 -0.0109 -0.0259
 1226DPPI   C1B18447   2.843   2.102   6.285  0.0225  0.1336  0.3950
 1226DPPI   C2B18448   2.683   2.243   6.630  0.0064  0.0724 -0.0619
 1226DPPI   C3B18449   2.501   2.374   6.981  0.0865 -0.2513  0.0270
 1226DPPI   C4B18450   2.656   2.548   7.346 -0.1094  0.2659 -0.4615
 1227DPPI    C118451   4.251   6.228   5.503 -0.1220 -0.0436  0.0479
 1227DPPI    C218452   4.134   6.564   5.687 -0.3600  0.0085 -0.1914
 1227DPPI    C318453   4.497   6.544   5.519 -0.1813 -0.0033  0.1842
 1227DPPI   PO418454   4.122   6.081   5.679 -0.0530  0.0311  0.1065
 1227DPPI   GL118455   3.754   5.993   5.931  0.1812 -0.1832 -0.0149
 1227DPPI   GL218456   3.836   6.341   5.994  0.0626 -0.0335 -0.0150
 1227DPPI   C1A18457   3.754   5.785   6.359 -0.1433 -0.0462  0.0077
 1227DPPI   C2A18458   3.810   5.750   6.794 -0.2874 -0.1251  0.3111
 1227DPPI   C3A18459   3.937   5.814   7.176  0.2731  0.1424 -0.0392
 1227DPPI   C4A18460   3.986   5.850   7.563 -0.0919  0.0521  0.4072
 1227DPPI   C1B18461   4.080   6.160   6.399 -0.3026  0.3909 -0.1711
 1227DPPI   C2B18462   4.251   6.235   6.856 -0.3046 -0.1346  0.1556
 1227DPPI   C3B18463   4.118   6.314   7.323  0.3360  0.0637 -0.1085
 1227DPPI   C4B18464   4.295   6.138   7.761 -0.2111 -0.1726  0.1285
 1228PYPI    C118465   9.997   6.349   5.386 -0.1488  0.0773 -0.0208
 1228PYPI    C218466   9.986   6.620   5.092  0.1029  0.1268  0.0133
 1228PYPI    C318467   9.648   6.509   5.274 -0.0347  0.2169 -0.1833
 1228PYPI   PO418468  10.177   6.354   5.627  0.1771  0.0223 -0.0462
 1228PYPI   GL118469  10.031   6.299   6.115 -0.0684 -0.0096  0.0674
 1228PYPI   GL218470  10.112   6.699   5.999 -0.0106 -0.0027 -0.0428
 1228PYPI   C1A18471  10.268   6.196   6.504  0.2147  0.1048 -0.2319
 1228PYPI   C2A18472  10.339   6.193   6.925 -0.1277  0.2129  0.5129
 1228PYPI   D3A18473  10.439   6.376   7.327 -0.0242  0.0734  0.2780
 1228PYPI   C4A18474  10.474   6.066   7.744 -0.0397  0.3857  0.1560
 1228PYPI   C1B18475  10.011   6.657   6.462 -0.2530  0.0226 -0.0516
 1228PYPI   C2B18476   9.972   6.642   6.881 -0.1760 -0.0268  0.2110
 1228PYPI   C3B18477   9.944   6.478   7.320 -0.1814 -0.1169  0.2224
 1228PYPI   C4B18478  10.193   6.447   7.735 -0.1576  0.0820 -0.0137
 1229PYPI    C118479   6.084   5.480   5.773 -0.3313 -0.1859 -0.0333
 1229PYPI    C218480   5.890   5.137   5.843 -0.0768 -0.3136  0.0615
 1229PYPI    C318481   6.265   5.130   5.704 -0.1281 -0.0704 -0.0953
 1229PYPI   PO418482   6.134   5.628   5.943 -0.3726 -0.1188 -0.2295
 1229PYPI   GL118483   5.958   5.790   6.379 -0.3059 -0.3357  0.3435
 1229PYPI   GL218484   5.782   5.437   6.277  0.1792  0.1781  0.1792
 1229PYPI   C1A18485   6.069   5.762   6.727 -0.0022 -0.0628 -0.2258
 1229PYPI   C2A18486   6.208   5.968   7.123  0.0531  0.0561 -0.0994
 1229PYPI   D3A18487   6.385   5.897   7.558  0.1494 -0.2593 -0.1572
 1229PYPI   C4A18488   6.396   5.597   7.911  0.0130  0.2806 -0.2895
 1229PYPI   C1B18489   5.758   5.307   6.705 -0.0282 -0.3961 -0.0241
 1229PYPI   C2B18490   5.813   5.433   7.108  0.0985 -0.0646  0.3211
 1229PYPI   C3B18491   5.959   5.465   7.500 -0.1071 -0.1405 -0.1261
 1229PYPI   C4B18492   6.056   5.190   7.799 -0.0472 -0.2609 -0.0259
 1230PYPI    C118493   7.541  17.383   5.291  0.1352  0.0382 -0.0521
 1230PYPI    C218494   7.269  17.659   5.192  0.0192  0.0084  0.1775
 1230PYPI    C318495   7.207  17.276   5.098  0.1411  0.0466 -0.0670
 1230PYPI   PO418496   7.611  17.432   5.588  0.3168  0.0460  0.0682
 1230PYPI   GL118497   7.631  17.506   6.016 -0.0747 -0.2374 -0.2206
 1230PYPI   GL218498   7.348  17.560   6.050  0.3042  0.0102  0.4062
 1230PYPI   C1A18499   7.683  17.327   6.491 -0.0605  0.0376  0.1120
 1230PYPI   C2A18500   7.913  17.362   6.973 -0.2573 -0.0175 -0.0861
 1230PYPI   D3A18501   7.991  17.514   7.366  0.0650  0.1396  0.1719
 1230PYPI   C4A18502   8.223  17.311   7.580  0.0613  0.2038  0.2065
 1230PYPI   C1B18503   7.250  17.690   6.467 -0.0983  0.1138  0.0176
 1230PYPI   C2B18504   7.517  17.637   6.810 -0.1659 -0.0434 -0.0556
 1230PYPI   C3B18505   7.517  17.536   7.306 -0.0038  0.1336  0.0154
 1230PYPI   C4B18506   7.636  17.700   7.692 -0.0344  0.2180  0.2273
 1231PYPI    C118507  16.643   9.457   5.574  0.1220  0.2370  0.1434
 1231PYPI    C218508  16.742   9.599   5.213  0.0532  0.1230  0.0790
 1231PYPI    C318509  16.472   9.791   5.437 -0.1717 -0.0005 -0.0829
 1231PYPI   PO418510  16.554   9.247   5.754 -0.1583 -0.0420 -0.0518
 1231PYPI   GL118511  16.676   8.964   6.102 -0.3176 -0.3031  0.1642
 1231PYPI   GL218512  16.765   8.613   6.193 -0.2410  0.1392 -0.2680
 1231PYPI   C1A18513  16.855   8.904   6.580 -0.0699 -0.0039 -0.0501
 1231PYPI   C2A18514  16.801   9.056   6.989  0.1832 -0.1155  0.1680
 1231PYPI   D3A18515  16.603   9.195   7.419 -0.1182  0.0327 -0.0209
 1231PYPI   C4A18516  16.528   8.885   7.812  0.0731  0.0974  0.1951
 1231PYPI   C1B18517  16.454   8.687   6.466  0.1326  0.0162  0.2469
 1231PYPI   C2B18518  16.395   8.731   6.860  0.0846 -0.5097  0.2129
 1231PYPI   C3B18519  16.573   8.708   7.283  0.0316  0.2084 -0.1773
 1231PYPI   C4B18520  16.846   8.511   7.617 -0.2229 -0.3620 -0.0034
 1232PYPI    C118521   0.194  16.832   4.903  0.1005  0.1524  0.0536
 1232PYPI    C218522   0.381  16.727   4.566  0.1533  0.1083  0.0965
 1232PYPI    C318523   0.442  17.089   4.724  0.1624  0.1130  0.0823
 1232PYPI   PO418524   0.231  16.630   5.045  0.0973 -0.0029  0.0375
 1232PYPI   GL118525   0.215  16.454   5.443  0.1614  0.1700 -0.1126
 1232PYPI   GL218526  -0.151  16.434   5.705  0.2931  0.2642  0.0480
 1232PYPI   C1A18527   0.320  16.456   5.916 -0.1386 -0.1170  0.0559
 1232PYPI   C2A18528   0.381  16.595   6.313  0.3371  0.0087 -0.0400
 1232PYPI   D3A18529   0.302  16.624   6.695 -0.0734 -0.1189 -0.0759
 1232PYPI   C4A18530   0.289  16.669   7.134 -0.0465  0.0465  0.0626
 1232PYPI   C1B18531  -0.152  16.261   6.137  0.3630 -0.2547 -0.0856
 1232PYPI   C2B18532  -0.142  16.359   6.510 -0.0290  0.0567  0.0420
 1232PYPI   C3B18533  -0.152  16.383   6.964  0.0575 -0.0355 -0.1830
 1232PYPI   C4B18534  -0.050  16.370   7.403  0.0049  0.3000 -0.1042
 1233PYPI    C118535   6.994  13.906   5.535  0.0466  0.0541  0.2419
 1233PYPI    C218536   7.134  14.177   5.276 -0.1485 -0.0278  0.0474
 1233PYPI    C318537   7.239  13.793   5.239 -0.1506 -0.0345  0.1101
 1233PYPI   PO418538   6.870  14.066   5.749  0.1070 -0.1577  0.1794
 1233PYPI   GL118539   6.762  13.919   6.075 -0.0028  0.1473 -0.1996
 1233PYPI   GL218540   6.994  13.683   6.083 -0.1181 -0.3192  0.1384
 1233PYPI   C1A18541   6.693  14.025   6.532  0.0820  0.0271 -0.2700
 1233PYPI   C2A18542   6.609  13.997   6.982  0.0022  0.3430  0.0091
 1233PYPI   D3A18543   6.448  14.002   7.436  0.1013  0.2486 -0.0682
 1233PYPI   C4A18544   6.605  14.128   7.725  0.3449  0.1707 -0.1094
 1233PYPI   C1B18545   7.077  13.739   6.448  0.2016 -0.0774  0.3679
 1233PYPI   C2B18546   6.943  13.674   6.836 -0.1008  0.0520 -0.0004
 1233PYPI   C3B18547   7.078  13.699   7.204  0.2290 -0.0546 -0.1039
 1233PYPI   C4B18548   6.935  13.770   7.515 -0.2130 -0.1235  0.1183
 1234PYPI    C118549   8.092  11.127   5.883  0.2368  0.0158  0.1341
 1234PYPI    C218550   7.860  10.803   5.922  0.0890  0.0866 -0.1346
 1234PYPI    C318551   8.250  10.761   5.844  0.0738 -0.0272 -0.1511
 1234PYPI   PO418552   7.858  11.327   5.899 -0.3834  0.2043 -0.0758
 1234PYPI   GL118553   7.708  11.508   6.374  0.2677  0.1572  0.1353
 1234PYPI   GL218554   7.593  11.267   6.306  0.2830 -0.1450 -0.0136
 1234PYPI   C1A18555   7.587  11.350   6.785  0.0091  0.1609  0.1677
 1234PYPI   C2A18556   7.871  11.544   7.120 -0.1065  0.4469 -0.1455
 1234PYPI   D3A18557   7.906  11.714   7.481  0.0294 -0.0987  0.1170
 1234PYPI   C4A18558   8.110  11.728   7.814 -0.1648  0.1343  0.2101
 1234PYPI   C1B18559   7.702  10.919   6.516 -0.2954 -0.1903  0.0440
 1234PYPI   C2B18560   8.028  10.919   6.860 -0.0403  0.1696  0.0955
 1234PYPI   C3B18561   8.135  11.033   7.275  0.0238 -0.0728  0.4454
 1234PYPI   C4B18562   8.286  11.392   7.489 -0.0175  0.1421 -0.1931
 1235PYPI    C118563  12.369   0.599   5.350  0.0983 -0.2419  0.1064
 1235PYPI    C218564  12.742   0.730   5.409  0.0051  0.0150  0.1388
 1235PYPI    C318565  12.642   0.562   5.060  0.0505  0.3120 -0.0207
 1235PYPI   PO418566  12.361   0.537   5.668 -0.1168 -0.0905  0.1140
 1235PYPI   GL118567  12.345   0.498   6.053 -0.0544  0.1602 -0.3303
 1235PYPI   GL218568  12.656   0.795   5.916 -0.0125 -0.0064 -0.1997
 1235PYPI   C1A18569  12.286   0.443   6.520 -0.1433 -0.0936 -0.1680
 1235PYPI   C2A18570  12.180   0.456   6.982 -0.3924 -0.0558  0.0078
 1235PYPI   D3A18571  12.176   0.369   7.426 -0.3876  0.1083 -0.0745
 1235PYPI   C4A18572  11.791   0.328   7.624 -0.1206  0.1742 -0.1620
 1235PYPI   C1B18573  12.851   0.584   6.227  0.1265  0.2059  0.1314
 1235PYPI   C2B18574  12.815   0.482   6.674  0.3852 -0.0972  0.1510
 1235PYPI   C3B18575  12.708   0.481   7.152  0.1787 -0.4235 -0.2121
 1235PYPI   C4B18576  12.744   0.486   7.618 -0.0952  0.2383 -0.1632
 1236PYPI    C118577   8.136   4.028   5.181  0.1144  0.1415  0.1217
 1236PYPI    C218578   8.009   4.352   4.984  0.3349  0.0645 -0.1528
 1236PYPI    C318579   8.190   4.055   4.786  0.0333 -0.2817  0.0765
 1236PYPI   PO418580   8.161   4.117   5.412  0.1067  0.1154  0.1454
 1236PYPI   GL118581   8.121   3.974   5.801 -0.1354  0.2513 -0.2078
 1236PYPI   GL218582   8.013   3.739   6.015 -0.1417  0.0175 -0.0074
 1236PYPI   C1A18583   8.375   4.178   6.145  0.1953 -0.0458 -0.2149
 1236PYPI   C2A18584   8.441   4.148   6.563 -0.0771  0.3246 -0.1360
 1236PYPI   D3A18585   8.207   3.985   6.881 -0.2237  0.1851  0.3266
 1236PYPI   C4A18586   8.115   4.207   7.239  0.0582 -0.1935 -0.0622
 1236PYPI   C1B18587   8.072   3.753   6.478 -0.2652  0.0682  0.0450
 1236PYPI   C2B18588   7.949   3.541   6.881  0.1101  0.2792 -0.1698
 1236PYPI   C3B18589   8.021   3.716   7.312 -0.2595  0.0301 -0.0614
 1236PYPI   C4B18590   8.200   3.693   7.769 -0.0074 -0.1172 -0.3067
 1237PYPI    C118591   1.893   4.284   5.307 -0.2400 -0.1133 -0.3538
 1237PYPI    C218592   2.016   3.903   5.306 -0.1851 -0.0955 -0.4028
 1237PYPI    C318593   1.626   3.987   5.280 -0.2115 -0.1531 -0.2078
 1237PYPI   PO418594   2.011   4.373   5.578  0.1436  0.3569 -0.1456
 1237PYPI   GL118595   2.080   4.549   6.007  0.0625 -0.2248 -0.1570
 1237PYPI   GL218596   2.323   4.781   5.955 -0.2490 -0.3117 -0.1413
 1237PYPI   C1A18597   1.884   4.596   6.414 -0.0922 -0.1539 -0.0067
 1237PYPI   C2A18598   1.974   4.453   6.845  0.0147  0.1450 -0.1341
 1237PYPI   D3A18599   1.984   4.656   7.308 -0.1000  0.0377  0.0872
 1237PYPI   C4A18600   2.176   4.580   7.785 -0.0436 -0.0432 -0.1076
 1237PYPI   C1B18601   2.263   4.882   6.401 -0.2311  0.1767  0.0901
 1237PYPI   C2B18602   2.380   4.958   6.781  0.3294  0.3956 -0.2459
 1237PYPI   C3B18603   2.412   4.970   7.259 -0.0427 -0.1276 -0.1940
 1237PYPI   C4B18604   2.317   5.026   7.690  0.1981 -0.0691 -0.0061
 1238PYPI    C118605  16.457  11.840   5.668  0.1476  0.1140  0.4413
 1238PYPI    C218606  16.533  12.217   5.557  0.0688 -0.0105 -0.0590
 1238PYPI    C318607  16.163  12.112   5.665  0.0893  0.0517  0.0744
 1238PYPI   PO418608  16.610  11.772   5.835 -0.2708 -0.2203  0.1073
 1238PYPI   GL118609  16.806  11.672   6.255  0.2292 -0.2102  0.2325
 1238PYPI   GL218610  16.741  11.335   6.289  0.0331 -0.0484  0.1840
 1238PYPI   C1A18611  16.681  11.601   6.756 -0.0456 -0.0413 -0.0801
 1238PYPI   C2A18612  16.759  11.468   7.146 -0.1283  0.1796 -0.0281
 1238PYPI   D3A18613  16.497  11.349   7.470 -0.2487  0.0712 -0.1750
 1238PYPI   C4A18614  16.592  11.322   7.884 -0.2639 -0.0641 -0.1229
 1238PYPI   C1B18615  17.080  11.368   6.563  0.1383  0.2383  0.0337
 1238PYPI   C2B18616  17.162  11.634   6.953 -0.2542 -0.0495  0.0426
 1238PYPI   C3B18617  17.185  11.726   7.268  0.3842 -0.0076  0.1707
 1238PYPI   C4B18618  17.533  11.730   7.598 -0.0712 -0.0870  0.1153
 1239PYPI    C118619  17.431   6.794   5.974 -0.0076 -0.0526  0.1253
 1239PYPI    C218620  17.441   7.173   5.844 -0.0226 -0.0284  0.1945
 1239PYPI    C318621  17.782   6.979   5.922 -0.0168 -0.0077  0.2207
 1239PYPI   PO418622  17.219   6.794   6.211  0.3123  0.0373  0.0084
 1239PYPI   GL118623  17.334   6.875   6.769 -0.1154 -0.1877  0.1556
 1239PYPI   GL218624  17.430   7.119   6.970  0.1993 -0.3612 -0.0288
 1239PYPI   C1A18625  17.541   6.555   7.011 -0.0554 -0.1583 -0.1176
 1239PYPI   C2A18626  17.769   6.449   7.331 -0.0958  0.0149  0.4788
 1239PYPI   D3A18627  17.738   6.033   7.557  0.1136  0.0726 -0.3627
 1239PYPI   C4A18628  18.149   6.061   7.877 -0.3194  0.0384  0.1862
 1239PYPI   C1B18629  17.525   6.985   7.312  0.5445  0.0114  0.3739
 1239PYPI   C2B18630  17.518   6.733   7.675 -0.1218  0.1268  0.1766
 1239PYPI   C3B18631  17.703   6.409   7.943 -0.1064  0.2372  0.0607
 1239PYPI   C4B18632  17.675   6.060   8.191 -0.1307  0.1368 -0.2598
 1240PYPI    C118633   0.296   8.218   5.797  0.0725  0.1358  0.2061
 1240PYPI    C218634   0.696   8.221   5.781  0.0761 -0.2521  0.1102
 1240PYPI    C318635   0.489   7.966   5.552 -0.2321  0.0053  0.0952
 1240PYPI   PO418636   0.304   8.262   6.148 -0.3834  0.1666  0.0762
 1240PYPI   GL118637   0.194   8.440   6.540  0.1653  0.1828 -0.3066
 1240PYPI   GL218638  -0.077   8.247   6.513 -0.1364 -0.1807  0.1694
 1240PYPI   C1A18639   0.175   8.546   6.968  0.0175  0.0069  0.0784
 1240PYPI   C2A18640   0.228   8.301   7.328  0.0614  0.0598 -0.0378
 1240PYPI   D3A18641   0.220   8.127   7.715 -0.1165  0.2691 -0.0617
 1240PYPI   C4A18642   0.490   7.823   7.940  0.1390 -0.1033  0.0008
 1240PYPI   C1B18643  -0.102   8.130   6.908 -0.1734  0.0058 -0.1741
 1240PYPI   C2B18644  -0.142   7.896   7.415 -0.0440 -0.2135  0.3264
 1240PYPI   C3B18645  -0.226   7.611   7.701 -0.1844 -0.2111  0.4248
 1240PYPI   C4B18646  -0.353   7.520   8.074 -0.1223 -0.2143  0.2352
 1241PYPI    C118647  12.250   4.401   5.601 -0.0244 -0.1016  0.0199
 1241PYPI    C218648  12.251   4.791   5.692 -0.3822 -0.0668 -0.1094
 1241PYPI    C318649  12.296   4.674   5.312 -0.2537 -0.1534 -0.0680
 1241PYPI   PO418650  12.338   4.292   5.827  0.1931 -0.1884 -0.1531
 1241PYPI   GL118651  12.327   4.472   6.155  0.0976  0.2585 -0.1555
 1241PYPI   GL218652  12.182   4.797   6.248 -0.1665  0.0019 -0.4118
 1241PYPI   C1A18653  12.362   4.272   6.605  0.2034  0.0803 -0.4246
 1241PYPI   C2A18654  12.326   4.186   7.036 -0.1030 -0.2393  0.1294
 1241PYPI   D3A18655  12.210   4.027   7.456  0.1958  0.0980  0.1373
 1241PYPI   C4A18656  12.409   3.613   7.716  0.1328  0.0415 -0.0330
 1241PYPI   C1B18657  12.145   4.726   6.615 -0.1522  0.3335 -0.5960
 1241PYPI   C2B18658  12.223   4.675   7.021  0.2622 -0.2119  0.1047
 1241PYPI   C3B18659  12.067   4.780   7.378 -0.0609 -0.2612 -0.1164
 1241PYPI   C4B18660  11.920   4.896   7.687  0.0593  0.1441  0.3180
 1242PYPI    C118661   8.918   7.753   5.583 -0.0256  0.1589 -0.2624
 1242PYPI    C218662   9.306   7.677   5.645 -0.0635  0.1563 -0.0156
 1242PYPI    C318663   9.167   7.718   5.272  0.1113 -0.1714 -0.1210
 1242PYPI   PO418664   8.793   7.596   5.849 -0.3685  0.0504  0.0398
 1242PYPI   GL118665   8.622   7.769   6.268  0.0491 -0.1779 -0.2652
 1242PYPI   GL218666   8.983   7.570   6.298 -0.1077  0.0513 -0.0136
 1242PYPI   C1A18667   8.830   7.937   6.592  0.0977  0.0945 -0.0594
 1242PYPI   C2A18668   8.907   8.077   6.995  0.0137 -0.2003  0.1567
 1242PYPI   D3A18669   9.075   8.345   7.347  0.3982  0.1458  0.0923
 1242PYPI   C4A18670   8.947   8.290   7.701  0.1048  0.0915 -0.1296
 1242PYPI   C1B18671   8.912   7.493   6.731 -0.0588 -0.3362  0.3149
 1242PYPI   C2B18672   8.893   7.438   7.175  0.1476 -0.0076 -0.1431
 1242PYPI   C3B18673   8.681   7.400   7.585 -0.1189  0.0337  0.2573
 1242PYPI   C4B18674   8.645   7.276   7.976  0.0279 -0.0533 -0.1672
 1243PYPI    C118675   5.144   7.477   5.602  0.4585  0.0143  0.1329
 1243PYPI    C218676   4.984   7.838   5.534  0.3001 -0.0450  0.1849
 1243PYPI    C318677   5.248   7.684   5.276  0.0462 -0.0743 -0.0622
 1243PYPI   PO418678   5.171   7.581   5.924 -0.1298 -0.2022  0.1322
 1243PYPI   GL118679   5.408   7.439   6.239 -0.0976  0.0684 -0.1424
 1243PYPI   GL218680   5.499   7.094   6.263 -0.2270 -0.1655 -0.3144
 1243PYPI   C1A18681   5.344   7.696   6.605 -0.1558  0.1130 -0.0612
 1243PYPI   C2A18682   5.204   7.609   6.912 -0.1799  0.0242 -0.0814
 1243PYPI   D3A18683   5.080   7.346   7.135 -0.0279 -0.0063 -0.0524
 1243PYPI   C4A18684   4.796   7.579   7.323 -0.0278  0.0129  0.2294
 1243PYPI   C1B18685   5.262   7.143   6.666 -0.0665 -0.3498 -0.3863
 1243PYPI   C2B18686   4.824   7.254   6.735  0.1577  0.0708  0.0501
 1243PYPI   C3B18687   4.515   7.275   6.903  0.0499  0.0179  0.2450
 1243PYPI   C4B18688   4.083   7.250   6.896  0.1676  0.0274 -0.1772
 1244PYPI    C118689  13.432   4.811   5.527 -0.1479 -0.3529  0.1455
 1244PYPI    C218690  13.400   5.155   5.325 -0.0713 -0.2647  0.2823
 1244PYPI    C318691  13.344   4.807   5.137  0.1936 -0.1922  0.0627
 1244PYPI   PO418692  13.348   4.877   5.772  0.0253 -0.3587 -0.2341
 1244PYPI   GL118693  13.363   4.931   6.156 -0.2891  0.0807 -0.1289
 1244PYPI   GL218694  13.514   5.187   6.285 -0.0952 -0.3122  0.0663
 1244PYPI   C1A18695  13.251   4.903   6.618 -0.3008  0.0572  0.1126
 1244PYPI   C2A18696  13.368   4.806   6.999  0.3034 -0.0044  0.0837
 1244PYPI   D3A18697  13.418   4.740   7.385 -0.0918 -0.0442  0.2467
 1244PYPI   C4A18698  13.162   4.507   7.569 -0.3544 -0.0458 -0.3333
 1244PYPI   C1B18699  13.727   5.104   6.740  0.2284 -0.0835  0.1677
 1244PYPI   C2B18700  13.851   5.053   7.166 -0.0677 -0.2243  0.2513
 1244PYPI   C3B18701  13.768   4.938   7.578 -0.1784  0.1543 -0.0199
 1244PYPI   C4B18702  13.472   4.893   7.904 -0.0599 -0.1306 -0.0829
 1245PYPI    C118703  10.620   9.439   5.691 -0.0272 -0.0429 -0.2063
 1245PYPI    C218704  10.640   9.825   5.794 -0.2882 -0.0773 -0.0164
 1245PYPI    C318705  10.431   9.715   5.471 -0.2650 -0.0664 -0.0351
 1245PYPI   PO418706  10.615   9.362   6.014  0.0541 -0.1992  0.1903
 1245PYPI   GL118707  10.768   9.207   6.374 -0.1743 -0.1892  0.1655
 1245PYPI   GL218708  10.443   9.436   6.478  0.1244 -0.0248 -0.1667
 1245PYPI   C1A18709  10.780   9.134   6.761 -0.0342  0.0378  0.1741
 1245PYPI   C2A18710  10.858   9.125   7.197 -0.0043 -0.0221 -0.0636
 1245PYPI   D3A18711  10.826   9.267   7.563 -0.0698  0.1250 -0.1707
 1245PYPI   C4A18712  10.565   9.347   7.958  0.1102  0.1936 -0.0929
 1245PYPI   C1B18713  10.757   9.635   6.768  0.3553 -0.2116 -0.0520
 1245PYPI   C2B18714  10.835   9.740   7.163  0.0315 -0.0859  0.0485
 1245PYPI   C3B18715  10.905   9.737   7.526 -0.3095 -0.0076  0.1176
 1245PYPI   C4B18716  10.966   9.718   7.973  0.1774  0.0395 -0.3541
 1246PYPI    C118717   6.264  10.597   5.758 -0.0051 -0.0645  0.1051
 1246PYPI    C218718   6.042  10.777   5.477 -0.0242 -0.2746 -0.0162
 1246PYPI    C318719   5.877  10.672   5.826  0.0275  0.0917  0.1225
 1246PYPI   PO418720   6.498  10.746   5.776 -0.0760  0.3489  0.4155
 1246PYPI   GL118721   6.651  10.799   6.110  0.0543 -0.1513 -0.0269
 1246PYPI   GL218722   6.877  10.630   6.123  0.0585 -0.0075  0.1583
 1246PYPI   C1A18723   6.510  10.894   6.585 -0.0663 -0.1356  0.0060
 1246PYPI   C2A18724   6.446  11.023   7.065 -0.0925 -0.1519  0.1637
 1246PYPI   D3A18725   6.542  11.132   7.496 -0.0596 -0.1207 -0.1838
 1246PYPI   C4A18726   6.828  11.140   7.824 -0.2748  0.1102 -0.2331
 1246PYPI   C1B18727   6.996  10.544   6.448 -0.0918 -0.3897 -0.1754
 1246PYPI   C2B18728   7.332  10.679   6.715 -0.1178  0.2037 -0.0745
 1246PYPI   C3B18729   7.592  10.820   7.038 -0.0457  0.2928  0.3851
 1246PYPI   C4B18730   7.512  11.220   7.285  0.2712 -0.1486 -0.0094
 1247PYPI    C118731   9.841   0.829   5.116 -0.2342 -0.0496  0.3009
 1247PYPI    C218732   9.495   0.770   4.924 -0.1319 -0.1005  0.1296
 1247PYPI    C318733   9.732   0.460   5.006 -0.0513 -0.0464  0.1022
 1247PYPI   PO418734   9.727   0.886   5.357 -0.0302 -0.0625  0.1590
 1247PYPI   GL118735   9.636   0.988   5.752 -0.0926 -0.0056 -0.0219
 1247PYPI   GL218736   9.903   0.809   5.845 -0.1339 -0.1046  0.1423
 1247PYPI   C1A18737   9.374   1.146   6.130  0.1330 -0.0827  0.0176
 1247PYPI   C2A18738   9.405   1.378   6.488  0.0026 -0.0281  0.0355
 1247PYPI   D3A18739   9.371   1.849   6.605  0.0885 -0.2080 -0.1970
 1247PYPI   C4A18740   9.087   1.908   7.008  0.1839  0.2138  0.0192
 1247PYPI   C1B18741   9.883   0.931   6.195 -0.1940 -0.1578 -0.0034
 1247PYPI   C2B18742   9.848   1.013   6.573 -0.3097 -0.0671  0.3187
 1247PYPI   C3B18743   9.722   1.190   6.906  0.0821  0.1540  0.4472
 1247PYPI   C4B18744   9.438   1.510   7.014  0.0953 -0.2134 -0.0718
 1248ERGO   ROH18745   9.685  14.073   5.952  0.1073  0.1859  0.0214
 1248ERGO    R118746   9.699  14.175   6.216  0.2572  0.2994 -0.0287
 1248ERGO    R218747   9.645  14.020   6.438 -0.0657  0.5049  0.0473
 1248ERGO    R318748   9.891  14.105   6.516  0.0898  0.0923  0.0313
 1248ERGO    R418749   9.724  14.126   6.757  0.0550  0.6842 -0.0402
 1248ERGO    R518750   9.846  14.285   6.669  0.4068  0.3505 -0.1699
 1248ERGO    C118751  10.001  14.268   7.017  0.2713  0.4012 -0.1061
 1248ERGO    C218752   9.977  14.128   7.279  0.0954  0.3702 -0.0041
 1249ERGO   ROH18753   0.848  17.777   5.805 -0.0647 -0.1680  0.0894
 1249ERGO    R118754   0.882  17.950   6.027  0.0838 -0.0518 -0.0228
 1249ERGO    R218755   0.676  18.016   6.198  0.1517  0.1957 -0.0335
 1249ERGO    R318756   0.848  17.927   6.388  0.1182  0.1977 -0.0018
 1249ERGO    R418757   0.606  18.000   6.536  0.0468  0.0798 -0.0592
 1249ERGO    R518758   0.809  18.070   6.576  0.0122  0.1334  0.0258
 1249ERGO    C118759   0.728  17.908   6.912 -0.0457  0.0142 -0.0444
 1249ERGO    C218760   0.734  17.882   7.304  0.1099  0.1497 -0.0972
 1250ERGO   ROH18761   8.226   6.318   6.175 -0.1887 -0.3301 -0.1242
 1250ERGO    R118762   8.110   6.251   6.424 -0.0191 -0.0745  0.0288
 1250ERGO    R218763   8.132   5.999   6.536 -0.1797 -0.0451  0.1395
 1250ERGO    R318764   8.228   6.137   6.749  0.1820 -0.0286 -0.0282
 1250ERGO    R418765   8.134   5.883   6.861 -0.2101  0.2328  0.2411
 1250ERGO    R518766   8.078   6.083   6.928  0.1804  0.3920  0.1042
 1250ERGO    C118767   8.226   5.945   7.251  0.1118  0.4101  0.1427
 1250ERGO    C218768   8.296   5.861   7.522  0.1703 -0.2248  0.0977
 1251ERGO   ROH18769  11.004   8.246   6.332 -0.2226 -0.0766  0.1526
 1251ERGO    R118770  11.154   8.283   6.569 -0.2184  0.0260  0.1345
 1251ERGO    R218771  11.042   8.264   6.821 -0.1794 -0.0307  0.1490
 1251ERGO    R318772  11.242   8.084   6.860 -0.0651  0.0919  0.1335
 1251ERGO    R418773  11.204   8.212   7.122 -0.0338  0.1547  0.1047
 1251ERGO    R518774  11.392   8.194   7.012 -0.0664  0.2222  0.0402
 1251ERGO    C118775  11.486   8.013   7.334  0.1584  0.3778  0.0643
 1251ERGO    C218776  11.548   8.020   7.665 -0.0845 -0.3175  0.0821
 1252ERGO   ROH18777  15.975  10.844   6.321  0.0824 -0.1113 -0.0455
 1252ERGO    R118778  15.863  10.912   6.572  0.1494  0.0287 -0.0523
 1252ERGO    R218779  15.723  10.732   6.726 -0.1466  0.2148 -0.0905
 1252ERGO    R318780  15.902  10.805   6.917 -0.0554 -0.0747 -0.0612
 1252ERGO    R418781  15.686  10.670   7.064 -0.2484  0.1954 -0.1048
 1252ERGO    R518782  15.766  10.870   7.104  0.0258  0.0751 -0.0569
 1252ERGO    C118783  15.833  10.703   7.441 -0.2220 -0.0878 -0.0856
 1252ERGO    C218784  15.852  10.666   7.910 -0.2192 -0.1754 -0.3808
 1253ERGO   ROH18785  12.106   2.398   5.890 -0.0765  0.3611  0.0582
 1253ERGO    R118786  12.033   2.221   6.098 -0.1757  0.2465 -0.0723
 1253ERGO    R218787  12.149   2.229   6.349 -0.1185 -0.0514 -0.0856
 1253ERGO    R318788  11.892   2.249   6.433 -0.0869  0.0850 -0.0198
 1253ERGO    R418789  12.045   2.196   6.677 -0.0776 -0.2397 -0.0906
 1253ERGO    R518790  11.872   2.084   6.605 -0.1822 -0.0445 -0.1511
 1253ERGO    C118791  11.743   2.196   6.946 -0.0243 -0.2212 -0.0317
 1253ERGO    C218792  11.825   2.244   7.230 -0.0969 -0.2336 -0.0520
 1254ERGO   ROH18793  17.513  11.613   6.328  0.1312  0.0565 -0.0398
 1254ERGO    R118794  17.520  11.667   6.606  0.0884  0.2138 -0.0705
 1254ERGO    R218795  17.603  11.481   6.791 -0.2092  0.2252  0.0660
 1254ERGO    R318796  17.773  11.679   6.867  0.0033  0.0667  0.0238
 1254ERGO    R418797  17.790  11.481   7.082 -0.2964  0.1278  0.1251
 1254ERGO    R518798  17.746  11.694   7.104 -0.0587  0.2007  0.0162
 1254ERGO    C118799  18.058  11.667   7.322 -0.1480 -0.0776  0.1200
 1254ERGO    C218800  18.379  11.643   7.509  0.0955 -0.1321  0.0519
 1255ERGO   ROH18801   7.181  11.608   6.267  0.3636  0.0523  0.0084
 1255ERGO    R118802   7.255  11.637   6.539  0.1385  0.1141  0.0641
 1255ERGO    R218803   7.096  11.769   6.722 -0.1393 -0.0728 -0.0389
 1255ERGO    R318804   7.119  11.537   6.862  0.0167 -0.0585 -0.0376
 1255ERGO    R418805   7.096  11.746   7.067 -0.0766 -0.0628 -0.0374
 1255ERGO    R518806   7.254  11.595   7.051  0.0120  0.0266 -0.0573
 1255ERGO    C118807   7.118  11.514   7.399  0.1064 -0.0436 -0.0353
 1255ERGO    C218808   7.102  11.798   7.693 -0.0317 -0.0280  0.2803
 1256ERGO   ROH18809   8.665   6.226   6.222  0.0695  0.1621  0.0323
 1256ERGO    R118810   8.580   6.207   6.491  0.0971 -0.0279  0.0291
 1256ERGO    R218811   8.612   5.978   6.641  0.3121 -0.0645 -0.0670
 1256ERGO    R318812   8.736   6.147   6.814  0.1668 -0.0220 -0.0036
 1256ERGO    R418813   8.630   5.932   6.983  0.0193  0.0262 -0.0363
 1256ERGO    R518814   8.596   6.145   7.009  0.0004  0.0323 -0.1214
 1256ERGO    C118815   8.757   6.064   7.345 -0.2876  0.1190  0.0412
 1256ERGO    C218816   8.780   5.917   7.664  0.0902  0.3098  0.1434
 1257ERGO   ROH18817   7.136  11.019   6.384 -0.1640 -0.1887 -0.0398
 1257ERGO    R118818   7.075  11.134   6.635 -0.0258 -0.0287 -0.0778
 1257ERGO    R218819   6.926  11.003   6.827 -0.0542  0.1545  0.0278
 1257ERGO    R318820   7.141  11.057   6.985  0.0221  0.1016 -0.0571
 1257ERGO    R418821   6.931  10.973   7.171 -0.0180  0.4232  0.0526
 1257ERGO    R518822   7.047  11.157   7.181  0.1397  0.3376 -0.1166
 1257ERGO    C118823   7.135  11.006   7.520  0.0747  0.5299 -0.0127
 1257ERGO    C218824   7.191  10.830   7.849  0.2369  0.0895 -0.1061
 1258ERGO   ROH18825  11.226  13.551   5.883 -0.0652 -0.0704  0.1442
 1258ERGO    R118826  11.333  13.671   6.116  0.0764 -0.0215  0.0558
 1258ERGO    R218827  11.225  13.632   6.368  0.1333  0.1547  0.1122
 1258ERGO    R318828  11.478  13.556   6.429  0.1115  0.0409  0.0619
 1258ERGO    R418829  11.362  13.639   6.684  0.2322  0.1836  0.0684
 1258ERGO    R518830  11.548  13.711   6.597  0.2440  0.0569 -0.0087
 1258ERGO    C118831  11.680  13.572   6.927  0.2693  0.0936 -0.0043
 1258ERGO    C218832  11.875  13.616   7.111 -0.0278 -0.0986  0.3297
 1259ERGO   ROH18833  11.625  14.507   5.620  0.3542  0.4062  0.0247
 1259ERGO    R118834  11.569  14.631   5.868  0.1081  0.2956  0.0289
 1259ERGO    R218835  11.324  14.610   5.994  0.0727 -0.0071 -0.0758
 1259ERGO    R318836  11.475  14.524   6.202  0.0868  0.1184 -0.0341
 1259ERGO    R418837  11.262  14.682   6.326  0.0051  0.0540 -0.1019
 1259ERGO    R518838  11.476  14.707   6.356 -0.0125  0.1579 -0.0834
 1259ERGO    C118839  11.368  14.643   6.715 -0.0212  0.2074 -0.0780
 1259ERGO    C218840  11.550  14.736   7.064 -0.1554  0.0307  0.0689
 1260ERGO   ROH18841  12.641  13.637   5.812  0.2792 -0.1046 -0.1219
 1260ERGO    R118842  12.780  13.716   6.046  0.0410  0.1411 -0.0585
 1260ERGO    R218843  12.652  13.828   6.264 -0.2474 -0.0278 -0.1326
 1260ERGO    R318844  12.776  13.627   6.399 -0.0001  0.1747 -0.0512
 1260ERGO    R418845  12.663  13.798   6.608 -0.1511  0.1527 -0.1191
 1260ERGO    R518846  12.870  13.733   6.591 -0.0831  0.3738 -0.1206
 1260ERGO    C118847  12.786  13.591   6.935  0.1370  0.4479 -0.0349
 1260ERGO    C218848  12.818  13.465   7.259  0.1660 -0.2822  0.0262
 1261ERGO   ROH18849  14.124   9.009   6.168 -0.1178 -0.1201 -0.0432
 1261ERGO    R118850  14.002   9.014   6.424 -0.1364 -0.1533 -0.0518
 1261ERGO    R218851  14.071   8.837   6.625 -0.0775 -0.1119 -0.0373
 1261ERGO    R318852  14.111   9.065   6.768 -0.1802 -0.0865 -0.0472
 1261ERGO    R418853  14.090   8.852   6.969  0.4261 -0.1749 -0.0545
 1261ERGO    R518854  13.974   9.037   6.962  0.1478 -0.3314  0.1612
 1261ERGO    C118855  14.139   9.074   7.304  0.6228 -0.1878 -0.0738
 1261ERGO    C218856  14.169   9.169   7.612  0.0864 -0.0447 -0.1722
 1262ERGO   ROH18857  16.267  11.179   6.222  0.1598 -0.0083  0.1069
 1262ERGO    R118858  16.319  11.126   6.495  0.0919 -0.0444  0.1138
 1262ERGO    R218859  16.319  11.324   6.688 -0.0135 -0.0777  0.1517
 1262ERGO    R318860  16.140  11.160   6.810 -0.0105 -0.1439  0.0663
 1262ERGO    R418861  16.319  11.247   7.025 -0.1506 -0.0741  0.1526
 1262ERGO    R518862  16.270  11.042   6.973 -0.0465 -0.0922  0.1310
 1262ERGO    C118863  16.152  11.048   7.336 -0.2276 -0.1340  0.0730
 1262ERGO    C218864  16.163  11.073   7.692  0.1486 -0.0400 -0.1415
 1263ERGO   ROH18865   7.067   5.483   6.085  0.1195  0.1026 -0.0668
 1263ERGO    R118866   7.182   5.399   6.330  0.1539  0.2513 -0.0303
 1263ERGO    R218867   7.289   5.576   6.513 -0.1142  0.3931 -0.0041
 1263ERGO    R318868   7.118   5.452   6.684 -0.0157  0.1882 -0.0506
 1263ERGO    R418869   7.338   5.546   6.854 -0.0725  0.2661 -0.0208
 1263ERGO    R518870   7.261   5.342   6.842  0.0728  0.2151 -0.1118
 1263ERGO    C118871   7.206   5.412   7.213  0.0442 -0.0002 -0.0742
 1263ERGO    C218872   7.245   5.461   7.533 -0.2834 -0.1823 -0.2650
 1264ERGO   ROH18873   0.958  10.080   6.049  0.1764  0.1375  0.0984
 1264ERGO    R118874   1.120  10.219   6.234  0.1747  0.1368  0.1027
 1264ERGO    R218875   1.038  10.453   6.358  0.1324  0.0890  0.1814
 1264ERGO    R318876   1.098  10.315   6.584  0.2115  0.0407  0.1296
 1264ERGO    R418877   1.085  10.596   6.669 -0.0463 -0.0179  0.2580
 1264ERGO    R518878   1.251  10.458   6.702  0.0637  0.1153  0.2236
 1264ERGO    C118879   1.170  10.550   7.063 -0.0761 -0.1254  0.2540
 1264ERGO    C218880   1.184  10.549   7.456  0.0132  0.1800 -0.1437
 1265ERGO   ROH18881   3.441  14.127   6.027 -0.0919 -0.1133 -0.0583
 1265ERGO    R118882   3.351  13.982   6.252 -0.2230 -0.0023 -0.0385
 1265ERGO    R218883   3.501  13.956   6.483 -0.2134 -0.1664 -0.0642
 1265ERGO    R318884   3.277  14.054   6.601 -0.0837  0.0959 -0.0279
 1265ERGO    R418885   3.461  14.002   6.823 -0.1304 -0.1976 -0.0497
 1265ERGO    R518886   3.257  13.929   6.804 -0.2314  0.0684 -0.0564
 1265ERGO    C118887   3.228  14.121   7.132  0.0398  0.0305 -0.0073
 1265ERGO    C218888   3.269  14.119   7.450  0.0882  0.0892  0.0425
 1266ERGO   ROH18889  13.421  14.475   5.994  0.1453  0.0866 -0.1118
 1266ERGO    R118890  13.449  14.361   6.251 -0.0076  0.0497 -0.1115
 1266ERGO    R218891  13.646  14.439   6.428  0.0327 -0.1408 -0.0754
 1266ERGO    R318892  13.436  14.478   6.595  0.0390  0.0476 -0.1079
 1266ERGO    R418893  13.662  14.426   6.773 -0.0411 -0.2232 -0.0741
 1266ERGO    R518894  13.470  14.322   6.773 -0.1537 -0.0268 -0.1300
 1266ERGO    C118895  13.472  14.455   7.131 -0.0781 -0.0941 -0.1040
 1266ERGO    C218896  13.508  14.592   7.519  0.3036  0.3517 -0.3345
 1267ERGO   ROH18897   9.838   8.361   6.562  0.1865  0.1064 -0.0534
 1267ERGO    R118898   9.738   8.231   6.793  0.3307  0.0377 -0.0289
 1267ERGO    R218899   9.865   8.245   7.039  0.2559  0.3265 -0.0047
 1267ERGO    R318900   9.621   8.332   7.123  0.0975 -0.0139 -0.0936
 1267ERGO    R418901   9.758   8.246   7.367  0.1518  0.2231 -0.0371
 1267ERGO    R518902   9.562   8.180   7.299  0.2632 -0.0764 -0.0888
 1267ERGO    C118903   9.467   8.327   7.638 -0.0576 -0.1566 -0.1396
 1267ERGO    C218904   9.368   8.205   7.938  0.2083 -0.1236 -0.3248
 1268ERGO   ROH18905   0.676   8.638   6.419  0.0624  0.0613 -0.0005
 1268ERGO    R118906   0.749   8.476   6.639  0.0967  0.0841  0.0053
 1268ERGO    R218907   0.882   8.575   6.860 -0.0917  0.1603  0.0882
 1268ERGO    R318908   0.674   8.463   6.995 -0.0640 -0.0407 -0.0326
 1268ERGO    R418909   0.892   8.470   7.189 -0.2659  0.4477  0.1895
 1268ERGO    R518910   0.775   8.296   7.132  0.0513  0.2213  0.2091
 1268ERGO    C118911   0.703   8.304   7.507 -0.3413  0.4264  0.1351
 1268ERGO    C218912   0.759   8.237   7.888 -0.2959  0.0450 -0.2532
 1269ERGO   ROH18913   2.018  16.556   5.810 -0.0826  0.1211  0.1972
 1269ERGO    R118914   2.093  16.448   6.061  0.0293  0.0778  0.1457
 1269ERGO    R218915   2.238  16.592   6.247 -0.0875  0.1269  0.1993
 1269ERGO    R318916   2.031  16.525   6.411 -0.0198 -0.1302  0.1841
 1269ERGO    R418917   2.260  16.563   6.591 -0.0828  0.1895  0.2044
 1269ERGO    R518918   2.131  16.387   6.579  0.1474  0.0155  0.2078
 1269ERGO    C118919   2.079  16.483   6.945 -0.0166 -0.0156  0.1929
 1269ERGO    C218920   2.135  16.515   7.324  0.0186  0.3333 -0.1221
 1270ERGO   ROH18921  15.385  12.265   6.137  0.0183  0.1594  0.0206
 1270ERGO    R118922  15.272  12.310   6.393 -0.0374 -0.0659  0.0378
 1270ERGO    R218923  15.209  12.103   6.565  0.3407 -0.2045  0.0239
 1270ERGO    R318924  15.366  12.242   6.738  0.1194  0.0570  0.0200
 1270ERGO    R418925  15.189  12.084   6.910  0.3370 -0.1854  0.0241
 1270ERGO    R518926  15.220  12.299   6.919  0.0150 -0.1350 -0.0023
 1270ERGO    C118927  15.326  12.203   7.272  0.1272  0.0711  0.0207
 1270ERGO    C218928  15.181  12.057   7.537  0.5965  0.3030 -0.1475
 1271ERGO   ROH18929  11.768   0.100   5.851 -0.2059  0.2002 -0.1388
 1271ERGO    R118930  11.748   0.231   6.101 -0.1410  0.0784 -0.0690
 1271ERGO    R218931  11.511   0.244   6.243 -0.1087  0.0333 -0.0156
 1271ERGO    R318932  11.663   0.138   6.442 -0.0810 -0.0806 -0.0957
 1271ERGO    R418933  11.492   0.336   6.575  0.0455 -0.0358  0.0135
 1271ERGO    R518934  11.710   0.324   6.586  0.0481 -0.1312 -0.0672
 1271ERGO    C118935  11.623   0.289   6.956  0.1611 -0.1830 -0.0447
 1271ERGO    C218936  11.356   0.310   7.264  0.0054  0.0796 -0.2002
 1272ERGO   ROH18937   8.191  17.657   6.013 -0.1545 -0.2522  0.1424
 1272ERGO    R118938   8.205  17.735   6.285 -0.0804 -0.1475  0.1100
 1272ERGO    R218939   8.087  17.966   6.379 -0.0780 -0.1223  0.0600
 1272ERGO    R318940   7.968  17.795   6.555 -0.0061 -0.0712  0.1574
 1272ERGO    R418941   8.041  18.029   6.716 -0.0035  0.0016  0.0467
 1272ERGO    R518942   8.094  17.822   6.757  0.0391  0.0278  0.1153
 1272ERGO    C118943   7.904  17.906   7.077  0.1074  0.1215  0.1305
 1272ERGO    C218944   7.842  18.115   7.307  0.0330  0.0162  0.0857
 1273ERGO   ROH18945   4.608   1.681   6.134 -0.0605 -0.0814 -0.0031
 1273ERGO    R118946   4.580   1.755   6.405 -0.0641  0.0416 -0.0360
 1273ERGO    R218947   4.584   1.571   6.611 -0.2473  0.1131  0.0358
 1273ERGO    R318948   4.781   1.731   6.708 -0.1463  0.0024  0.0154
 1273ERGO    R418949   4.629   1.647   6.945 -0.0910 -0.0123  0.0439
 1273ERGO    R518950   4.676   1.852   6.887 -0.0304 -0.0127  0.0936
 1273ERGO    C118951   4.841   1.842   7.231  0.0949 -0.1892  0.0294
 1273ERGO    C218952   4.837   1.839   7.475 -0.0460  0.1215 -0.3670
 1274ERGO   ROH18953   1.663   1.507   5.697 -0.0230 -0.3785  0.0722
 1274ERGO    R118954   1.574   1.382   5.935 -0.0779 -0.3006  0.0937
 1274ERGO    R218955   1.748   1.259   6.112 -0.1227 -0.2822  0.1523
 1274ERGO    R318956   1.628   1.424   6.292 -0.1219 -0.2132  0.0896
 1274ERGO    R418957   1.817   1.267   6.450 -0.0559 -0.0824  0.1356
 1274ERGO    R518958   1.604   1.291   6.489 -0.0511 -0.1107  0.1669
 1274ERGO    C118959   1.745   1.426   6.816 -0.0161  0.0988  0.0669
 1274ERGO    C218960   1.704   1.399   7.185 -0.1540 -0.2462  0.1688
 1275ERGO   ROH18961   3.990   3.242   5.903 -0.0088  0.1932  0.0692
 1275ERGO    R118962   3.849   3.217   6.147 -0.1115  0.0995  0.0015
 1275ERGO    R218963   3.852   2.987   6.299 -0.0232  0.1048  0.0073
 1275ERGO    R318964   3.932   3.156   6.496 -0.2377  0.1658  0.0444
 1275ERGO    R418965   3.822   2.923   6.637  0.0945 -0.0302 -0.0068
 1275ERGO    R518966   3.765   3.132   6.666 -0.1928 -0.1123  0.0542
 1275ERGO    C118967   3.880   3.045   7.019 -0.0384 -0.0517  0.0198
 1275ERGO    C218968   3.916   3.014   7.317  0.0201 -0.2939  0.0236
 1276ERGO   ROH18969   2.794   0.042   5.950 -0.0002  0.0139  0.0582
 1276ERGO    R118970   2.821   0.141   6.214 -0.0584 -0.0299  0.0804
 1276ERGO    R218971   2.675   0.041   6.426  0.0564 -0.2187  0.0705
 1276ERGO    R318972   2.920   0.007   6.537  0.1023 -0.0253  0.0348
 1276ERGO    R418973   2.754   0.109   6.756 -0.0754 -0.5777  0.1810
 1276ERGO    R518974   2.944   0.191   6.688 -0.1813 -0.1990  0.3076
 1276ERGO    C118975   3.031   0.116   7.052 -0.1091 -0.6053  0.2118
 1276ERGO    C218976   3.013  -0.002   7.325  0.2496  0.0153 -0.1497
 1277ERGO   ROH18977  13.292   3.963   6.148 -0.2293 -0.1492 -0.2360
 1277ERGO    R118978  13.245   3.947   6.426 -0.0965  0.0096 -0.2037
 1277ERGO    R218979  13.072   3.762   6.537 -0.0942  0.1210 -0.0249
 1277ERGO    R318980  13.288   3.698   6.689 -0.0420  0.1339 -0.0912
 1277ERGO    R418981  13.058   3.658   6.866 -0.0068 -0.0086 -0.0604
 1277ERGO    R518982  13.234   3.780   6.907 -0.0339  0.0376 -0.0473
 1277ERGO    C118983  13.253   3.537   7.200  0.0933 -0.0719 -0.1434
 1277ERGO    C218984  13.317   3.563   7.585  0.0472  0.3752 -0.0390
 1278ERGO   ROH18985  12.786   5.832   6.305 -0.1398  0.0334  0.1552
 1278ERGO    R118986  12.772   5.835   6.588 -0.0725 -0.1030  0.1588
 1278ERGO    R218987  12.734   5.606   6.737  0.1656 -0.1965  0.0628
 1278ERGO    R318988  12.959   5.689   6.864  0.1225 -0.0586  0.0556
 1278ERGO    R418989  12.806   5.546   7.069  0.2369 -0.2422  0.0408
 1278ERGO    R518990  12.885   5.749   7.084  0.0896 -0.1742  0.0859
 1278ERGO    C118991  13.060   5.589   7.382  0.2381 -0.1395  0.0211
 1278ERGO    C218992  13.243   5.470   7.674 -0.0278 -0.1857  0.0338
 1279ERGO   ROH18993   1.970  13.239   6.129 -0.1637 -0.0457 -0.1215
 1279ERGO    R118994   1.877  13.353   6.371 -0.0281  0.0254 -0.1020
 1279ERGO    R218995   1.729  13.211   6.556 -0.2150  0.1705 -0.1333
 1279ERGO    R318996   1.924  13.294   6.726 -0.1102 -0.1053 -0.1131
 1279ERGO    R418997   1.675  13.318   6.880 -0.0632  0.0699 -0.0733
 1279ERGO    R518998   1.824  13.474   6.848  0.0879 -0.0629 -0.0125
 1279ERGO    C118999   1.826  13.458   7.229  0.1235 -0.2477 -0.0194
 1279ERGO    C219000   1.696  13.388   7.613  0.1167  0.0829  0.1391
 1280ERGO   ROH19001   3.325  14.578   5.988 -0.1550 -0.1157  0.0825
 1280ERGO    R119002   3.277  14.507   6.257 -0.1104 -0.0529  0.1067
 1280ERGO    R219003   3.480  14.436   6.431 -0.0907 -0.0736  0.0690
 1280ERGO    R319004   3.372  14.632   6.585 -0.0012 -0.0193  0.0640
 1280ERGO    R419005   3.460  14.429   6.776  0.1091  0.0353  0.0845
 1280ERGO    R519006   3.261  14.516   6.762  0.0970  0.0348  0.1675
 1280ERGO    C119007   3.347  14.610   7.121  0.3095  0.1497  0.0888
 1280ERGO    C219008   3.433  14.587   7.408  0.0376 -0.0199  0.1261
 1281ERGO   ROH19009   1.294   3.158   5.842 -0.0470  0.1503 -0.0766
 1281ERGO    R119010   1.337   3.203   6.118  0.0066  0.0669 -0.0704
 1281ERGO    R219011   1.193   3.390   6.262  0.0603  0.0509  0.0071
 1281ERGO    R319012   1.140   3.178   6.424  0.0531  0.0141 -0.0447
 1281ERGO    R419013   1.156   3.407   6.606  0.1570 -0.0436  0.0221
 1281ERGO    R519014   1.267   3.220   6.622  0.1171 -0.0761 -0.0654
 1281ERGO    C119015   1.084   3.218   6.957  0.2065 -0.1331 -0.0176
 1281ERGO    C219016   1.046   3.070   7.279  0.1867 -0.4121  0.2837
 1282ERGO   ROH19017   4.349  16.163   6.013 -0.3198 -0.1005  0.0166
 1282ERGO    R119018   4.430  16.139   6.283 -0.2622 -0.0454  0.0053
 1282ERGO    R219019   4.411  16.347   6.464 -0.0249  0.0624 -0.0822
 1282ERGO    R319020   4.273  16.165   6.610 -0.1482  0.2502  0.0376
 1282ERGO    R419021   4.427  16.317   6.808  0.3763 -0.0837 -0.1085
 1282ERGO    R519022   4.425  16.100   6.784 -0.0276 -0.0723 -0.1838
 1282ERGO    C119023   4.306  16.128   7.145  0.4943  0.0074 -0.0112
 1282ERGO    C219024   4.194  16.115   7.371 -0.1809 -0.2518  0.2811
 1283ERGO   ROH19025  17.615   9.190   6.221 -0.0393  0.2058  0.0115
 1283ERGO    R119026  17.644   9.263   6.493 -0.1227  0.1069  0.0470
 1283ERGO    R219027  17.438   9.242   6.676 -0.1203 -0.1417  0.0178
 1283ERGO    R319028  17.620   9.097   6.816 -0.0169 -0.0575 -0.0271
 1283ERGO    R419029  17.403   9.149   7.007  0.1420  0.1138  0.1225
 1283ERGO    R519030  17.615   9.192   7.036  0.1782  0.1138 -0.0894
 1283ERGO    C119031  17.554   8.958   7.331  0.3920  0.3416  0.1414
 1283ERGO    C219032  17.605   8.925   7.680  0.0074  0.0128  0.0315
 1284ERGO   ROH19033  11.211  17.760   6.094  0.0048  0.1209  0.1326
 1284ERGO    R119034  11.322  17.879   6.326 -0.0197  0.1473  0.1316
 1284ERGO    R219035  11.167  17.977   6.533 -0.0397  0.0656  0.1593
 1284ERGO    R319036  11.322  17.812   6.683  0.0449  0.1145  0.1250
 1284ERGO    R419037  11.238  18.023   6.868 -0.0119  0.0635  0.1530
 1284ERGO    R519038  11.442  17.959   6.829  0.0062  0.1475  0.1210
 1284ERGO    C119039  11.425  17.895   7.204  0.0837  0.1082  0.1172
 1284ERGO    C219040  11.459  17.915   7.569  0.0072 -0.1063 -0.1590
 1285ERGO   ROH19041  15.325   3.004   5.696  0.0135  0.0128 -0.1677
 1285ERGO    R119042  15.439   3.034   5.953 -0.0220 -0.0328 -0.1473
 1285ERGO    R219043  15.346   3.217   6.137 -0.0656 -0.0874 -0.1185
 1285ERGO    R319044  15.326   2.999   6.298 -0.0587 -0.1250 -0.1673
 1285ERGO    R419045  15.313   3.229   6.481  0.1307 -0.1634 -0.0953
 1285ERGO    R519046  15.450   3.060   6.494  0.0764 -0.2225 -0.2184
 1285ERGO    C119047  15.276   3.031   6.832  0.2515 -0.2430 -0.1278
 1285ERGO    C219048  15.193   2.933   7.223 -0.2040 -0.0461  0.1939
 1286ERGO   ROH19049  17.971  17.925   5.861 -0.0182 -0.1739 -0.0079
 1286ERGO    R119050  17.774  17.993   6.053 -0.0040  0.0374 -0.0655
 1286ERGO    R219051  17.696  17.820   6.254 -0.2699  0.1062 -0.1063
 1286ERGO    R319052  17.758  18.030   6.414 -0.0773  0.0214 -0.0666
 1286ERGO    R419053  17.763  17.797   6.592 -0.3194 -0.0176 -0.1045
 1286ERGO    R519054  17.649  17.980   6.622 -0.1445  0.0910 -0.0837
 1286ERGO    C119055  17.860  17.981   6.940 -0.1672 -0.1693 -0.0661
 1286ERGO    C219056  17.853  17.931   7.286  0.1644  0.0007 -0.0644
 1287ERGO   ROH19057  17.228  11.865   6.113  0.0113 -0.1898  0.0246
 1287ERGO    R119058  17.118  12.009   6.331  0.0669 -0.0315 -0.0519
 1287ERGO    R219059  17.191  11.962   6.593 -0.0543 -0.0178 -0.0209
 1287ERGO    R319060  17.243  12.229   6.593  0.1717 -0.0579 -0.0767
 1287ERGO    R419061  17.229  12.156   6.876 -0.3532  0.0814 -0.0446
 1287ERGO    R519062  17.116  12.314   6.777 -0.0673  0.1362 -0.3152
 1287ERGO    C119063  17.299  12.519   7.041 -0.3151  0.1015 -0.1108
 1287ERGO    C219064  17.551  12.677   7.292  0.0755  0.2707 -0.1274
 1288ERGO   ROH19065   8.367   9.555   6.701  0.0371  0.0419  0.1281
 1288ERGO    R119066   8.238   9.687   6.916 -0.0973  0.1016  0.0136
 1288ERGO    R219067   7.972   9.646   6.978 -0.0704 -0.0873  0.0256
 1288ERGO    R319068   8.072   9.590   7.224 -0.0327  0.1966  0.0780
 1288ERGO    R419069   7.783   9.624   7.266 -0.0958 -0.2244 -0.0018
 1288ERGO    R519070   7.943   9.727   7.373 -0.2748  0.0799 -0.0221
 1288ERGO    C119071   7.766   9.558   7.665 -0.0751 -0.0375  0.0315
 1288ERGO    C219072   7.861   9.473   8.018  0.1368 -0.2006 -0.2206
 1289ERGO   ROH19073   4.727  17.407   5.819 -0.1996 -0.1403  0.2313
 1289ERGO    R119074   4.680  17.419   6.097 -0.0664 -0.1459  0.2534
 1289ERGO    R219075   4.552  17.218   6.236  0.0155 -0.1514  0.3108
 1289ERGO    R319076   4.776  17.225   6.390  0.0855 -0.1403  0.2111
 1289ERGO    R419077   4.562  17.134   6.571  0.1620 -0.1942  0.2965
 1289ERGO    R519078   4.698  17.303   6.604  0.1595 -0.1738  0.2572
 1289ERGO    C119079   4.778  17.092   6.911  0.3130 -0.2087  0.1946
 1289ERGO    C219080   4.861  17.090   7.204  0.0992  0.2741  0.0495
 1290ERGO   ROH19081  12.067   4.076   6.190 -0.0808  0.1028 -0.0367
 1290ERGO    R119082  11.924   3.965   6.407 -0.0276 -0.0131 -0.0597
 1290ERGO    R219083  11.984   3.717   6.514  0.1591  0.0340 -0.0457
 1290ERGO    R319084  12.000   3.857   6.746  0.0054  0.0539 -0.0464
 1290ERGO    R419085  11.967   3.577   6.829  0.1487  0.0414 -0.0433
 1290ERGO    R519086  11.845   3.747   6.892  0.0290 -0.0304 -0.0872
 1290ERGO    C119087  11.972   3.627   7.232 -0.0015  0.0644 -0.0426
 1290ERGO    C219088  11.961   3.518   7.518  0.1231  0.0459 -0.1336
 1291ERGO   ROH19089   8.933   0.323   6.173 -0.1949  0.1072  0.0710
 1291ERGO    R119090   8.893   0.318   6.453 -0.0675  0.0900  0.0898
 1291ERGO    R219091   9.067   0.190   6.625 -0.0513 -0.0246 -0.0061
 1291ERGO    R319092   9.074   0.432   6.748  0.1307 -0.0428  0.0207
 1291ERGO    R419093   9.059   0.239   6.967 -0.0298 -0.0502 -0.0022
 1291ERGO    R519094   8.927   0.409   6.935  0.1049  0.0544  0.0099
 1291ERGO    C119095   9.062   0.496   7.281  0.1537 -0.0822  0.0251
 1291ERGO    C219096   8.964   0.659   7.482 -0.0505  0.3058 -0.2327
 1292ERGO   ROH19097   9.612   5.908   6.033 -0.0662  0.0817 -0.0938
 1292ERGO    R119098   9.729   5.757   6.242 -0.2707 -0.1025 -0.1098
 1292ERGO    R219099   9.954   5.842   6.379 -0.1009 -0.4637 -0.1600
 1292ERGO    R319100   9.795   5.805   6.597 -0.1209 -0.1926 -0.1242
 1292ERGO    R419101  10.069   5.795   6.702 -0.1153 -0.3762 -0.1415
 1292ERGO    R519102   9.914   5.645   6.730 -0.2518 -0.2235 -0.0399
 1292ERGO    C119103   9.986   5.734   7.094 -0.1423 -0.0708 -0.0970
 1292ERGO    C219104  10.062   5.993   7.289 -0.0305 -0.0044  0.2317
 1293ERGO   ROH19105  17.805  14.675   5.997  0.0701 -0.2654  0.0563
 1293ERGO    R119106  17.805  14.809   6.246  0.1418 -0.1654  0.0030
 1293ERGO    R219107  17.605  14.773   6.435  0.0825  0.0754 -0.0136
 1293ERGO    R319108  17.815  14.713   6.597  0.0079 -0.0337  0.0440
 1293ERGO    R419109  17.600  14.787   6.780 -0.0462 -0.0506 -0.0090
 1293ERGO    R519110  17.801  14.870   6.776 -0.0233 -0.0951  0.0975
 1293ERGO    C119111  17.795  14.738   7.133 -0.1913 -0.2267  0.0477
 1293ERGO    C219112  17.713  14.744   7.448  0.0519  0.0217  0.0728
 1294ERGO   ROH19113  12.253  12.754   5.744  0.0591  0.0148  0.0090
 1294ERGO    R119114  12.318  12.800   6.016  0.0043 -0.0234  0.0285
 1294ERGO    R219115  12.175  12.976   6.175  0.0706  0.0747 -0.0204
 1294ERGO    R319116  12.152  12.759   6.337 -0.1251  0.0922 -0.0221
 1294ERGO    R419117  12.254  12.971   6.511 -0.0208  0.0267  0.0007
 1294ERGO    R519118  12.341  12.774   6.484 -0.1516 -0.0370  0.0277
 1294ERGO    C119119  12.278  12.765   6.860 -0.2579  0.0152  0.0114
 1294ERGO    C219120  12.265  12.716   7.286 -0.2193 -0.0300  0.0199
 1295ERGO   ROH19121   6.702  13.509   5.760  0.0558  0.1364  0.1265
 1295ERGO    R119122   6.561  13.440   5.996  0.0953 -0.0386  0.0995
 1295ERGO    R219123   6.686  13.331   6.217  0.2007  0.1754  0.1418
 1295ERGO    R319124   6.568  13.539   6.346 -0.1412  0.0201  0.0907
 1295ERGO    R419125   6.604  13.335   6.553  0.3216  0.1587  0.1722
 1295ERGO    R519126   6.418  13.435   6.502  0.1032 -0.2031  0.1923
 1295ERGO    C119127   6.446  13.532   6.869  0.0711  0.0035  0.1421
 1295ERGO    C219128   6.445  13.523   7.234  0.1596  0.2353 -0.1875
 1296ERGO   ROH19129  18.025   2.946   5.997  0.1440 -0.1231 -0.2853
 1296ERGO    R119130  18.242   2.893   6.171  0.0567  0.1176 -0.0983
 1296ERGO    R219131  18.258   3.001   6.425 -0.3842 -0.0193 -0.0051
 1296ERGO    R319132  18.286   2.740   6.499 -0.0327 -0.0294 -0.1530
 1296ERGO    R419133  18.349   2.894   6.741 -0.1714 -0.0757 -0.0832
 1296ERGO    R519134  18.474   2.741   6.648  0.0063  0.1309 -0.1980
 1296ERGO    C119135  18.428   2.587   6.994  0.2825 -0.1179 -0.2674
 1296ERGO    C219136  18.480   2.627   7.354  0.0567  0.1820 -0.1373
 1297ERGO   ROH19137  15.989   5.350   6.454 -0.1000  0.0000 -0.0416
 1297ERGO    R119138  16.018   5.410   6.729 -0.2195  0.0589 -0.0393
 1297ERGO    R219139  15.817   5.367   6.913 -0.2184 -0.1375 -0.0716
 1297ERGO    R319140  16.010   5.225   7.042 -0.0904  0.0752 -0.0280
 1297ERGO    R419141  15.805   5.272   7.245 -0.1308 -0.0679 -0.0495
 1297ERGO    R519142  16.017   5.319   7.262 -0.1802  0.1323 -0.0547
 1297ERGO    C119143  15.979   5.084   7.559  0.0404  0.1723  0.0043
 1297ERGO    C219144  15.915   4.955   7.808 -0.2013  0.1097 -0.0301
 1298ERGO   ROH19145  16.160   9.810   6.427  0.3647 -0.1435 -0.0249
 1298ERGO    R119146  15.967   9.808   6.634  0.1911 -0.2717 -0.1838
 1298ERGO    R219147  15.925   9.589   6.797  0.3553 -0.2296 -0.0812
 1298ERGO    R319148  15.968   9.769   6.996 -0.0523 -0.0391 -0.1550
 1298ERGO    R419149  15.860   9.533   7.132  0.2689 -0.1478 -0.0838
 1298ERGO    R519150  15.784   9.737   7.146 -0.0832 -0.2607 -0.2373
 1298ERGO    C119151  15.863   9.670   7.513 -0.1640  0.0788 -0.1547
 1298ERGO    C219152  15.816   9.648   7.754 -0.1428  0.1917 -0.0057
 1299ERGO   ROH19153   6.843   9.552   6.326  0.3177  0.1808  0.0956
 1299ERGO    R119154   6.761   9.543   6.597  0.0469  0.3115  0.0215
 1299ERGO    R219155   6.909   9.416   6.792 -0.3565  0.0367  0.1559
 1299ERGO    R319156   6.893   9.657   6.916 -0.0439  0.0651  0.1515
 1299ERGO    R419157   6.925   9.463   7.134 -0.5070 -0.0143  0.1709
 1299ERGO    R519158   6.767   9.613   7.116 -0.2574  0.2535  0.0681
 1299ERGO    C119159   6.919   9.717   7.450 -0.3012 -0.0173  0.1755
 1299ERGO    C219160   6.902   9.812   7.812 -0.0914  0.1145 -0.1652
 1300ERGO   ROH19161   7.812   7.537   5.952  0.0076  0.1417  0.1324
 1300ERGO    R119162   7.898   7.521   6.221  0.0760 -0.0338  0.1011
 1300ERGO    R219163   7.721   7.500   6.433  0.1165  0.1230  0.1515
 1300ERGO    R319164   7.870   7.280   6.493 -0.1260 -0.0764  0.0450
 1300ERGO    R419165   7.736   7.351   6.744  0.3058  0.2405  0.2000
 1300ERGO    R519166   7.950   7.322   6.715  0.2334 -0.0925 -0.0749
 1300ERGO    C119167   7.885   7.059   6.983  0.1882  0.1218  0.1283
 1300ERGO    C219168   7.957   6.887   7.325 -0.0876 -0.2167 -0.1018
 1301ERGO   ROH19169   7.029   4.131   5.863 -0.0811 -0.1892  0.0288
 1301ERGO    R119170   7.100   3.947   6.066 -0.1922 -0.2107  0.0487
 1301ERGO    R219171   7.219   4.026   6.303  0.0429 -0.2758 -0.0456
 1301ERGO    R319172   7.011   3.891   6.415 -0.0648  0.0176  0.1203
 1301ERGO    R419173   7.178   3.971   6.642  0.1708 -0.1150 -0.0026
 1301ERGO    R519174   7.109   3.769   6.596 -0.1094 -0.0477  0.1011
 1301ERGO    C119175   6.959   3.813   6.944  0.1441  0.2543  0.1783
 1301ERGO    C219176   6.889   3.813   7.260 -0.4042 -0.0938 -0.0904
 1302ERGO   ROH19177  15.288   1.418   5.738  0.0190 -0.0752  0.0017
 1302ERGO    R119178  15.492   1.400   5.934  0.1795  0.1362 -0.1426
 1302ERGO    R219179  15.620   1.623   6.037 -0.3072  0.3100  0.1025
 1302ERGO    R319180  15.543   1.516   6.275  0.0817 -0.2337  0.0034
 1302ERGO    R419181  15.756   1.704   6.344 -0.4466  0.3597  0.1524
 1302ERGO    R519182  15.746   1.493   6.399  0.2127  0.2323 -0.0998
 1302ERGO    C119183  15.763   1.650   6.746 -0.1625 -0.1217  0.0884
 1302ERGO    C219184  15.724   1.661   7.030  0.0054  0.1492 -0.0474
 1303ERGO   ROH19185   2.774   4.548   6.048  0.4058 -0.1882  0.1791
 1303ERGO    R119186   2.594   4.499   6.261  0.2241 -0.0155  0.0686
 1303ERGO    R219187   2.647   4.318   6.463 -0.0745 -0.0709  0.1078
 1303ERGO    R319188   2.597   4.532   6.623  0.0332 -0.0183  0.0701
 1303ERGO    R419189   2.643   4.310   6.809 -0.1269 -0.0095  0.1082
 1303ERGO    R519190   2.470   4.442   6.805 -0.0430  0.0913  0.0666
 1303ERGO    C119191   2.595   4.506   7.160 -0.0563  0.0757  0.0731
 1303ERGO    C219192   2.520   4.417   7.422  0.1540 -0.0485  0.2930
 1304ERGO   ROH19193   1.852   0.212   5.631 -0.1137  0.0925 -0.0237
 1304ERGO    R119194   1.866   0.303   5.899  0.0104  0.0332 -0.0064
 1304ERGO    R219195   1.641   0.338   6.057  0.0519  0.2332  0.0357
 1304ERGO    R319196   1.775   0.174   6.227 -0.0839  0.0588 -0.0268
 1304ERGO    R419197   1.651   0.375   6.400  0.1619  0.1194  0.0435
 1304ERGO    R519198   1.861   0.321   6.395  0.0938 -0.0875 -0.0036
 1304ERGO    C119199   1.782   0.243   6.760  0.0985 -0.1106 -0.0106
 1304ERGO    C219200   1.679   0.241   7.124  0.1013  0.0073 -0.0836
 1305ERGO   ROH19201   9.493   4.343   6.044 -0.0937  0.0370 -0.0640
 1305ERGO    R119202   9.294   4.489   6.182  0.1036  0.1338  0.1229
 1305ERGO    R219203   9.060   4.372   6.272 -0.0549  0.3323 -0.0353
 1305ERGO    R319204   9.138   4.477   6.510  0.0864 -0.0793  0.1099
 1305ERGO    R419205   8.854   4.412   6.547 -0.0514  0.3689 -0.0368
 1305ERGO    R519206   8.949   4.605   6.584  0.2859  0.1726  0.2118
 1305ERGO    C119207   8.808   4.534   6.931  0.0833  0.0040  0.0985
 1305ERGO    C219208   8.452   4.536   7.073 -0.0259  0.3022  0.4556
 1306ERGO   ROH19209  16.342  14.842   5.964 -0.0166  0.0437  0.1468
 1306ERGO    R119210  16.462  14.781   6.213 -0.0010  0.0053  0.1293
 1306ERGO    R219211  16.371  14.885   6.452  0.0217 -0.0232  0.1483
 1306ERGO    R319212  16.360  14.623   6.525  0.0166 -0.0324  0.1165
 1306ERGO    R419213  16.373  14.771   6.778 -0.1805 -0.0517  0.1414
 1306ERGO    R519214  16.505  14.609   6.715 -0.1085 -0.0244  0.2149
 1306ERGO    C119215  16.364  14.458   7.036 -0.3030 -0.0770  0.1075
 1306ERGO    C219216  16.361  14.322   7.396  0.0066 -0.0940 -0.0707
 1307ERGO   ROH19217   6.759  12.337   5.791  0.2052 -0.0232  0.0142
 1307ERGO    R119218   6.821  12.451   6.043  0.1371  0.2105 -0.0732
 1307ERGO    R219219   6.796  12.722   6.094 -0.3810  0.1882 -0.1766
 1307ERGO    R319220   6.642  12.636   6.301 -0.0788 -0.0396 -0.0373
 1307ERGO    R419221   6.705  12.914   6.367 -0.4124  0.0636 -0.0979
 1307ERGO    R519222   6.737  12.740   6.494 -0.0486  0.0996 -0.1209
 1307ERGO    C119223   6.508  12.944   6.720 -0.1472 -0.2226  0.0786
 1307ERGO    C219224   6.466  13.004   7.158 -0.2437 -0.1815  0.0137
 1308ERGO   ROH19225   4.794   7.462   6.287 -0.1738 -0.1394  0.1031
 1308ERGO    R119226   4.890   7.646   6.479 -0.0714 -0.1957  0.1063
 1308ERGO    R219227   4.747   7.871   6.553  0.0451 -0.1289  0.1236
 1308ERGO    R319228   4.781   7.770   6.803  0.0087 -0.1552  0.1185
 1308ERGO    R419229   4.633   8.020   6.843 -0.1056 -0.2179  0.1114
 1308ERGO    R519230   4.820   7.963   6.940 -0.1104 -0.1587  0.1603
 1308ERGO    C119231   4.598   8.013   7.247 -0.2274 -0.2944  0.0994
 1308ERGO    C219232   4.543   7.900   7.566 -0.3043  0.0352 -0.0927
 1309ERGO   ROH19233  11.274   2.246   5.819  0.2010 -0.0465 -0.0357
 1309ERGO    R119234  11.375   2.125   6.054  0.0182 -0.0881  0.0231
 1309ERGO    R219235  11.458   2.271   6.273  0.2966 -0.0998 -0.0710
 1309ERGO    R319236  11.282   2.113   6.406  0.0295  0.2769  0.0421
 1309ERGO    R419237  11.439   2.242   6.617  0.3983  0.0035 -0.0559
 1309ERGO    R519238  11.407   2.028   6.592 -0.0497  0.0558 -0.0028
 1309ERGO    C119239  11.263   2.076   6.942  0.2067  0.4173  0.0590
 1309ERGO    C219240  11.365   2.191   7.268  0.3371  0.0405 -0.2948
 1310ERGO   ROH19241  11.474  16.329   5.850 -0.0193  0.0240 -0.1250
 1310ERGO    R119242  11.483  16.165   6.080 -0.1005  0.0254 -0.1202
 1310ERGO    R219243  11.721  16.084   6.196 -0.1381 -0.0803 -0.1105
 1310ERGO    R319244  11.610  16.193   6.420 -0.0968 -0.0222 -0.1184
 1310ERGO    R419245  11.825  16.020   6.519 -0.0379  0.0589 -0.1145
 1310ERGO    R519246  11.616  16.015   6.581 -0.0178  0.0394 -0.0551
 1310ERGO    C119247  11.783  16.084   6.917  0.0592  0.1948 -0.1242
 1310ERGO    C219248  11.716  16.058   7.290 -0.0266 -0.1793 -0.0069
 1311ERGO   ROH19249   3.236  16.818   5.980  0.3620  0.0398 -0.0956
 1311ERGO    R119250   3.211  16.714   6.243  0.0741  0.2022 -0.0551
 1311ERGO    R219251   3.418  16.583   6.371 -0.2163 -0.1442  0.0698
 1311ERGO    R319252   3.373  16.768   6.564  0.0772  0.0366 -0.0276
 1311ERGO    R419253   3.417  16.518   6.711 -0.2533  0.0502  0.1083
 1311ERGO    R519254   3.246  16.652   6.731 -0.0655  0.3086  0.0623
 1311ERGO    C119255   3.375  16.655   7.090  0.0006  0.3331  0.0392
 1311ERGO    C219256   3.402  16.820   7.444  0.0011  0.0099 -0.0858
 1312ERGO   ROH19257  12.231  13.770   5.869  0.1413 -0.1008  0.1185
 1312ERGO    R119258  12.172  13.915   6.105  0.2342  0.0210  0.0684
 1312ERGO    R219259  12.038  13.803   6.319  0.0394  0.2198  0.0564
 1312ERGO    R319260  12.255  13.889   6.459  0.0994  0.0044  0.0989
 1312ERGO    R419261  12.042  13.863   6.659  0.0559  0.1467  0.0691
 1312ERGO    R519262  12.165  14.040   6.621  0.2127  0.0494  0.1197
 1312ERGO    C119263  12.248  13.978   6.989  0.1218 -0.0980  0.1163
 1312ERGO    C219264  12.267  13.851   7.266 -0.0299 -0.0802  0.2021
 1313ERGO   ROH19265  13.706   0.024   5.907  0.1039 -0.0799 -0.1476
 1313ERGO    R119266  13.803   0.052   6.172  0.0809  0.0756 -0.1555
 1313ERGO    R219267  13.728   0.262   6.336 -0.2309 -0.0310 -0.1583
 1313ERGO    R319268  13.659   0.062   6.506  0.0873 -0.1364 -0.1447
 1313ERGO    R419269  13.660   0.303   6.672 -0.2497 -0.1236 -0.1499
 1313ERGO    R519270  13.767   0.118   6.712  0.0342  0.0316 -0.1594
 1313ERGO    C119271  13.554   0.139   7.028  0.0380 -0.2764 -0.1322
 1313ERGO    C219272  13.475   0.103   7.269 -0.0040  0.2658  0.1077
 1314ERGO   ROH19273  15.256   4.171   6.444 -0.0666  0.0560 -0.1628
 1314ERGO    R119274  15.116   4.163   6.690 -0.0490  0.0317 -0.1543
 1314ERGO    R219275  15.174   3.979   6.888 -0.0672 -0.0159 -0.1986
 1314ERGO    R319276  15.199   4.201   7.042 -0.0180 -0.0537 -0.1508
 1314ERGO    R419277  15.123   3.987   7.229  0.1852 -0.1431 -0.1552
 1314ERGO    R519278  15.023   4.180   7.204  0.1046 -0.1606 -0.0237
 1314ERGO    C119279  15.117   4.200   7.574  0.3783 -0.2525 -0.0850
 1314ERGO    C219280  15.191   4.283   7.891  0.0313 -0.0158 -0.0740
 1315ERGO   ROH19281  12.126  10.505   5.952  0.1303  0.0137 -0.0947
 1315ERGO    R119282  12.215  10.545   6.217  0.0898  0.2574 -0.1159
 1315ERGO    R219283  12.112  10.744   6.380 -0.3937  0.0099 -0.1026
 1315ERGO    R319284  12.068  10.536   6.550  0.1786 -0.1114 -0.0823
 1315ERGO    R419285  12.131  10.763   6.725 -0.3866  0.0845 -0.1074
 1315ERGO    R519286  12.228  10.568   6.726  0.1361  0.3253 -0.1101
 1315ERGO    C119287  12.100  10.580   7.085  0.1548  0.0140 -0.0912
 1315ERGO    C219288  11.947  10.511   7.437 -0.0616  0.0680 -0.0155
 1316ERGO   ROH19289   8.008  13.199   6.294 -0.1506 -0.1631  0.1878
 1316ERGO    R119290   8.012  13.119   6.565 -0.0246 -0.1121  0.2019
 1316ERGO    R219291   8.145  12.894   6.653  0.0397 -0.0832  0.1880
 1316ERGO    R319292   8.265  13.069   6.822  0.0936 -0.0352  0.1008
 1316ERGO    R419293   8.271  12.812   6.964  0.0651  0.0300  0.2077
 1316ERGO    R519294   8.191  13.000   7.040  0.1112  0.0731  0.1383
 1316ERGO    C119295   8.456  12.929   7.305  0.1304  0.1410  0.1372
 1316ERGO    C219296   8.662  12.991   7.687 -0.1823 -0.0116  0.1064
 1317ERGO   ROH19297  10.292  14.856   5.797  0.0722 -0.1170 -0.0069
 1317ERGO    R119298  10.366  14.896   6.068  0.0138  0.0368 -0.0132
 1317ERGO    R219299  10.393  15.148   6.178 -0.1341  0.0984 -0.1164
 1317ERGO    R319300  10.217  15.051   6.362 -0.1083  0.0843 -0.0986
 1317ERGO    R419301  10.350  15.274   6.497 -0.0222  0.0172 -0.0683
 1317ERGO    R519302  10.333  15.070   6.571 -0.0484 -0.0013 -0.1226
 1317ERGO    C119303  10.160  15.257   6.855  0.0673 -0.0433 -0.0235
 1317ERGO    C219304   9.872  15.442   7.183 -0.0531 -0.1955 -0.2072
 1318ERGO   ROH19305  18.011  10.505   6.303  0.0198 -0.0451 -0.0470
 1318ERGO    R119306  18.170  10.452   6.532 -0.1860 -0.1721  0.0684
 1318ERGO    R219307  18.307  10.651   6.667  0.0454 -0.3105  0.0361
 1318ERGO    R319308  18.170  10.554   6.881 -0.2250  0.0085  0.0180
 1318ERGO    R419309  18.333  10.772   6.989  0.1232 -0.2263 -0.0010
 1318ERGO    R519310  18.327  10.567   7.062 -0.2714 -0.1976  0.0792
 1318ERGO    C119311  18.221  10.752   7.378 -0.0853  0.1221 -0.0396
 1318ERGO    C219312  18.186  10.723   7.693 -0.1480  0.0513  0.3792
 1319ERGO   ROH19313  16.682  11.091   6.714 -0.0060  0.1605  0.0395
 1319ERGO    R119314  16.698  10.913   6.933 -0.2153  0.0742 -0.0152
 1319ERGO    R219315  16.873  10.952   7.143 -0.0394 -0.2902 -0.1031
 1319ERGO    R319316  16.648  10.931   7.293 -0.0013  0.0730  0.0204
 1319ERGO    R419317  16.869  10.898   7.485  0.0857 -0.3404 -0.1070
 1319ERGO    R519318  16.700  10.762   7.455 -0.1818 -0.0593 -0.0399
 1319ERGO    C119319  16.654  10.847   7.825  0.1943 -0.0287  0.0068
 1319ERGO    C219320  16.767  10.954   8.162 -0.1620 -0.2432  0.0002
 1320ERGO   ROH19321  13.422   6.787   6.500  0.2006  0.0878  0.0295
 1320ERGO    R119322  13.415   6.740   6.779  0.1564  0.1068  0.0316
 1320ERGO    R219323  13.395   6.486   6.887 -0.1021  0.1286  0.0426
 1320ERGO    R319324  13.618   6.561   7.022 -0.0206 -0.0927  0.0353
 1320ERGO    R419325  13.491   6.360   7.194 -0.1611 -0.0351 -0.0046
 1320ERGO    R519326  13.551   6.561   7.252  0.0125 -0.1005  0.0440
 1320ERGO    C119327  13.756   6.357   7.500 -0.1189 -0.3383 -0.0392
 1320ERGO    C219328  13.797   6.328   7.839 -0.1071  0.2892  0.2170
 1321ERGO   ROH19329  10.896   6.070   6.149 -0.1255  0.0584  0.0020
 1321ERGO    R119330  10.953   6.213   6.387 -0.1604  0.1017 -0.0153
 1321ERGO    R219331  10.766   6.250   6.587 -0.1366 -0.0137  0.0308
 1321ERGO    R319332  10.960   6.142   6.743 -0.0279  0.1144 -0.0155
 1321ERGO    R419333  10.817   6.326   6.920 -0.0204  0.1188 -0.0171
 1321ERGO    R519334  11.032   6.323   6.883 -0.0359  0.1884 -0.1081
 1321ERGO    C119335  11.030   6.270   7.261  0.1493  0.3164 -0.0885
 1321ERGO    C219336  10.852   6.382   7.596 -0.0295  0.0976 -0.0343
 1322ERGO   ROH19337   9.040  11.298   6.341  0.1366  0.3117 -0.1674
 1322ERGO    R119338   9.142  11.250   6.601  0.0737  0.1633 -0.1683
 1322ERGO    R219339   9.304  11.432   6.732  0.0626  0.0792 -0.0336
 1322ERGO    R319340   9.117  11.407   6.928  0.0145 -0.0081 -0.0900
 1322ERGO    R419341   9.353  11.518   7.063  0.0208 -0.1836  0.0435
 1322ERGO    R519342   9.242  11.340   7.121 -0.0481 -0.1919 -0.1131
 1322ERGO    C119343   9.206  11.546   7.440 -0.0486 -0.4186  0.0354
 1322ERGO    C219344   9.367  11.565   7.764  0.0502  0.1462 -0.0941
 1323ERGO   ROH19345   9.560   6.352   6.178 -0.0440  0.1959 -0.0024
 1323ERGO    R119346   9.595   6.171   6.393  0.0998  0.2183 -0.0045
 1323ERGO    R219347   9.759   6.226   6.608  0.0255  0.3669  0.0244
 1323ERGO    R319348   9.535   6.173   6.752  0.0511  0.1527 -0.0142
 1323ERGO    R419349   9.752   6.177   6.950  0.0247  0.1725 -0.0037
 1323ERGO    R519350   9.607   6.016   6.918  0.1273  0.1077 -0.0970
 1323ERGO    C119351   9.537   6.098   7.284  0.0482 -0.1420 -0.0562
 1323ERGO    C219352   9.658   6.212   7.597 -0.3553 -0.3251 -0.1191
 1324ERGO   ROH19353  14.027   1.919   5.987 -0.1570 -0.2054  0.0540
 1324ERGO    R119354  14.158   1.889   6.237 -0.1263  0.0522  0.0701
 1324ERGO    R219355  14.060   2.000   6.470 -0.2775  0.0127  0.0235
 1324ERGO    R319356  14.079   1.744   6.561  0.0478  0.0661  0.1198
 1324ERGO    R419357  14.038   1.906   6.802 -0.5232  0.0745  0.0276
 1324ERGO    R519358  14.199   1.764   6.768 -0.2313  0.3339  0.2647
 1324ERGO    C119359  14.043   1.612   7.081 -0.3607  0.1606  0.1204
 1324ERGO    C219360  14.085   1.649   7.428 -0.2844 -0.2662  0.0117
 1325ERGO   ROH19361   8.578   7.250   6.097  0.1716  0.0460 -0.0367
 1325ERGO    R119362   8.512   7.295   6.369  0.1028 -0.0489 -0.0381
 1325ERGO    R219363   8.330   7.138   6.506  0.1054 -0.1263 -0.1269
 1325ERGO    R319364   8.535   7.108   6.680  0.0720 -0.1368 -0.0878
 1325ERGO    R419365   8.294   7.080   6.845  0.0381  0.1596 -0.0818
 1325ERGO    R519366   8.461   7.216   6.880  0.1322  0.0721 -0.1754
 1325ERGO    C119367   8.467   7.018   7.206 -0.0325  0.3163 -0.0190
 1325ERGO    C219368   8.428   6.940   7.519  0.1304 -0.1617 -0.3130
 1326ERGO   ROH19369   4.994   0.485   6.071  0.2192 -0.0443 -0.0208
 1326ERGO    R119370   5.062   0.519   6.343  0.1105 -0.1653  0.0217
 1326ERGO    R219371   4.916   0.678   6.515  0.1643 -0.0751 -0.0214
 1326ERGO    R319372   4.906   0.452   6.665 -0.1124 -0.0999 -0.0697
 1326ERGO    R419373   4.815   0.667   6.845  0.2022 -0.0050 -0.0066
 1326ERGO    R519374   4.976   0.524   6.883  0.0240 -0.2343 -0.0643
 1326ERGO    C119375   4.747   0.448   7.179 -0.0355  0.0125 -0.0433
 1326ERGO    C219376   4.557   0.547   7.431 -0.0131 -0.3172 -0.1432
 1327ERGO   ROH19377  11.818  10.944   6.177 -0.1252  0.0418  0.0943
 1327ERGO    R119378  11.635  10.891   6.386 -0.0662 -0.1073  0.1107
 1327ERGO    R219379  11.701  10.739   6.607  0.0767 -0.0558  0.1085
 1327ERGO    R319380  11.615  10.958   6.743 -0.0881 -0.1222  0.1113
 1327ERGO    R419381  11.688  10.765   6.951  0.1327 -0.0378  0.1086
 1327ERGO    R519382  11.497  10.868   6.932  0.0364 -0.2110  0.1453
 1327ERGO    C119383  11.600  10.986   7.280  0.0106 -0.0897  0.1114
 1327ERGO    C219384  11.648  10.878   7.616  0.0649 -0.1420 -0.0187
 1328ERGO   ROH19385   2.643   1.089   6.051  0.1754 -0.1061  0.0108
 1328ERGO    R119386   2.788   1.110   6.293  0.2455 -0.1892 -0.0230
 1328ERGO    R219387   2.692   1.249   6.513  0.3972 -0.0929 -0.0149
 1328ERGO    R319388   2.737   1.013   6.640  0.2481 -0.1153 -0.0018
 1328ERGO    R419389   2.724   1.212   6.855  0.2505 -0.1140 -0.0028
 1328ERGO    R519390   2.886   1.070   6.819  0.2039 -0.1820  0.0562
 1328ERGO    C119391   2.786   0.969   7.174  0.0251 -0.1473  0.0165
 1328ERGO    C219392   2.902   1.002   7.591 -0.2669  0.2356 -0.2151
 1329ERGO   ROH19393   2.050  10.417   6.371  0.0441  0.0221 -0.0380
 1329ERGO    R119394   2.165  10.441   6.629 -0.0378  0.1995 -0.0165
 1329ERGO    R219395   2.034  10.563   6.840 -0.3253 -0.1126 -0.0057
 1329ERGO    R319396   2.085  10.327   6.966  0.1418 -0.0471 -0.0538
 1329ERGO    R419397   2.076  10.526   7.181 -0.1388 -0.0873 -0.0247
 1329ERGO    R519398   2.237  10.385   7.141  0.1047  0.2024 -0.0997
 1329ERGO    C119399   2.147  10.283   7.497  0.4082 -0.0111 -0.0808
 1329ERGO    C219400   2.007  10.132   7.802 -0.1204 -0.1686  0.2137
 1330ERGO   ROH19401   0.284   4.368   6.149  0.3919 -0.2703 -0.0704
 1330ERGO    R119402   0.340   4.480   6.403  0.1477 -0.1092 -0.0817
 1330ERGO    R219403   0.206   4.403   6.632  0.0714 -0.1234 -0.1188
 1330ERGO    R319404   0.457   4.358   6.726  0.0585  0.1249  0.0384
 1330ERGO    R419405   0.293   4.390   6.967 -0.1504 -0.2470 -0.0654
 1330ERGO    R519406   0.475   4.499   6.918 -0.2530  0.0098  0.1492
 1330ERGO    C119407   0.579   4.341   7.249 -0.2917 -0.0861  0.1133
 1330ERGO    C219408   0.557   4.390   7.578 -0.0607 -0.0055  0.0851
 1331ERGO   ROH19409   2.551  17.608   5.629  0.3104 -0.2167 -0.0654
 1331ERGO    R119410   2.598  17.520   5.894  0.1772 -0.1331 -0.0125
 1331ERGO    R219411   2.791  17.635   6.056  0.2343 -0.2110 -0.0181
 1331ERGO    R319412   2.581  17.666   6.227  0.2144  0.0378 -0.0859
 1331ERGO    R419413   2.813  17.628   6.401  0.1383 -0.0054 -0.0067
 1331ERGO    R519414   2.627  17.515   6.406  0.0652  0.1244  0.0224
 1331ERGO    C119415   2.630  17.654   6.762  0.0637  0.3479 -0.0637
 1331ERGO    C219416   2.647  17.754   7.075 -0.2143  0.0656  0.2804
 1332ERGO   ROH19417  16.652  13.979   5.919  0.1204 -0.1194  0.1230
 1332ERGO    R119418  16.832  13.872   6.110  0.1234 -0.0043  0.1852
 1332ERGO    R219419  17.058  14.007   6.193  0.0405  0.1133  0.2171
 1332ERGO    R319420  16.953  13.965   6.440  0.0016  0.1075  0.2001
 1332ERGO    R419421  17.236  14.025   6.489  0.0451 -0.1000  0.2291
 1332ERGO    R519422  17.126  13.850   6.560 -0.0785 -0.0496  0.1706
 1332ERGO    C119423  17.241  13.996   6.893  0.0112 -0.2297  0.2200
 1332ERGO    C219424  17.251  14.004   7.246  0.0146  0.0060 -0.1161
 1333ERGO   ROH19425  10.926   2.543   6.056  0.1644  0.0132  0.0905
 1333ERGO    R119426  11.030   2.465   6.308  0.0081 -0.1360  0.1113
 1333ERGO    R219427  11.139   2.645   6.487  0.2358 -0.2839  0.1328
 1333ERGO    R319428  10.958   2.535   6.657  0.0400 -0.0282  0.0949
 1333ERGO    R419429  11.160   2.658   6.831  0.0945 -0.2011  0.1388
 1333ERGO    R519430  11.090   2.451   6.838 -0.1367 -0.1186  0.1791
 1333ERGO    C119431  11.002   2.563   7.192 -0.1716  0.0872  0.1066
 1333ERGO    C219432  11.096   2.627   7.514 -0.3656  0.0042 -0.0352
 1334ERGO   ROH19433   5.354   9.125   6.368 -0.4138 -0.0722  0.0131
 1334ERGO    R119434   5.437   9.200   6.628 -0.2337 -0.1030 -0.0330
 1334ERGO    R219435   5.377   9.447   6.737 -0.0587 -0.0690 -0.0040
 1334ERGO    R319436   5.274   9.297   6.939 -0.0183 -0.0183  0.0537
 1334ERGO    R419437   5.325   9.560   7.059 -0.2947  0.1032 -0.1000
 1334ERGO    R519438   5.396   9.367   7.133 -0.1632  0.2149  0.0611
 1334ERGO    C119439   5.198   9.485   7.437 -0.3942  0.2510 -0.1016
 1334ERGO    C219440   5.230   9.704   7.735 -0.2739  0.2494 -0.5185
 1335ERGO   ROH19441   6.699  16.787   6.374  0.0773  0.0285 -0.1360
 1335ERGO    R119442   6.668  16.520   6.463 -0.0231  0.0592 -0.0764
 1335ERGO    R219443   6.777  16.305   6.328 -0.0568 -0.0081  0.0014
 1335ERGO    R319444   6.887  16.250   6.571 -0.1281  0.0197  0.0400
 1335ERGO    R419445   6.877  15.992   6.433  0.1183  0.0401 -0.0193
 1335ERGO    R519446   6.796  16.037   6.630 -0.0044 -0.0582 -0.0464
 1335ERGO    C119447   7.039  15.757   6.722  0.1533  0.0942  0.0048
 1335ERGO    C219448   7.245  15.493   6.726 -0.0749 -0.1488  0.0744
 1336ERGO   ROH19449  13.126  16.485   5.524 -0.1197  0.0974  0.0061
 1336ERGO    R119450  13.193  16.667   5.731 -0.0762  0.0416  0.0428
 1336ERGO    R219451  13.037  16.700   5.957 -0.0324 -0.0173  0.0869
 1336ERGO    R319452  13.271  16.647   6.086 -0.0061 -0.0583  0.0212
 1336ERGO    R419453  13.117  16.812   6.274  0.1534  0.1148 -0.0051
 1336ERGO    R519454  13.320  16.850   6.204  0.1412 -0.0205 -0.1070
 1336ERGO    C119455  13.382  16.827   6.580  0.2862  0.1532 -0.1204
 1336ERGO    C219456  13.512  16.783   6.952 -0.2329 -0.0339 -0.1510
 1337ERGO   ROH19457  16.342  11.692   6.404  0.2442 -0.0632  0.1218
 1337ERGO    R119458  16.248  11.815   6.642  0.1693  0.0158  0.0522
 1337ERGO    R219459  16.131  11.671   6.847  0.0481  0.0919  0.0374
 1337ERGO    R319460  16.322  11.793   6.997  0.0114  0.0849  0.0900
 1337ERGO    R419461  16.117  11.711   7.190  0.0132 -0.0162  0.0488
 1337ERGO    R519462  16.199  11.911   7.165 -0.0259  0.0082  0.1169
 1337ERGO    C119463  16.288  11.848   7.531 -0.0418 -0.0856  0.1048
 1337ERGO    C219464  16.372  11.769   7.823  0.1823 -0.0281 -0.0543
 1338ERGO   ROH19465  12.743   4.774   6.320  0.1317 -0.2632  0.0440
 1338ERGO    R119466  12.721   4.631   6.564  0.0562 -0.1103  0.1306
 1338ERGO    R219467  12.903   4.662   6.771  0.0126  0.0003  0.1656
 1338ERGO    R319468  12.679   4.715   6.916 -0.0218  0.1197  0.0662
 1338ERGO    R419469  12.874   4.623   7.113 -0.1604  0.0489  0.1557
 1338ERGO    R519470  12.674   4.543   7.083 -0.1791  0.1447  0.0802
 1338ERGO    C119471  12.648   4.650   7.448 -0.2934  0.1893  0.0566
 1338ERGO    C219472  12.439   4.786   7.708  0.1042 -0.0701 -0.3280
 1339ERGO   ROH19473   7.510  14.567   6.170  0.0534  0.1063 -0.1031
 1339ERGO    R119474   7.554  14.677   6.427 -0.0872  0.0863 -0.0697
 1339ERGO    R219475   7.438  14.572   6.655  0.0482 -0.1362 -0.1018
 1339ERGO    R319476   7.695  14.562   6.742  0.0652  0.1717 -0.1053
 1339ERGO    R419477   7.534  14.486   6.975  0.1545 -0.1150 -0.1276
 1339ERGO    R519478   7.685  14.644   6.967 -0.0468  0.0889 -0.0774
 1339ERGO    C119479   7.832  14.426   7.244  0.2325  0.1865 -0.1459
 1339ERGO    C219480   7.900  14.105   7.385  0.3402  0.0048 -0.0216
 1340ERGO   ROH19481  14.129   3.679   6.082 -0.0249 -0.0224  0.1197
 1340ERGO    R119482  14.235   3.487   6.260 -0.0950 -0.0597  0.1204
 1340ERGO    R219483  14.407   3.554   6.466 -0.0355 -0.1277  0.0881
 1340ERGO    R319484  14.223   3.424   6.619 -0.0753 -0.0267  0.1280
 1340ERGO    R419485  14.451   3.466   6.798  0.0212 -0.2063  0.0605
 1340ERGO    R519486  14.352   3.277   6.756 -0.1241 -0.1373  0.0619
 1340ERGO    C119487  14.304   3.294   7.134  0.0170 -0.1573  0.0820
 1340ERGO    C219488  14.304   3.315   7.498  0.1315 -0.3268 -0.2659
 1341ERGO   ROH19489   6.162  10.732   6.231  0.2876 -0.0405  0.0109
 1341ERGO    R119490   6.005  10.678   6.461  0.0975  0.0001 -0.1075
 1341ERGO    R219491   6.108  10.555   6.686 -0.0895  0.0322 -0.0034
 1341ERGO    R319492   6.009  10.774   6.812 -0.1873  0.0544 -0.1164
 1341ERGO    R419493   6.127  10.613   7.026  0.0029  0.2763 -0.0485
 1341ERGO    R519494   5.924  10.690   7.020 -0.0530  0.1372 -0.0258
 1341ERGO    C119495   6.046  10.853   7.342 -0.0352  0.4392 -0.1808
 1341ERGO    C219496   6.112  10.945   7.673 -0.0647 -0.0380 -0.1821
 1342ERGO   ROH19497   9.370   9.380   6.245 -0.0887  0.1721 -0.0838
 1342ERGO    R119498   9.355   9.344   6.526  0.0771 -0.0195 -0.0984
 1342ERGO    R219499   9.577   9.355   6.690  0.1202  0.2784 -0.1793
 1342ERGO    R319500   9.429   9.541   6.823 -0.1644 -0.0553 -0.0109
 1342ERGO    R419501   9.577   9.398   7.032  0.3519  0.2135 -0.1684
 1342ERGO    R519502   9.361   9.429   7.023  0.2614 -0.2486  0.0401
 1342ERGO    C119503   9.438   9.597   7.357  0.2195 -0.1376 -0.0041
 1342ERGO    C219504   9.648   9.577   7.675  0.3570  0.0056  0.1802
 1343ERGO   ROH19505  15.500  11.806   6.090  0.0685 -0.0776  0.0741
 1343ERGO    R119506  15.329  11.783   6.315  0.0826  0.0592  0.0997
 1343ERGO    R219507  15.286  11.543   6.446 -0.1136  0.0850  0.0874
 1343ERGO    R319508  15.363  11.685   6.664  0.0520  0.0004  0.0861
 1343ERGO    R419509  15.234  11.447   6.773  0.0019  0.0340  0.0918
 1343ERGO    R519510  15.186  11.654   6.821  0.1144  0.0422  0.1637
 1343ERGO    C119511  15.275  11.525   7.169  0.2246 -0.0751  0.0931
 1343ERGO    C219512  15.333  11.518   7.471 -0.1758 -0.3273 -0.1166
 1344ERGO   ROH19513   0.435   5.513   6.326  0.2033 -0.1410  0.0328
 1344ERGO    R119514   0.329   5.576   6.580 -0.0331 -0.1828 -0.0526
 1344ERGO    R219515   0.242   5.382   6.757  0.0024 -0.2261 -0.0791
 1344ERGO    R319516   0.414   5.506   6.927 -0.2197 -0.0481  0.0213
 1344ERGO    R419517   0.255   5.328   7.098  0.0298 -0.4011 -0.1072
 1344ERGO    R519518   0.285   5.543   7.126 -0.3137 -0.3653  0.0223
 1344ERGO    C119519   0.424   5.413   7.457 -0.1627 -0.3359 -0.0294
 1344ERGO    C219520   0.304   5.108   7.742  0.1570 -0.4762 -0.0290
 1345ERGO   ROH19521   3.620   9.504   6.441 -0.0329  0.1982  0.0538
 1345ERGO    R119522   3.689   9.685   6.648  0.2271  0.0140  0.1321
 1345ERGO    R219523   3.528   9.729   6.867  0.2504  0.2098  0.1031
 1345ERGO    R319524   3.753   9.666   7.005  0.1172 -0.2140  0.1440
 1345ERGO    R419525   3.567   9.769   7.208  0.3701  0.5209  0.0566
 1345ERGO    R519526   3.771   9.838   7.171  0.5692 -0.0393 -0.0585
 1345ERGO    C119527   3.801   9.733   7.537  0.3148  0.3041  0.0678
 1345ERGO    C219528   3.917   9.700   7.846 -0.0431 -0.0182 -0.2332
 1346ERGO   ROH19529   5.984   7.432   6.497  0.1208 -0.0428  0.1493
 1346ERGO    R119530   5.874   7.476   6.754  0.0705 -0.0518  0.1295
 1346ERGO    R219531   5.662   7.328   6.853  0.0239 -0.0275  0.0668
 1346ERGO    R319532   5.832   7.283   7.060 -0.0295 -0.0774  0.0998
 1346ERGO    R419533   5.565   7.284   7.181 -0.0406  0.1928  0.0793
 1346ERGO    R519534   5.735   7.404   7.243  0.0535  0.0806  0.0406
 1346ERGO    C119535   5.667   7.215   7.567 -0.1281  0.2743  0.1175
 1346ERGO    C219536   5.665   7.210   7.922 -0.2409  0.0465  0.1588
 1347ERGO   ROH19537  14.960  10.720   6.546  0.1535  0.0908 -0.0527
 1347ERGO    R119538  14.810  10.728   6.786  0.0830 -0.1009 -0.0884
 1347ERGO    R219539  14.776  10.507   6.948  0.3502 -0.1421 -0.0818
 1347ERGO    R319540  14.873  10.673   7.140  0.0787  0.0098 -0.0708
 1347ERGO    R419541  14.748  10.453   7.288  0.1693 -0.0412 -0.0791
 1347ERGO    R519542  14.708  10.666   7.314 -0.0309 -0.0673 -0.1792
 1347ERGO    C119543  14.823  10.577   7.666 -0.1909  0.1601 -0.0672
 1347ERGO    C219544  14.679  10.491   7.987  0.0831 -0.1583 -0.1956
 1348ERGO   ROH19545  16.304  12.919   6.160 -0.0313  0.1779  0.0144
 1348ERGO    R119546  16.252  12.969   6.434 -0.0183  0.1613  0.0205
 1348ERGO    R219547  16.089  12.806   6.586 -0.0992  0.2099 -0.0074
 1348ERGO    R319548  16.306  12.796   6.750 -0.1064  0.0881 -0.0051
 1348ERGO    R419549  16.077  12.807   6.932 -0.0994  0.0973 -0.0069
 1348ERGO    R519550  16.250  12.940   6.932 -0.0614  0.0415  0.0421
 1348ERGO    C119551  16.274  12.799   7.286 -0.1064 -0.0828 -0.0045
 1348ERGO    C219552  16.303  12.939   7.507  0.1184 -0.1294  0.1693
 1349W        W19553  14.697   4.764  16.165  0.0238  0.2255  0.2045
 1350W        W19554   9.201  13.948  13.676  0.2884  0.5457  0.2057
 1351W        W19555   0.049   4.689   2.899  0.1822  0.2035  0.1177
 1352W        W19556  11.412  15.341  15.027  0.1181  0.4660 -0.1860
 1353W        W19557   7.821   4.076  10.490 -0.1725 -0.2047  0.2309
 1354W        W19558  11.898   9.057  14.838 -0.2281  0.0030  0.0369
 1355W        W19559  15.236   1.851   4.988  0.1399 -0.1351  0.0767
 1356W        W19560  15.243   7.028   0.347 -0.2174 -0.0486  0.4125
 1357W        W19561   3.035   7.799   4.080 -0.0916  0.0992  0.1312
 1358W        W19562   9.071  17.033  15.310  0.3292  0.0079 -0.1868
 1359W        W19563   1.153  13.745  14.724 -0.2464  0.0882 -0.1616
 1360W        W19564   6.442   4.609  13.461  0.1607  0.0111  0.1421
 1361W        W19565   1.053   2.583  15.101 -0.0985  0.2876  0.1312
 1362W        W19566  12.770   9.226   2.208 -0.1427  0.1178  0.1174
 1363W        W19567   7.510   0.942  15.887 -0.0804 -0.2554 -0.0227
 1364W        W19568   8.250   1.567   0.817  0.2597  0.2807  0.4958
 1365W        W19569  14.078  17.905   4.117  0.0842 -0.0003  0.1088
 1366W        W19570   4.835   4.130   1.593  0.0576  0.0941  0.0867
 1367W        W19571   4.749   7.979  14.544 -0.0442 -0.0853 -0.0182
 1368W        W19572  15.948  12.335   3.087  0.2229 -0.3018 -0.1928
 1369W        W19573  12.859  14.253   3.140 -0.3587  0.1264 -0.0519
 1370W        W19574  17.104   5.550  14.117 -0.2688 -0.0331 -0.0519
 1371W        W19575  18.023   1.876   3.209 -0.0665  0.1522  0.2001
 1372W        W19576  14.975  12.395  13.493  0.0832 -0.1692  0.0968
 1373W        W19577   5.825   7.348   4.492  0.0834 -0.3073  0.0781
 1374W        W19578  14.801  16.881  10.156  0.4462 -0.0242 -0.2253
 1375W        W19579   9.683  17.909  12.897 -0.1334 -0.2053 -0.0145
 1376W        W19580  15.917   4.456   4.080 -0.0089 -0.0102 -0.2667
 1377W        W19581   6.848  11.508  11.239 -0.0945  0.0449  0.0336
 1378W        W19582  14.209  13.230   4.088  0.0154 -0.1988  0.2773
 1379W        W19583   7.377  18.006   0.227 -0.2238 -0.0165  0.0164
 1380W        W19584   5.372  10.739  14.132  0.0090  0.0344  0.0141
 1381W        W19585   4.768   4.610  14.662 -0.0993 -0.1747  0.2838
 1382W        W19586  10.645   7.513   3.234  0.2914 -0.0528 -0.0979
 1383W        W19587   9.882   5.689  13.878 -0.5127  0.1283 -0.1520
 1384W        W19588  15.193  10.518  12.748 -0.0789 -0.0266  0.0533
 1385W        W19589   8.550  13.467  16.153 -0.0550 -0.0357 -0.2557
 1386W        W19590   8.273   3.358   0.060  0.0997  0.1015 -0.0598
 1387W        W19591  17.093  12.109  14.547  0.0365  0.1369  0.2858
 1388W        W19592   3.771   6.138   0.282 -0.2878  0.0785 -0.1779
 1389W        W19593  10.772  17.150  10.348 -0.4003 -0.1210  0.0615
 1390W        W19594  16.226   9.764  12.889  0.1610 -0.2099  0.1384
 1391W        W19595  17.476   2.660   4.726 -0.2730  0.3049 -0.1200
 1392W        W19596   3.876   3.491  14.049 -0.0543  0.0956  0.3608
 1393W        W19597  14.690  16.590  11.179  0.1241 -0.3767  0.1439
 1394W        W19598   2.583   6.590  12.007  0.2239 -0.5107  0.2600
 1395W        W19599   3.617   6.571  12.499 -0.0308 -0.2764 -0.1660
 1396W        W19600   1.447   5.638  13.694 -0.1122 -0.2143 -0.2383
 1397W        W19601   6.321  14.816  13.197 -0.1450  0.2575  0.0721
 1398W        W19602  11.541   2.951  12.662 -0.1936 -0.2697  0.3342
 1399W        W19603   8.309   2.014  13.735  0.1413  0.0154 -0.0209
 1400W        W19604  11.312  12.377   3.865 -0.0035 -0.0218  0.2311
 1401W        W19605   8.840   8.877   2.890 -0.1269  0.0725 -0.0095
 1402W        W19606  14.757  17.921  15.624  0.1327  0.1477 -0.0321
 1403W        W19607   5.398   5.993   4.966  0.1290  0.2763 -0.0661
 1404W        W19608  13.018   5.356  13.693  0.0633  0.1076 -0.1005
 1405W        W19609   9.571  13.114  12.481  0.0878  0.1932  0.1851
 1406W        W19610   2.244   5.377  15.616 -0.0893 -0.2758 -0.0536
 1407W        W19611   9.838   8.109  12.682  0.0131  0.1734  0.1772
 1408W        W19612   8.713   6.139  15.419 -0.0294 -0.0279 -0.0468
 1409W        W19613  16.649  13.738  14.499 -0.0542  0.0335 -0.3668
 1410W        W19614  13.174   0.371   0.871  0.1291  0.1708 -0.4097
 1411W        W19615  11.330   0.711  15.929 -0.1659  0.1031 -0.1226
 1412W        W19616  12.612   6.967   2.910  0.2346  0.1248 -0.1768
 1413W        W19617  16.490  14.943   5.334 -0.3496 -0.1594 -0.2481
 1414W        W19618   1.743  16.870   2.310 -0.1233 -0.2752  0.1055
 1415W        W19619  11.075   1.886   3.737 -0.1105  0.0048  0.1045
 1416W        W19620   0.101   7.521   0.491  0.2621 -0.0051 -0.0114
 1417W        W19621   6.447   3.444   5.245 -0.1575  0.0108  0.0423
 1418W        W19622   8.357  12.345   4.327 -0.0719  0.1699  0.1708
 1419W        W19623  11.055   8.503   2.508 -0.2149 -0.1207  0.1122
 1420W        W19624  13.473  14.932  15.509 -0.1055 -0.2233 -0.0335
 1421W        W19625  13.357  11.283   4.719  0.0575 -0.0397 -0.0804
 1422W        W19626  12.169   2.456   0.800  0.3091  0.1382 -0.0373
 1423W        W19627  10.840   8.378   4.877  0.1271  0.0663  0.0633
 1424W        W19628  11.815   7.091  14.716  0.0852  0.1695  0.2907
 1425W        W19629  15.133   7.831  11.377  0.0574  0.1135  0.1536
 1426W        W19630   2.441  15.151   3.174 -0.1242  0.0574  0.2251
 1427W        W19631   9.680   3.005  13.395  0.0548  0.2445 -0.1130
 1428W        W19632  16.271   4.539  13.900  0.1270  0.0279 -0.0109
 1429W        W19633   4.738  17.596   0.536 -0.2069 -0.0301 -0.0305
 1430W        W19634   1.396  11.323  15.380  0.3555  0.2529 -0.1007
 1431W        W19635  13.668   2.458  13.569 -0.1418  0.0194  0.1857
 1432W        W19636  10.354   9.904  14.450  0.3434 -0.1021  0.0044
 1433W        W19637  14.739   4.964   0.703 -0.2211  0.0617  0.3547
 1434W        W19638   5.653   7.330   4.035  0.0727 -0.3438 -0.0226
 1435W        W19639   2.217   9.649   4.622 -0.3372  0.1316 -0.0823
 1436W        W19640   5.547  11.954   2.486 -0.1909 -0.1538 -0.3507
 1437W        W19641   1.114  10.138   3.321  0.0623 -0.2169  0.1060
 1438W        W19642   9.730  16.678  13.034  0.1479  0.0053  0.0084
 1439W        W19643  14.339   9.267  16.070  0.0051  0.0479 -0.0967
 1440W        W19644  13.139   8.029   0.504  0.4144  0.4874 -0.0790
 1441W        W19645  16.763   9.448   2.821 -0.0356 -0.0792 -0.0533
 1442W        W19646   8.537   4.257   1.922  0.0137 -0.0163 -0.0606
 1443W        W19647  10.410   5.846  14.581  0.1723 -0.1531  0.0778
 1444W        W19648   8.907  15.698  15.660  0.1482 -0.2164 -0.3187
 1445W        W19649  17.715   5.374  14.661  0.1307  0.1023  0.0020
 1446W        W19650  17.989   2.441   3.375 -0.0646  0.1156  0.0653
 1447W        W19651  13.314   0.229   3.993  0.0399  0.2094 -0.1523
 1448W        W19652  16.442   5.156  15.642 -0.1080  0.1700  0.1711
 1449W        W19653   7.885   7.742  12.732 -0.3403  0.1413  0.2524
 1450W        W19654   9.770  12.651   3.884 -0.0057  0.2221  0.0490
 1451W        W19655  15.300  14.900   3.006 -0.0027  0.0063  0.0211
 1452W        W19656  17.329   0.267   3.560  0.1253 -0.0054  0.0505
 1453W        W19657  10.003  13.469  13.495 -0.0005  0.0868  0.0546
 1454W        W19658  17.788  11.747   3.133  0.0583  0.2323 -0.0044
 1455W        W19659   4.798   2.659  13.233  0.0789  0.1256 -0.1221
 1456W        W19660  15.620   1.952   1.934  0.0823  0.0217 -0.2688
 1457W        W19661  14.100  11.652   3.573 -0.1914 -0.0560 -0.1687
 1458W        W19662  14.796   6.106   1.012 -0.0793 -0.0832 -0.0869
 1459W        W19663  10.052  11.658  11.645 -0.2607 -0.2934 -0.1906
 1460W        W19664  10.912   1.066  16.158 -0.0116  0.1354  0.2102
 1461W        W19665  15.895   0.383   4.591 -0.4387  0.0483 -0.1172
 1462W        W19666  17.531   8.299  13.153 -0.1464 -0.0131 -0.0222
 1463W        W19667   5.005   9.320  15.705  0.2182  0.0620  0.3812
 1464W        W19668   8.116   5.027  12.686  0.3533 -0.2641  0.1029
 1465W        W19669  17.190  17.119  10.862 -0.0976 -0.0126  0.1313
 1466W        W19670  16.643   6.278   3.304 -0.1187 -0.2875 -0.0259
 1467W        W19671  16.950   2.778   3.379  0.3050 -0.2936 -0.1972
 1468W        W19672  11.500   8.864   5.988  0.1521  0.1239  0.1376
 1469W        W19673  12.616  13.014   1.134  0.0932  0.2276 -0.1134
 1470W        W19674   5.337   2.204   1.629 -0.0132 -0.2005  0.0077
 1471W        W19675  14.746   6.853  15.562  0.1134  0.0256  0.4646
 1472W        W19676   8.860  12.707  12.005  0.1062 -0.0212 -0.3095
 1473W        W19677  12.606  17.104  11.862  0.1175 -0.0547 -0.1629
 1474W        W19678  15.008  16.870   0.668 -0.0257  0.0960 -0.0165
 1475W        W19679  14.422  14.985  15.923  0.0780  0.0999 -0.0828
 1476W        W19680   3.591  11.823  12.677 -0.1548  0.1545 -0.0447
 1477W        W19681   9.094  14.380   0.610 -0.1210 -0.0846  0.0192
 1478W        W19682  15.846   0.528   0.403  0.0537  0.0731 -0.2951
 1479W        W19683   1.100   9.420  11.395  0.2322 -0.0044  0.0985
 1480W        W19684   8.528  17.198  15.341 -0.0891 -0.0324  0.0551
 1481W        W19685   7.126   3.958   0.710 -0.0145 -0.0047  0.0296
 1482W        W19686  16.223  11.000   1.729  0.0850  0.0979  0.0047
 1483W        W19687   5.142  12.929  12.790 -0.3413 -0.1436  0.1605
 1484W        W19688   5.628   3.765   0.856  0.0942  0.0300  0.1495
 1485W        W19689   4.648  12.569  13.934  0.0083  0.2164  0.2812
 1486W        W19690  15.849  15.402   0.791  0.0507  0.2066  0.0394
 1487W        W19691  17.888   9.344   1.796  0.0987  0.0665 -0.0779
 1488W        W19692   1.901  16.636  10.969 -0.0390  0.0555  0.1137
 1489W        W19693   6.367   5.924  13.397 -0.3788 -0.1702  0.1022
 1490W        W19694   8.513   5.857  13.218 -0.1178 -0.2518  0.1298
 1491W        W19695   5.654   8.829   4.558 -0.0017  0.3992 -0.0719
 1492W        W19696  17.288   5.373   0.445 -0.0388  0.0898  0.1220
 1493W        W19697  12.027   4.022  12.947 -0.0402 -0.0815 -0.1650
 1494W        W19698   1.762   4.042  10.902  0.1958 -0.4074  0.0264
 1495W        W19699   8.659  16.699   1.863  0.0873  0.0296 -0.0243
 1496W        W19700  11.654  15.597   4.320 -0.1073  0.2287 -0.2344
 1497W        W19701   3.185  13.741  15.913  0.0245  0.0523 -0.0501
 1498W        W19702  11.473  17.535  15.437  0.0073 -0.0063 -0.0837
 1499W        W19703  12.093  14.303   1.617  0.1023  0.1323 -0.1899
 1500W        W19704  15.895  15.703   3.965 -0.3813  0.1412 -0.0400
 1501W        W19705   5.395  13.371   4.406 -0.0391 -0.0565 -0.0191
 1502W        W19706  15.518   5.830  12.226  0.1732  0.0648 -0.0503
 1503W        W19707  12.574   7.282   4.625  0.1354 -0.2368  0.0694
 1504W        W19708   1.615  12.835   0.133  0.0679  0.0880  0.0196
 1505W        W19709  12.653  17.150   3.665 -0.0363  0.1078 -0.0816
 1506W        W19710  17.076   8.187   4.510 -0.4027 -0.1627  0.2218
 1507W        W19711  17.061   4.046   0.932  0.0598  0.0607  0.3329
 1508W        W19712   4.459   3.431   4.317  0.1228 -0.2030 -0.1456
 1509W        W19713   8.889  11.136  13.214  0.1323  0.1926 -0.1265
 1510W        W19714   4.674   3.082   4.638  0.0457 -0.1382 -0.0105
 1511W        W19715  14.520  16.840  14.212  0.3618 -0.0795  0.1785
 1512W        W19716   1.248  15.295   4.324 -0.1554  0.0115  0.0770
 1513W        W19717  14.033   1.261   0.721 -0.0343  0.0749 -0.0445
 1514W        W19718  13.424  12.327  12.735  0.0963 -0.0774 -0.0910
 1515W        W19719   4.740  14.218  13.518  0.0862 -0.0591 -0.0907
 1516W        W19720   4.247   6.736   0.468  0.1614  0.0281 -0.1095
 1517W        W19721  16.525   0.063  13.384 -0.3163  0.1955  0.2424
 1518W        W19722   6.123   7.983  12.500  0.0551 -0.0006  0.0563
 1519W        W19723  17.005   5.556   1.151 -0.0931  0.1103 -0.0092
 1520W        W19724   7.269   0.545   1.424  0.0804 -0.1737  0.0127
 1521W        W19725  14.105  11.182  10.670  0.1390 -0.1235 -0.2874
 1522W        W19726   9.548  11.299  13.860 -0.2076  0.0467 -0.0349
 1523W        W19727   1.078   3.816   0.139  0.2353 -0.0257 -0.0176
 1524W        W19728   1.882   2.379  14.610  0.0504 -0.1917 -0.1814
 1525W        W19729  12.273   4.748  16.032  0.1623  0.3134 -0.0617
 1526W        W19730  15.402   3.903   1.427 -0.2902  0.3985  0.0803
 1527W        W19731   1.727  15.406  11.980 -0.3353  0.0770  0.2892
 1528W        W19732  11.916  16.128  15.400  0.3346 -0.1572  0.5948
 1529W        W19733  16.276   8.857  11.247 -0.3893 -0.0533 -0.1379
 1530W        W19734   6.120  12.618   2.483  0.0894  0.0286  0.0766
 1531W        W19735   0.830   3.175  14.549 -0.0363  0.1577 -0.2398
 1532W        W19736  12.840   7.612   4.397  0.4054  0.0610  0.0123
 1533W        W19737  10.733  11.706  14.970 -0.2392 -0.0818 -0.0742
 1534W        W19738   7.486   7.345  14.478  0.1370  0.1544  0.0039
 1535W        W19739   3.747   1.397   2.137 -0.2007 -0.1095 -0.2360
 1536W        W19740   3.682   2.295  12.659  0.1820 -0.0223 -0.2768
 1537W        W19741  11.354   2.354   3.691  0.1779 -0.1872 -0.4203
 1538W        W19742  10.882  14.701   3.106  0.0790  0.2604  0.0607
 1539W        W19743  13.924   8.533   2.700  0.0304  0.1159  0.0119
 1540W        W19744  13.415  10.711  12.829 -0.1197  0.4642  0.0272
 1541W        W19745   7.260   6.714   0.100 -0.2580  0.0711 -0.0898
 1542W        W19746  14.092  15.922   4.816  0.1779  0.0062 -0.2842
 1543W        W19747   1.504   8.317  11.997 -0.0782  0.1849 -0.1532
 1544W        W19748   9.835  15.537   0.313  0.0786 -0.0464  0.0144
 1545W        W19749   5.174   8.411   3.326  0.0061 -0.1890  0.0386
 1546W        W19750   2.019   0.926  14.631  0.0646  0.1776 -0.0033
 1547W        W19751   6.153   6.515  13.429 -0.0976 -0.1002  0.2422
 1548W        W19752   9.993   1.283   3.098 -0.0169  0.0467  0.1662
 1549W        W19753  17.460  16.226  13.277 -0.3964 -0.0473  0.0057
 1550W        W19754   5.100   5.232  12.746  0.0480  0.1235  0.0687
 1551W        W19755   4.587  10.530   2.308  0.0744 -0.0213 -0.0524
 1552W        W19756  13.961  13.968  13.780 -0.0119  0.0183  0.0850
 1553W        W19757  17.219  16.562   0.241  0.1450  0.3290  0.0047
 1554W        W19758  13.059  16.635   3.039 -0.1143 -0.1350 -0.0909
 1555W        W19759   3.439  10.618   5.331  0.1066  0.0461 -0.1318
 1556W        W19760  16.390  12.397   2.700 -0.1203  0.1333 -0.0498
 1557W        W19761  15.070   0.091  12.961 -0.4620 -0.4445  0.0015
 1558W        W19762   5.701  14.378  11.712 -0.1338 -0.2709 -0.0379
 1559W        W19763  16.825   5.413   3.999  0.0246 -0.2324 -0.2074
 1560W        W19764  15.217   9.776   4.514  0.0029 -0.0065 -0.1980
 1561W        W19765   9.702   2.312  15.718 -0.0797 -0.0221 -0.2509
 1562W        W19766  11.692   3.336   3.838  0.0015  0.0345 -0.0830
 1563W        W19767   1.778   0.216  14.543 -0.0251  0.0805  0.0013
 1564W        W19768  17.249  11.752   3.357 -0.0866 -0.2339  0.1440
 1565W        W19769  14.665   3.748  14.480  0.1232  0.2063 -0.3302
 1566W        W19770  10.183  10.584  14.848 -0.0033  0.0818 -0.0228
 1567W        W19771   0.920   9.475   1.829 -0.2484 -0.0786 -0.0954
 1568W        W19772  13.579  10.582   3.931  0.2942 -0.0258  0.4870
 1569W        W19773   1.307  14.622   4.896 -0.4089  0.2921 -0.0499
 1570W        W19774   3.438   6.426  13.160  0.0083 -0.2137  0.2048
 1571W        W19775  12.748   8.527  15.553 -0.1131  0.1482 -0.0501
 1572W        W19776   2.733  17.266   0.901 -0.1666  0.2345  0.0317
 1573W        W19777  11.988  14.747   3.859 -0.0458 -0.2936 -0.2310
 1574W        W19778  11.012  14.052  12.433 -0.3479 -0.5123 -0.1030
 1575W        W19779   6.773  10.857   1.723  0.1684 -0.3618  0.0574
 1576W        W19780   9.975   1.382  15.568  0.0907 -0.0162  0.2496
 1577W        W19781   5.104  11.894  15.980  0.0466 -0.0953 -0.2272
 1578W        W19782  16.586  16.517   1.967  0.1049  0.0119 -0.2994
 1579W        W19783  17.587   3.755  12.589 -0.3216  0.0223  0.1803
 1580W        W19784   9.409   2.457   0.020  0.1849 -0.0027  0.1495
 1581W        W19785  10.717   0.011  10.609 -0.2254  0.0341 -0.2617
 1582W        W19786  14.598   5.584  14.479 -0.0007 -0.3892  0.1436
 1583W        W19787  16.479  12.273   1.766  0.0080 -0.0040  0.2774
 1584W        W19788  14.839  11.887  13.359 -0.1260  0.1481  0.0803
 1585W        W19789   7.756   9.726   0.038 -0.1346 -0.0078  0.0479
 1586W        W19790   8.349   6.168   0.984 -0.0690 -0.1793  0.0787
 1587W        W19791   4.365  12.611   3.879  0.0447 -0.0702 -0.1094
 1588W        W19792   3.182  16.967  12.850  0.2533 -0.2117  0.0483
 1589W        W19793  13.328   8.838   1.571  0.0072 -0.0469  0.0905
 1590W        W19794   0.670  16.412   1.203  0.0300  0.2931 -0.0335
 1591W        W19795  14.234   1.656  13.796  0.1438 -0.0499 -0.0995
 1592W        W19796   4.964   7.705  15.308  0.1314  0.0009  0.1491
 1593W        W19797  17.228   8.900   0.791 -0.1548  0.2621 -0.2646
 1594W        W19798   7.038   6.338  14.635  0.1068 -0.2687  0.2576
 1595W        W19799   5.717   4.286   1.031 -0.2129 -0.2810 -0.2822
 1596W        W19800  13.668  14.359   3.703  0.1261 -0.2410  0.0632
 1597W        W19801  11.276  11.171   0.569  0.0359 -0.1550 -0.1908
 1598W        W19802  10.085  13.065   1.135 -0.3559  0.0356  0.2632
 1599W        W19803   2.755   5.487   4.186  0.1378  0.1742  0.0462
 1600W        W19804   2.970  15.132  14.528  0.0528 -0.0191 -0.0826
 1601W        W19805   5.012   9.804  11.755  0.1304 -0.1862  0.1186
 1602W        W19806   5.981  11.601  16.026 -0.2605  0.0493  0.0488
 1603W        W19807  15.420  13.970   2.633  0.0914 -0.0966  0.0631
 1604W        W19808   4.638   3.974  13.852 -0.2187 -0.1688 -0.0680
 1605W        W19809   5.139  14.679   5.620 -0.1918 -0.0205 -0.1393
 1606W        W19810  16.463  17.386   4.106  0.1769 -0.4822  0.1090
 1607W        W19811   3.955   4.788   2.421 -0.1038 -0.1135 -0.0576
 1608W        W19812   0.297  17.270  12.960 -0.2216  0.2833 -0.0838
 1609W        W19813  11.163  13.191   3.415 -0.0270  0.0699 -0.0164
 1610W        W19814   5.475   0.414  15.439  0.2038  0.1621  0.3011
 1611W        W19815   5.227   8.195  15.390 -0.1460 -0.2079  0.3282
 1612W        W19816  10.285   2.124   0.315 -0.0236 -0.0747  0.0560
 1613W        W19817   3.849  17.871   4.510 -0.2644  0.0955 -0.1371
 1614W        W19818  17.645   2.042  14.239 -0.2612  0.0834  0.1207
 1615W        W19819  14.957   0.456   3.251  0.2385  0.0368 -0.2446
 1616W        W19820   8.561  12.787  15.411  0.1109  0.1665 -0.1002
 1617W        W19821   2.304   4.904  15.398  0.0809  0.2258  0.4462
 1618W        W19822  14.435  13.767   1.117 -0.0137 -0.0790  0.1999
 1619W        W19823   3.737   6.601   0.524  0.0788  0.1945  0.1740
 1620W        W19824   7.941   1.572   1.651  0.0514  0.1511  0.2083
 1621W        W19825  17.975   6.457  15.205  0.0199 -0.0398 -0.0747
 1622W        W19826  12.423   1.584  15.911  0.1026  0.0703  0.0064
 1623W        W19827   2.742  13.858  14.615  0.2772  0.1150 -0.0510
 1624W        W19828   2.322   8.041   3.763 -0.1435 -0.0403 -0.1047
 1625W        W19829  14.398   1.764  15.817  0.1225 -0.0715  0.1047
 1626W        W19830  17.394  15.302  14.445 -0.0576  0.1415 -0.1556
 1627W        W19831  10.571   4.113   1.557 -0.0858 -0.2339  0.2147
 1628W        W19832   5.905  10.643  14.849  0.1310  0.3132  0.0209
 1629W        W19833   8.932   7.233  11.600 -0.0784 -0.3226  0.0939
 1630W        W19834   5.811  15.370  13.959 -0.2846 -0.0334  0.1432
 1631W        W19835   2.816  11.075  14.676 -0.0538 -0.3363 -0.0363
 1632W        W19836   1.611   5.467   4.115  0.0721  0.2336  0.2491
 1633W        W19837  16.501   9.067  13.391 -0.1704 -0.0106  0.3681
 1634W        W19838   8.343   9.498  15.668  0.4476 -0.1172 -0.0601
 1635W        W19839   6.474   4.343   3.555  0.0316 -0.0665 -0.1551
 1636W        W19840  16.213   8.191  14.469 -0.1786 -0.3380  0.0556
 1637W        W19841   3.239  13.308   4.072  0.0211 -0.0199 -0.0524
 1638W        W19842   3.256  12.727   3.351  0.0628 -0.0031 -0.0564
 1639W        W19843   6.629  17.670  12.401 -0.0962 -0.0196  0.0074
 1640W        W19844   1.336   4.294   1.233  0.1212 -0.2854 -0.0706
 1641W        W19845   0.637  15.165   3.411 -0.0288 -0.0210 -0.3251
 1642W        W19846   7.286  10.459   0.474  0.4907 -0.1747  0.0574
 1643W        W19847  15.875   3.813   1.727  0.0779  0.1002 -0.0518
 1644W        W19848  16.554   3.516  15.759 -0.0521  0.1632 -0.0212
 1645W        W19849  13.874  15.831   2.147 -0.3857  0.2141  0.3652
 1646W        W19850   7.764   5.432  12.229 -0.1252 -0.1319  0.0129
 1647W        W19851  16.635  10.824  15.286 -0.2933 -0.0205 -0.3328
 1648W        W19852   1.452  11.274  11.740 -0.2500 -0.2170 -0.3461
 1649W        W19853  17.519  17.797   1.129 -0.0580 -0.0648  0.2768
 1650W        W19854  14.813   1.855   4.658 -0.0832 -0.0270 -0.0987
 1651W        W19855  14.651   8.938  14.988 -0.0288  0.2086 -0.1575
 1652W        W19856  17.927   6.894   1.880  0.1295  0.0653  0.1772
 1653W        W19857  15.349  11.260   4.942  0.0409  0.0431 -0.2629
 1654W        W19858   8.380  10.342  12.813  0.0915  0.0202  0.0397
 1655W        W19859  13.443   2.285   2.003  0.2317  0.0406 -0.3315
 1656W        W19860   4.088  11.078  11.274  0.0869 -0.0094 -0.0329
 1657W        W19861   6.876  10.671   3.371  0.3615  0.1669  0.3741
 1658W        W19862   0.292   5.326   1.581 -0.1538 -0.0266  0.1612
 1659W        W19863   1.749   9.851  15.639  0.1290 -0.0241 -0.1353
 1660W        W19864  17.924   0.031  14.257  0.1852 -0.0580 -0.4029
 1661W        W19865  13.204   3.809  15.482  0.1380  0.1005 -0.0185
 1662W        W19866  17.949  11.082  11.807  0.0570  0.1219  0.0322
 1663W        W19867  10.230  17.619  11.764 -0.5237  0.2519  0.2922
 1664W        W19868   5.225   9.523  15.324 -0.0651  0.3018 -0.4812
 1665W        W19869   2.434   5.305   1.855  0.0385 -0.0997 -0.0445
 1666W        W19870  10.853  12.377   2.315 -0.1259 -0.0890  0.1422
 1667W        W19871   1.517  10.617  12.545  0.3408  0.3858  0.0255
 1668W        W19872   1.648   3.162  14.526 -0.2232  0.1312  0.0888
 1669W        W19873   3.144  16.151   3.795  0.0683 -0.2728 -0.4237
 1670W        W19874   3.863   5.905   4.129  0.1188  0.1131 -0.2659
 1671W        W19875   4.276   6.985   3.656  0.1463  0.0769  0.0508
 1672W        W19876  16.972  12.472   0.321 -0.0362  0.0738 -0.2790
 1673W        W19877  15.863   9.484   2.837  0.0101 -0.0088 -0.2765
 1674W        W19878   4.451  12.404   3.455  0.0865  0.0904  0.3855
 1675W        W19879   0.212  15.251  13.906  0.1133 -0.0513 -0.1357
 1676W        W19880   9.094  13.563   2.592  0.2619 -0.1037  0.1141
 1677W        W19881  12.827  10.609  14.147  0.3434  0.0001 -0.1714
 1678W        W19882  12.352   8.361   4.735 -0.3520  0.2163 -0.1588
 1679W        W19883   9.216  12.650   0.153 -0.0790  0.2878  0.0505
 1680W        W19884  11.189   3.199   3.563  0.1046 -0.5638  0.0756
 1681W        W19885  17.705   7.105  14.095  0.3811  0.2044 -0.2226
 1682W        W19886  16.683   4.825   0.654 -0.0241  0.2619 -0.1131
 1683W        W19887   9.783   2.390  14.712  0.2807  0.0751 -0.2095
 1684W        W19888  14.766   3.039   2.964 -0.0202  0.0212  0.1085
 1685W        W19889  13.083   9.661   1.724  0.0004 -0.0821 -0.0268
 1686W        W19890   5.725   2.190  15.090  0.2905 -0.3028  0.2027
 1687W        W19891   7.702   7.170   5.085  0.2606  0.1555 -0.0357
 1688W        W19892   8.244  12.693   3.100  0.0929  0.1434 -0.4816
 1689W        W19893   6.798   0.501  14.789 -0.1377  0.1602 -0.1133
 1690W        W19894  15.369   3.875  15.167  0.0909  0.2381  0.1678
 1691W        W19895  12.942   4.006  11.707  0.2015  0.0583 -0.1515
 1692W        W19896   2.179   4.478  13.015  0.1624  0.0152 -0.0053
 1693W        W19897   3.198  11.087   2.466 -0.0014  0.1619 -0.2348
 1694W        W19898   0.772   8.413  14.140 -0.1806  0.0250 -0.0775
 1695W        W19899   1.950  13.737  15.267 -0.0263  0.1675  0.3235
 1696W        W19900   5.088   4.632  12.676  0.0613  0.0948 -0.0052
 1697W        W19901  10.099   7.594   4.102  0.1450  0.3527  0.0988
 1698W        W19902  16.504  15.792  13.365 -0.1930  0.2794 -0.1343
 1699W        W19903  15.099  10.868   4.007 -0.1081 -0.1936  0.0874
 1700W        W19904   9.222   7.361  13.444 -0.0403  0.0838  0.0734
 1701W        W19905  17.100  12.745  13.892 -0.0394  0.1172  0.0247
 1702W        W19906   6.624  12.126   3.993  0.0708  0.1796 -0.0720
 1703W        W19907   6.301   1.548  11.240  0.2026 -0.2401 -0.1284
 1704W        W19908   2.862  14.360  14.786 -0.2919  0.0170  0.1937
 1705W        W19909   9.193   6.405   4.457 -0.2813 -0.1496  0.2184
 1706W        W19910  17.889  10.526  12.626 -0.0211 -0.1202  0.1462
 1707W        W19911  10.296   3.478  12.385  0.2761  0.1103  0.1168
 1708W        W19912  11.637  15.157  13.373 -0.4978 -0.1449 -0.0655
 1709W        W19913  14.315  11.543  12.233 -0.5315 -0.0263  0.0196
 1710W        W19914  10.602   3.270   1.480 -0.1616  0.0216  0.0620
 1711W        W19915   0.490  13.858   1.415 -0.1063  0.2215 -0.0370
 1712W        W19916  10.118   8.020  13.147 -0.0719 -0.1761 -0.1191
 1713W        W19917   4.110   0.677  12.135  0.0868 -0.0445  0.0232
 1714W        W19918   6.167   1.592  14.494  0.0194 -0.0833 -0.0741
 1715W        W19919   6.257   6.711  14.741  0.1780 -0.1302  0.2431
 1716W        W19920   1.876   4.105  12.326 -0.3338 -0.1362 -0.1150
 1717W        W19921   2.869   5.177  13.179  0.0467 -0.1058  0.0433
 1718W        W19922  17.558  11.270   0.637  0.0480 -0.2438  0.1837
 1719W        W19923  12.852   7.788  14.340 -0.0704  0.1267 -0.1704
 1720W        W19924  15.039   4.709  14.673 -0.1918  0.1449 -0.3199
 1721W        W19925  14.583  13.595  12.937 -0.1613  0.0654 -0.0601
 1722W        W19926  14.791   8.310   3.992  0.0357 -0.0710  0.1534
 1723W        W19927   9.353  10.050   4.893  0.1270 -0.0995 -0.0114
 1724W        W19928  12.620  11.945   4.203 -0.0806  0.1642 -0.2409
 1725W        W19929   0.178  10.889  12.803 -0.0163  0.4772  0.0184
 1726W        W19930   5.483   4.151   3.459 -0.0102 -0.2724 -0.2149
 1727W        W19931   6.684  15.495   2.503 -0.1023  0.0912  0.2568
 1728W        W19932  16.068   5.696  14.106  0.1398  0.1101  0.3315
 1729W        W19933  12.826   7.701   4.888 -0.0074  0.3545 -0.1363
 1730W        W19934  10.348   3.746  13.685  0.2124 -0.2232  0.0632
 1731W        W19935  12.937  15.415  15.957  0.0617 -0.1464  0.0305
 1732W        W19936   6.301  14.339   4.455 -0.0716  0.0050  0.0882
 1733W        W19937  10.055   7.215   4.398  0.0000  0.1043 -0.0350
 1734W        W19938   4.091   5.174   3.283 -0.1665 -0.1570 -0.0279
 1735W        W19939  14.650  16.957   2.392 -0.2835  0.0936  0.0462
 1736W        W19940   1.214  15.180  14.349 -0.0861  0.0885  0.0087
 1737W        W19941  16.670   2.721  13.476 -0.3345 -0.2955 -0.2039
 1738W        W19942   3.234   1.960   2.880  0.0268 -0.0310 -0.1818
 1739W        W19943  15.746  11.989   2.138 -0.0806 -0.3604 -0.1210
 1740W        W19944   9.097  10.756   4.340 -0.0242  0.2619 -0.1840
 1741W        W19945  17.993  17.580   3.112 -0.0239 -0.0557  0.0356
 1742W        W19946   3.755   3.919   2.005 -0.4174  0.0441  0.0938
 1743W        W19947   2.502   2.302  11.181 -0.0056 -0.1035 -0.2251
 1744W        W19948  14.251   1.002  10.404  0.1835  0.0184  0.0374
 1745W        W19949  15.326   5.130  11.895 -0.1063  0.2729 -0.0729
 1746W        W19950   5.230   8.697  14.487  0.0305 -0.1928  0.1333
 1747W        W19951  15.389  12.286   2.426  0.2795 -0.5793 -0.0270
 1748W        W19952  17.287  17.886  11.465 -0.1204 -0.0910  0.1351
 1749W        W19953   4.176   7.925   3.095 -0.0705  0.0760 -0.2084
 1750W        W19954   4.985   4.860   3.340 -0.0530  0.0120 -0.1515
 1751W        W19955   1.571  12.085  13.231 -0.1809 -0.0871  0.0829
 1752W        W19956   7.298   5.461  12.373 -0.1022 -0.0426  0.1974
 1753W        W19957   7.511   7.369   2.581  0.2069 -0.3684  0.1690
 1754W        W19958   2.161   3.444   5.661  0.0916  0.0825 -0.0383
 1755W        W19959  13.473  10.529   4.460  0.1633  0.1891  0.1997
 1756W        W19960  14.170   6.521   3.832  0.1197  0.2125 -0.1168
 1757W        W19961   5.997  17.820  16.061  0.4065 -0.1275  0.0160
 1758W        W19962  11.937  11.576   0.672 -0.0222 -0.4581  0.3352
 1759W        W19963   0.098  12.154   3.258 -0.2340 -0.0027  0.1534
 1760W        W19964   2.216  12.195  13.172 -0.1204 -0.2715 -0.0632
 1761W        W19965  11.741   5.716   1.968 -0.3694 -0.2922  0.1276
 1762W        W19966   5.949   3.532   2.231  0.1233  0.1455  0.0197
 1763W        W19967  13.127   0.351   3.070  0.1884  0.1883 -0.1317
 1764W        W19968   4.643  11.261  14.559  0.3437 -0.1752  0.4628
 1765W        W19969  14.294   8.219   2.833  0.2173 -0.0915 -0.1714
 1766W        W19970  12.416  15.121  12.270 -0.0073  0.0533  0.3158
 1767W        W19971   8.102  15.627  13.899 -0.1382  0.0777  0.0561
 1768W        W19972  15.765   6.269  13.383  0.1701  0.1144  0.1879
 1769W        W19973   1.508   6.220  11.623 -0.0616  0.4161  0.0189
 1770W        W19974  17.735  11.091   2.538  0.0884 -0.1088  0.2847
 1771W        W19975  13.894  14.967   0.539  0.0357  0.2270  0.2366
 1772W        W19976   2.129   0.739   2.813 -0.0010  0.2062  0.1858
 1773W        W19977   8.126   5.436  14.883 -0.1857  0.3021  0.1582
 1774W        W19978   1.551   0.223  15.218  0.5524  0.0506 -0.1270
 1775W        W19979  12.461   6.271  12.351 -0.0741 -0.0831  0.0807
 1776W        W19980   1.591   2.360  15.100  0.0283 -0.0480 -0.1233
 1777W        W19981   6.448  10.100  13.439 -0.0541 -0.1100 -0.2168
 1778W        W19982   6.505   4.889  12.468 -0.0358 -0.0628 -0.1374
 1779W        W19983   3.422   0.046   4.681 -0.1443 -0.1477 -0.1660
 1780W        W19984   1.800  16.469  13.834 -0.0053 -0.0187 -0.0816
 1781W        W19985   5.742   8.539  12.420  0.0103  0.1558 -0.1595
 1782W        W19986  18.008   2.562   0.975  0.0322 -0.1418 -0.1824
 1783W        W19987  13.553   0.639  14.002  0.1095 -0.1419 -0.2223
 1784W        W19988   9.516  17.752   4.108 -0.1390  0.2698  0.0432
 1785W        W19989   6.041   8.497   4.374 -0.2479  0.2004  0.3030
 1786W        W19990  10.864  12.027   2.657  0.0568 -0.2125 -0.0519
 1787W        W19991   6.043   1.618  13.538 -0.1414  0.0905 -0.1551
 1788W        W19992  15.057   0.679  14.884 -0.0381 -0.2563 -0.0549
 1789W        W19993  11.330   1.307  12.498  0.3067  0.0685 -0.2555
 1790W        W19994   9.143   9.287   5.289 -0.0492  0.1750  0.2108
 1791W        W19995   9.227   0.749   2.107  0.0028 -0.0911 -0.3070
 1792W        W19996   3.894  13.135  13.992  0.2479  0.1198  0.0653
 1793W        W19997   0.113  11.558  15.713 -0.1227 -0.1341  0.1063
 1794W        W19998   9.480   8.414  12.450  0.1924  0.4028 -0.3192
 1795W        W19999   9.351  10.889   3.241  0.0229  0.0806  0.0111
 1796W        W20000  12.104   4.038  15.043  0.2054  0.0819  0.2896
 1797W        W20001  10.681  17.967   1.721  0.3464  0.1648  0.2257
 1798W        W20002  12.242  12.867  12.221  0.0207  0.0924  0.0116
 1799W        W20003   3.283  15.820   0.999  0.1014 -0.0376  0.2224
 1800W        W20004   6.795  11.703   4.116 -0.2690  0.2921  0.0681
 1801W        W20005  17.775   1.732  14.906 -0.0159  0.0031 -0.2258
 1802W        W20006  16.771  17.450   2.020 -0.1500  0.3591  0.3155
 1803W        W20007  17.056  14.964   3.693 -0.2619  0.0516 -0.0200
 1804W        W20008   2.208  13.467   0.678 -0.0067 -0.0548 -0.0692
 1805W        W20009  15.528  18.033  11.331 -0.3628  0.0098 -0.1387
 1806W        W20010   7.834  11.106   5.463  0.2752 -0.1590 -0.0677
 1807W        W20011   2.218  10.916  12.644  0.1123  0.0305  0.0495
 1808W        W20012  15.605   0.330  14.232  0.0757 -0.4179 -0.0068
 1809W        W20013   8.409  14.003   5.870 -0.2336  0.0652  0.0226
 1810W        W20014   4.292  12.624   1.667  0.0779 -0.0399 -0.5005
 1811W        W20015  14.322  17.946  15.883  0.2538  0.1277  0.0154
 1812W        W20016   6.074  10.315  16.172 -0.3216  0.2821 -0.1412
 1813W        W20017  14.530   6.771  12.489  0.1145  0.0562 -0.0331
 1814W        W20018  16.770   9.463  13.417  0.0572 -0.0364  0.0571
 1815W        W20019   3.539   0.806  14.312  0.1389  0.0795 -0.2457
 1816W        W20020   0.578   9.448   4.975 -0.1459  0.2527 -0.2599
 1817W        W20021   5.768   3.478   2.735  0.0168 -0.2502 -0.0327
 1818W        W20022  16.736  15.448  13.649 -0.2611  0.0459  0.0723
 1819W        W20023   4.817   1.689  11.432 -0.3936 -0.1276  0.0232
 1820W        W20024  10.698  14.388   3.981  0.1323  0.1981  0.1096
 1821W        W20025  10.013  16.414   1.563  0.0026  0.0884  0.1210
 1822W        W20026   6.278  16.189   5.570 -0.2082  0.0993 -0.1293
 1823W        W20027   5.949   6.295  12.416  0.1087 -0.0300 -0.1066
 1824W        W20028  11.105   5.167  15.415 -0.1320 -0.4025  0.0844
 1825W        W20029   6.283   9.759  12.243  0.0013  0.0543 -0.1316
 1826W        W20030  11.919  14.287  11.049 -0.1809  0.2101 -0.0716
 1827W        W20031   9.969  15.490   1.564 -0.1219  0.1036 -0.0315
 1828W        W20032  16.511  17.072  11.596  0.0412 -0.1016  0.3527
 1829W        W20033  16.297  11.445   5.339 -0.2526  0.1112  0.2010
 1830W        W20034  11.126  12.239  12.024  0.0874  0.0792 -0.0152
 1831W        W20035   7.212  15.006   3.727 -0.0516  0.0468 -0.1279
 1832W        W20036  13.222  11.196  13.100  0.2050  0.3273 -0.0463
 1833W        W20037  11.734   5.248   1.693  0.1298 -0.1039 -0.0851
 1834W        W20038   1.012   8.588  12.554  0.1794  0.0989 -0.2286
 1835W        W20039  16.895   3.955  10.371  0.1126  0.0268 -0.1817
 1836W        W20040   8.185  13.879   2.567  0.0060  0.0944  0.1024
 1837W        W20041   4.144  15.193   2.572 -0.0845 -0.0106  0.1663
 1838W        W20042  12.754   0.069   4.839  0.0473  0.1042  0.0701
 1839W        W20043  10.729   3.097   3.444 -0.1209  0.2431  0.1583
 1840W        W20044   3.650  16.084   1.155 -0.0190  0.0759 -0.1293
 1841W        W20045   0.989  10.314  15.717  0.4212 -0.2258 -0.2328
 1842W        W20046   6.225  15.838  13.829  0.0555  0.0154 -0.2126
 1843W        W20047  15.420  13.753  13.240 -0.1641 -0.0842  0.0111
 1844W        W20048  12.408   8.642   4.333  0.1573 -0.1576  0.1744
 1845W        W20049  10.865   1.626  12.518  0.0572 -0.1949 -0.0283
 1846W        W20050  17.246   4.504   3.513 -0.0703  0.1630 -0.3330
 1847W        W20051  10.837  15.852   4.507  0.1715  0.2194  0.0992
 1848W        W20052   8.315   4.842   1.129  0.2944  0.0128  0.0190
 1849W        W20053   1.146  10.081  13.156 -0.1869 -0.1191  0.3629
 1850W        W20054  10.550   9.140   3.775  0.3212  0.1362 -0.0557
 1851W        W20055   7.327  15.242  11.281 -0.1072  0.2771 -0.0860
 1852W        W20056  15.238  10.238   4.576 -0.2216 -0.1384  0.2022
 1853W        W20057   1.528   9.373   2.992 -0.0418  0.0202 -0.0023
 1854W        W20058   2.979  10.419   3.130  0.2449  0.0801 -0.0868
 1855W        W20059   4.146  13.192   4.606 -0.0227 -0.0553  0.0501
 1856W        W20060  15.754   7.464  12.366  0.1358  0.1254 -0.0922
 1857W        W20061   7.616   2.756  16.103  0.0336  0.2496 -0.0295
 1858W        W20062   8.572   3.699  14.914 -0.0515 -0.1119 -0.0025
 1859W        W20063  17.196  10.446   0.312 -0.0411 -0.0596 -0.0517
 1860W        W20064   6.107   5.795   3.307  0.0839 -0.0441  0.0470
 1861W        W20065   2.074  11.373   2.651 -0.0464 -0.1574 -0.2362
 1862W        W20066  15.046   0.278  12.268 -0.0600  0.1544 -0.0527
 1863W        W20067   6.506   2.302  13.870  0.0590 -0.0271 -0.1990
 1864W        W20068  10.949  10.180  14.962  0.2668  0.2801 -0.1432
 1865W        W20069   9.538  10.641   0.881 -0.0092  0.3750 -0.1548
 1866W        W20070   9.026   2.313   4.369  0.0387  0.0884  0.0425
 1867W        W20071   2.590  16.923  15.711  0.1985 -0.0773  0.2170
 1868W        W20072   6.032   5.390   2.440 -0.3442 -0.2358 -0.1593
 1869W        W20073   7.062   9.084  13.991  0.2406 -0.1093  0.2085
 1870W        W20074   7.280   3.242   1.342 -0.3096 -0.1790  0.0740
 1871W        W20075  14.729  16.332   4.277  0.0423  0.0086  0.0089
 1872W        W20076  11.830   1.102  15.309  0.0615 -0.1606 -0.2677
 1873W        W20077  16.408  10.715  13.810  0.4195  0.0283 -0.2414
 1874W        W20078  14.369  14.976   1.931 -0.1576 -0.0629  0.1508
 1875W        W20079  10.277   8.684  15.620  0.0222  0.2052  0.0584
 1876W        W20080  11.034   7.162  12.010  0.1228  0.0092 -0.0026
 1877W        W20081   7.378  17.747  15.658  0.0130  0.0221 -0.1292
 1878W        W20082  14.540   9.743  13.582 -0.1884 -0.0943 -0.0622
 1879W        W20083  10.236   4.173  11.067  0.1081 -0.0812 -0.0339
 1880W        W20084   6.022  13.538  11.819  0.5051 -0.2914 -0.0104
 1881W        W20085   2.835  14.007   1.832  0.0068  0.3156  0.1122
 1882W        W20086  15.443   5.920   0.301  0.0507 -0.0937 -0.0826
 1883W        W20087   6.695   3.815  15.574 -0.0593 -0.1813 -0.2738
 1884W        W20088   4.493   7.971   3.608 -0.2255  0.2985  0.0760
 1885W        W20089   3.375   4.856  12.136 -0.0267  0.0005  0.0319
 1886W        W20090   1.858  13.950   2.467 -0.0886 -0.1699 -0.2443
 1887W        W20091  17.868   4.210   1.317  0.1042 -0.3070 -0.1516
 1888W        W20092   1.721   7.835  11.411  0.1420  0.1345  0.0287
 1889W        W20093  11.040   9.516   2.565  0.1761  0.0855  0.4964
 1890W        W20094   2.646  15.779   1.249  0.0483 -0.0862 -0.0883
 1891W        W20095   6.636  16.515  10.880  0.2772 -0.0534  0.0555
 1892W        W20096  10.365   0.511   0.257 -0.2049  0.1806  0.0256
 1893W        W20097  11.856   2.156   0.514  0.4443  0.0892 -0.0850
 1894W        W20098   2.967  16.945  14.100 -0.2484  0.0519 -0.2139
 1895W        W20099  17.618   2.770  15.997  0.0285  0.0717  0.0543
 1896W        W20100   7.260   3.159  10.566  0.0301 -0.0680  0.1389
 1897W        W20101  12.130   2.742  15.540  0.0998  0.0473  0.1574
 1898W        W20102   2.062   0.524   1.725  0.3666 -0.2676 -0.2785
 1899W        W20103  14.608  13.069  12.808 -0.0384  0.0838  0.0741
 1900W        W20104   2.759  11.668   1.690  0.1208  0.1250 -0.1047
 1901W        W20105  15.833   1.729  16.052  0.1309  0.0381 -0.1375
 1902W        W20106  11.095   6.949   3.902  0.0442 -0.0497  0.0360
 1903W        W20107   0.622  10.011   3.302 -0.1981  0.0189  0.1477
 1904W        W20108   9.975  17.491  12.686 -0.1147  0.1991 -0.0434
 1905W        W20109  14.935   2.191  14.932  0.2380 -0.1977  0.0740
 1906W        W20110  13.860  17.679   2.352 -0.1144 -0.1971  0.2964
 1907W        W20111  17.188   6.229   2.000  0.1626 -0.0130 -0.0801
 1908W        W20112   9.037  11.980  14.407  0.0424  0.1120  0.1109
 1909W        W20113  15.970   4.873   3.350 -0.2795  0.0861 -0.3157
 1910W        W20114   5.635   2.600   2.505  0.1334 -0.3750 -0.3539
 1911W        W20115  17.916  11.313   3.711  0.1022 -0.2283  0.2305
 1912W        W20116   5.102  14.687  13.653  0.0240  0.1282 -0.1909
 1913W        W20117  16.755   9.101   4.145 -0.3657  0.0896  0.1544
 1914W        W20118  17.266   7.949   1.030  0.1364  0.0135 -0.0024
 1915W        W20119   1.355  17.910  13.550 -0.0612 -0.1674 -0.0066
 1916W        W20120   4.499  11.664   3.852  0.1079  0.0616 -0.1952
 1917W        W20121  12.716   2.458  15.492 -0.1040  0.1319  0.1080
 1918W        W20122  15.643   5.472   3.059  0.2409  0.1841  0.0853
 1919W        W20123   1.271  13.794  13.605 -0.0862  0.3029 -0.3977
 1920W        W20124   9.840  11.593   3.279 -0.1885  0.0253 -0.1912
 1921W        W20125   0.457   2.385  11.202  0.2282 -0.2569 -0.3846
 1922W        W20126   9.354  15.717   0.620  0.2415 -0.2275  0.0327
 1923W        W20127   9.238   1.696   2.323 -0.2985  0.0371 -0.1003
 1924W        W20128   9.433   6.810   3.372 -0.0131  0.0334 -0.0840
 1925W        W20129  15.686  10.949  15.298 -0.1514 -0.2699  0.2471
 1926W        W20130   2.546  16.650   1.453  0.1502 -0.0518  0.0273
 1927W        W20131   5.865   0.585   1.659  0.1306 -0.1554 -0.5061
 1928W        W20132   4.750  14.100  15.904 -0.0609 -0.0736 -0.1551
 1929W        W20133  13.338  11.598   4.289 -0.0601 -0.0042  0.2689
 1930W        W20134  12.791   0.027  13.890  0.1463  0.1087  0.2498
 1931W        W20135   9.642  17.558  13.641  0.1244  0.5028  0.0874
 1932W        W20136   4.441   0.556   1.392 -0.3685  0.2588 -0.1731
 1933W        W20137   7.729   1.903   3.064  0.0733 -0.1402 -0.1690
 1934W        W20138   8.526  12.006   0.758 -0.0630 -0.1607 -0.2864
 1935W        W20139   4.227   6.810  13.812 -0.2546  0.4902  0.2300
 1936W        W20140   8.946   7.282   5.448 -0.1047  0.1208 -0.3040
 1937W        W20141  12.758   6.439   0.998  0.1940  0.0521  0.2925
 1938W        W20142  13.225  11.592   1.510 -0.0271 -0.0761  0.0485
 1939W        W20143  17.868   6.099   2.609 -0.1208  0.4043 -0.0692
 1940W        W20144   3.636   7.980   2.309  0.2183  0.1683  0.1800
 1941W        W20145  14.697   9.005   2.012 -0.0423 -0.0541  0.0569
 1942W        W20146   8.355  14.207   3.701  0.2033 -0.0148 -0.4947
 1943W        W20147   5.895   1.642  13.012  0.3563  0.4100  0.1971
 1944W        W20148   7.506   8.087   0.360 -0.0042 -0.1752 -0.2801
 1945W        W20149   1.486   4.887   4.776 -0.0464 -0.1563 -0.0036
 1946W        W20150  16.806  13.210  14.902  0.0815 -0.1419 -0.3544
 1947W        W20151  11.198  15.461   1.182 -0.0940 -0.0137 -0.2479
 1948W        W20152   4.603  12.871   3.503  0.0672  0.0937 -0.1353
 1949W        W20153   3.588  17.119   4.061 -0.0220 -0.1444 -0.2396
 1950W        W20154   4.754  12.670   0.959  0.0904 -0.1144 -0.1193
 1951W        W20155  14.276  17.318   2.305  0.0782 -0.0719 -0.0535
 1952W        W20156  12.612   5.214  14.419 -0.0781  0.3394  0.3026
 1953W        W20157   0.693   4.074   0.039  0.1196 -0.2584 -0.1257
 1954W        W20158  10.626   6.802   5.822  0.1496 -0.1916 -0.0145
 1955W        W20159   9.756  12.409  14.244 -0.0760 -0.4079 -0.2017
 1956W        W20160  13.407  14.269   3.240  0.1490 -0.2193 -0.0366
 1957W        W20161  14.085   1.826   4.490 -0.1812  0.0353  0.1413
 1958W        W20162  16.677  11.972   2.138 -0.2282  0.2098  0.1092
 1959W        W20163  17.914   5.254   2.201 -0.0769  0.1208 -0.0156
 1960W        W20164   0.710  12.063   2.026 -0.3186  0.0271 -0.2552
 1961W        W20165   5.165  16.463  14.376 -0.1303  0.1002  0.1110
 1962W        W20166   8.534   5.170  15.047 -0.0732  0.0208  0.2270
 1963W        W20167   4.544  11.646  12.203  0.4026 -0.0808  0.1142
 1964W        W20168  14.924   8.555  15.004 -0.0129  0.4097 -0.0067
 1965W        W20169   3.204  15.601  13.290 -0.0047 -0.3299 -0.1172
 1966W        W20170  10.622  12.956   4.173 -0.0488 -0.0504 -0.2179
 1967W        W20171  14.163  16.755   2.940  0.2712  0.0216 -0.2702
 1968W        W20172   1.454  15.573   2.997 -0.1070  0.2525 -0.0919
 1969W        W20173  10.399  11.042  12.417 -0.0044  0.2803 -0.2238
 1970W        W20174  10.852  10.641   5.295 -0.1723  0.0518  0.3351
 1971W        W20175  10.903  14.833   4.127 -0.2005  0.1671  0.1020
 1972W        W20176  15.552  11.597  13.313  0.0242 -0.0911 -0.0445
 1973W        W20177  13.899  10.808  13.400  0.0512  0.2477 -0.1269
 1974W        W20178   2.748  15.304  15.895  0.1651 -0.1706  0.2116
 1975W        W20179  12.492  13.580   2.819  0.1588 -0.2254  0.0030
 1976W        W20180  12.307  15.757   1.501  0.1053  0.2766  0.0700
 1977W        W20181  12.155   2.726   4.298  0.0974 -0.2706 -0.0512
 1978W        W20182   0.150  11.747   1.826  0.2248 -0.1845 -0.0620
 1979W        W20183   3.448   2.335  11.457 -0.1942 -0.1224  0.3584
 1980W        W20184   6.187   8.107   2.862  0.0263  0.0575  0.1766
 1981W        W20185  10.857  17.663  14.317 -0.2044  0.1438 -0.0412
 1982W        W20186   7.625  10.327   4.541 -0.0102 -0.3244 -0.1126
 1983W        W20187  15.383   4.280  14.550 -0.0005  0.2306  0.0175
 1984W        W20188  17.641  12.623  11.712  0.1527 -0.2024 -0.1168
 1985W        W20189  12.563   9.124   2.646 -0.0155  0.0208 -0.2390
 1986W        W20190   0.609   2.356  12.721  0.0012  0.2162  0.2330
 1987W        W20191  10.596  16.189   1.867  0.0780  0.2696 -0.2082
 1988W        W20192  17.616   1.280   2.774 -0.3144  0.1179 -0.0142
 1989W        W20193   4.667   7.243  12.659  0.0082  0.1015 -0.0480
 1990W        W20194  13.941  12.890   3.821 -0.1507 -0.0777 -0.0380
 1991W        W20195   7.503   0.206   3.983  0.1432  0.0742 -0.1586
 1992W        W20196   9.028   1.010  13.503 -0.1108  0.3891  0.0437
 1993W        W20197  15.748  10.557   5.490  0.0446 -0.2538  0.0865
 1994W        W20198   2.449  15.533   4.375 -0.0357  0.3116 -0.0330
 1995W        W20199  11.199   9.528  13.418 -0.1033 -0.3270  0.0297
 1996W        W20200  10.479  12.695   2.231  0.0316  0.2008  0.0408
 1997W        W20201  13.672   8.457  12.912 -0.3115 -0.1728  0.2530
 1998W        W20202  16.823   3.386  11.304 -0.0756 -0.0939 -0.0755
 1999W        W20203  16.264   3.878  12.317 -0.3537 -0.2835  0.1384
 2000W        W20204   1.330   6.787  13.806 -0.4567  0.0237 -0.0843
 2001W        W20205   0.753  14.264   3.610 -0.0372 -0.5791 -0.0747
 2002W        W20206  12.259  13.941  12.868 -0.2080 -0.3312 -0.0247
 2003W        W20207   4.930  15.484  13.154  0.0559 -0.3754 -0.2928
 2004W        W20208  15.782   6.699   4.087  0.0531  0.1193 -0.0689
 2005W        W20209  13.229   1.957  12.874  0.3844  0.3700 -0.0604
 2006W        W20210   4.592  11.011   5.725  0.2541 -0.1523 -0.0658
 2007W        W20211   5.038   4.230  14.079  0.0347 -0.1205 -0.0295
 2008W        W20212   8.509  13.258   1.342 -0.1532 -0.1056  0.3303
 2009W        W20213   8.306   2.745   3.619 -0.2864 -0.0047 -0.3872
 2010W        W20214   5.317   3.859   5.721  0.0038  0.1165 -0.1075
 2011W        W20215   9.889   3.751  12.300 -0.0801 -0.1947 -0.1514
 2012W        W20216   6.778   6.980   3.020  0.0797 -0.3071 -0.0008
 2013W        W20217  10.117   0.833  14.677 -0.1910 -0.2518 -0.2332
 2014W        W20218  11.469  12.690  12.848  0.2180 -0.0334 -0.1008
 2015W        W20219  13.262  16.415  15.891  0.2861 -0.1134  0.0368
 2016W        W20220   4.906  10.534  13.315 -0.0455  0.1129 -0.1164
 2017W        W20221  17.383  15.465  11.902  0.1027 -0.0056  0.0940
 2018W        W20222   1.619   4.465  12.550  0.2017  0.2838 -0.1138
 2019W        W20223  12.929  15.471   3.293  0.1639  0.1058  0.1758
 2020W        W20224  10.399  12.626   1.059  0.1523  0.0988 -0.0949
 2021W        W20225   8.590   1.041  13.922  0.2290  0.0925  0.1299
 2022W        W20226   3.839   9.112   0.109  0.1935 -0.1700  0.0511
 2023W        W20227  12.804  17.026  11.387  0.0647 -0.2371 -0.0801
 2024W        W20228   3.415   9.024   4.987 -0.2606 -0.0081 -0.0651
 2025W        W20229   9.619  11.200   5.040  0.4823  0.1157 -0.3662
 2026W        W20230  16.744  11.447  11.460  0.0072  0.0544 -0.0159
 2027W        W20231  16.968   1.827   0.802 -0.0245  0.0696 -0.0179
 2028W        W20232  15.383  15.821   4.180 -0.2642  0.1323  0.0987
 2029W        W20233   9.580  17.442   2.762 -0.2148 -0.0128 -0.0202
 2030W        W20234   5.218  15.966   1.056 -0.0682 -0.0346  0.1566
 2031W        W20235   3.086   2.197  14.994  0.2979 -0.0420 -0.1000
 2032W        W20236  12.649  15.286   3.672 -0.2355 -0.0025 -0.3042
 2033W        W20237  16.252   5.796  14.574  0.0095 -0.3017 -0.1434
 2034W        W20238  17.064  13.615   2.257  0.0324 -0.0323 -0.1398
 2035W        W20239   3.912   2.927  12.167 -0.0622  0.1649 -0.0208
 2036W        W20240  15.619   3.187  15.953  0.0072 -0.2318  0.1966
 2037W        W20241  10.445   6.221  13.432  0.2588 -0.0923  0.1310
 2038W        W20242  12.260   5.162  15.333  0.1806  0.0430 -0.0305
 2039W        W20243   8.337  12.062  12.417  0.4055 -0.0206  0.3929
 2040W        W20244  16.646   8.831  14.832 -0.3632 -0.3010 -0.0752
 2041W        W20245  17.309   4.101  13.401  0.2588  0.0641  0.1420
 2042W        W20246   5.034  17.347  11.425 -0.2309 -0.0082  0.0274
 2043W        W20247  15.043   8.198  11.050  0.0012  0.1596  0.0431
 2044W        W20248  17.335   1.481  15.243  0.0974 -0.0289 -0.0047
 2045W        W20249   5.739   0.447  13.080 -0.2339  0.4151  0.0711
 2046W        W20250  16.970  11.078   2.464  0.1635 -0.0686  0.0185
 2047W        W20251  16.544   5.745  11.895  0.2442  0.1467 -0.2970
 2048W        W20252   3.304  17.252  13.399  0.3427 -0.0001  0.1231
 2049W        W20253   7.209   5.696   0.019  0.0742  0.0619  0.1050
 2050W        W20254   1.295   6.429  14.323 -0.2681  0.1024 -0.2316
 2051W        W20255   9.169   4.498   0.907  0.0025  0.2279 -0.0243
 2052W        W20256  14.035   5.698   0.080 -0.0405  0.1059 -0.0426
 2053W        W20257   0.060   9.053  14.647  0.0560 -0.0717 -0.0867
 2054W        W20258   8.133   6.914   5.231 -0.3542 -0.3365 -0.1352
 2055W        W20259   2.117   3.015   2.239 -0.0911 -0.0356  0.0368
 2056W        W20260  16.697   6.299  14.658 -0.3591  0.0466 -0.2067
 2057W        W20261   4.607  17.827  13.650 -0.0820 -0.1162 -0.1342
 2058W        W20262  11.305   3.112  14.299 -0.2278  0.1363  0.2955
 2059W        W20263  17.918  16.533  15.106  0.0094  0.2251  0.1654
 2060W        W20264  14.637   9.181   0.298 -0.0788  0.1879  0.2476
 2061W        W20265  13.227  14.615  15.892 -0.2725  0.1401  0.3749
 2062W        W20266  15.209  16.612  11.840 -0.1518  0.1387 -0.1903
 2063W        W20267  13.714   3.854  12.522 -0.3327 -0.0137  0.3241
 2064W        W20268  11.725   5.614  14.651  0.0815  0.3655  0.1039
 2065W        W20269  16.834  16.390  11.946  0.1490  0.0259 -0.1928
 2066W        W20270   6.606  16.040   0.306 -0.2172 -0.0908  0.1717
 2067W        W20271   2.352   0.231  12.643 -0.1038  0.0447  0.0609
 2068W        W20272   4.254   7.022  14.684  0.2700  0.0487  0.0377
 2069W        W20273  17.587  13.730   1.736  0.0908  0.1181 -0.1110
 2070W        W20274  12.906  13.354   1.035 -0.0499 -0.3119  0.0363
 2071W        W20275   7.389   2.522  13.140 -0.0599  0.2537 -0.1441
 2072W        W20276  12.832  15.138  11.926 -0.0912 -0.3470 -0.1144
 2073W        W20277  12.266   8.842   4.844 -0.2500  0.0404 -0.2921
 2074W        W20278  13.205  16.555  11.575 -0.1348  0.0099  0.3347
 2075W        W20279   2.579   3.477  14.794  0.0850 -0.0319  0.0217
 2076W        W20280   7.797  14.041  13.503 -0.1451 -0.2078  0.0007
 2077W        W20281  12.550  13.228  16.164  0.0944 -0.1082 -0.2797
 2078W        W20282   8.000   9.836   2.594  0.0389  0.2249  0.2057
 2079W        W20283  11.669  11.564   3.853  0.2026 -0.1200 -0.1740
 2080W        W20284  14.204  13.006   0.743 -0.2087  0.0655 -0.0379
 2081W        W20285   8.881  12.337   1.729  0.1292 -0.4831  0.1268
 2082W        W20286  11.060   5.965   0.497  0.1585  0.0992 -0.1158
 2083W        W20287   1.480  16.640   1.165 -0.1468  0.0740 -0.0095
 2084W        W20288  10.966  14.212  13.475 -0.0991 -0.1507 -0.1861
 2085W        W20289   9.563   2.048   1.454  0.3793  0.0053 -0.0027
 2086W        W20290   2.479  14.062   4.606  0.1093  0.2485  0.0562
 2087W        W20291   3.238  12.370   2.974 -0.0291 -0.0145  0.0470
 2088W        W20292  12.746  17.540  14.967 -0.0055 -0.0405  0.0414
 2089W        W20293  14.685   8.823   0.741  0.2063  0.0531  0.3914
 2090W        W20294   5.195  17.646  12.270  0.3665  0.0022  0.1143
 2091W        W20295   4.933   1.141  13.221  0.0806  0.1794  0.1226
 2092W        W20296  16.261  11.537  11.403 -0.0029 -0.1599 -0.0933
 2093W        W20297  14.276  17.781  15.419  0.0717 -0.1087 -0.0852
 2094W        W20298  14.501  10.311   0.732  0.4717 -0.0913 -0.1324
 2095W        W20299   2.008   7.425   2.713  0.0320  0.0258 -0.0567
 2096W        W20300   2.508   1.344  13.556 -0.1522  0.3041 -0.0607
 2097W        W20301  17.130  11.439  14.904 -0.0255 -0.0298  0.1516
 2098W        W20302   6.424   5.724   2.017 -0.0281  0.2944 -0.0702
 2099W        W20303  17.623  10.325   0.636  0.0345  0.0879  0.0569
 2100W        W20304   6.481   8.429  13.167  0.2664 -0.0627 -0.1850
 2101W        W20305  16.133  13.333   2.553 -0.3707  0.0781  0.4448
 2102W        W20306  17.615   8.535  15.217  0.0483 -0.0813  0.2652
 2103W        W20307   7.250  11.305   2.951  0.2135  0.0129 -0.3286
 2104W        W20308  10.409   9.082   2.667  0.0701 -0.1506 -0.0404
 2105W        W20309   3.366   7.635   3.036  0.2096 -0.3500  0.3057
 2106W        W20310   6.439  14.961   2.182 -0.1407 -0.0070  0.1062
 2107W        W20311   6.265  12.402  15.589 -0.0034  0.0064 -0.3965
 2108W        W20312   3.017   5.506  14.445  0.2248  0.0095 -0.1049
 2109W        W20313  10.138  12.864   3.291  0.0304  0.2905 -0.0805
 2110W        W20314   2.147   1.614   3.445 -0.4991 -0.1776 -0.3474
 2111W        W20315  12.177   1.224  15.665  0.1456 -0.0930 -0.0302
 2112W        W20316  16.152   1.345   4.810 -0.0050  0.0901  0.1388
 2113W        W20317  13.013  10.530   2.895 -0.0720 -0.1446 -0.0959
 2114W        W20318   6.432   5.360  14.783 -0.0755 -0.0082  0.1077
 2115W        W20319   7.212   0.877  14.920  0.1706  0.2319 -0.0603
 2116W        W20320   2.346   0.118   4.130  0.1407 -0.1249 -0.0104
 2117W        W20321  17.941  11.763  11.063 -0.0454 -0.1334 -0.2112
 2118W        W20322  11.402  16.541  15.367  0.1390  0.2557  0.0642
 2119W        W20323   0.699  10.591   4.382  0.0551 -0.2158 -0.0175
 2120W        W20324  13.870  17.529   4.458 -0.0700 -0.1642  0.1315
 2121W        W20325  16.561   0.133   0.127  0.2755  0.0054 -0.0751
 2122W        W20326  15.806   8.465  15.591 -0.2015  0.0353 -0.0170
 2123W        W20327  10.719  11.089   2.224 -0.1551  0.1295  0.0321
 2124W        W20328   5.090  10.341  14.211 -0.1376 -0.0141 -0.1574
 2125W        W20329  15.154  10.922  13.881  0.0438  0.3634  0.4324
 2126W        W20330  15.324  16.252   2.971 -0.2644 -0.0510  0.0456
 2127W        W20331   3.913   4.879   4.572  0.1894 -0.0883 -0.1006
 2128W        W20332   4.707   3.250  14.543  0.0180 -0.0818  0.0504
 2129W        W20333   9.688  11.441  13.344 -0.2088 -0.3111 -0.0533
 2130W        W20334   0.702  11.147   0.757 -0.0079  0.2380  0.0512
 2131W        W20335  10.900   0.914  15.676  0.1163  0.0935  0.0092
 2132W        W20336  16.731  13.466  11.292 -0.3234 -0.0503  0.1530
 2133W        W20337   1.164   3.834   5.535 -0.1782 -0.1132 -0.2176
 2134W        W20338   3.494  12.993  11.858  0.1942 -0.2440 -0.0096
 2135W        W20339  15.318   6.626   2.419 -0.1793  0.1278 -0.0164
 2136W        W20340   0.573  10.356   4.802 -0.1918  0.3467  0.0981
 2137W        W20341   8.526  12.510   3.908  0.1416  0.2128  0.0714
 2138W        W20342   7.776   2.097  13.016 -0.0520 -0.0611 -0.1813
 2139W        W20343   8.943   5.335   2.227 -0.1220  0.1147  0.0710
 2140W        W20344  13.607  12.261   3.238  0.3611  0.2788 -0.1037
 2141W        W20345  13.132  16.870  12.371 -0.2200 -0.1056  0.1741
 2142W        W20346  16.518  14.302   3.823  0.1601 -0.1482 -0.1160
 2143W        W20347   1.413   2.446  12.140  0.0086  0.0859  0.0395
 2144W        W20348   2.265  15.069  15.862 -0.0402 -0.0236 -0.0762
 2145W        W20349  10.598   1.790   1.793 -0.2686 -0.1774 -0.0227
 2146W        W20350  11.367  15.253   2.554 -0.0129  0.1181  0.1633
 2147W        W20351   2.502   5.503   3.667  0.0609  0.0174  0.3784
 2148W        W20352   8.307  10.156  15.008  0.0493 -0.0301 -0.1099
 2149W        W20353  10.207   7.446  13.069 -0.1631 -0.1364  0.2328
 2150W        W20354  12.158   0.526   0.386  0.0561  0.2928  0.2798
 2151W        W20355   1.322  15.381   3.424 -0.2035  0.2319 -0.3989
 2152W        W20356   3.610  10.367  15.242 -0.1559  0.1666 -0.2133
 2153W        W20357   6.365  14.781  12.612  0.0251 -0.0314 -0.1878
 2154W        W20358  10.924  12.173  14.772 -0.0527  0.0300  0.1159
 2155W        W20359   9.297   8.989   4.906  0.0011 -0.2847  0.0548
 2156W        W20360  14.276  17.595   0.092 -0.0779  0.0030  0.0761
 2157W        W20361  10.912   7.431  14.940  0.0285 -0.1857  0.2326
 2158W        W20362  15.528   3.649   5.260  0.0534 -0.0423  0.2788
 2159W        W20363   2.502   1.091   2.852 -0.1132 -0.3291  0.1367
 2160W        W20364   0.457   1.833   3.742  0.1595 -0.1948  0.0442
 2161W        W20365  12.133   2.330   3.292  0.4244  0.2488  0.1373
 2162W        W20366  12.149  11.101   0.746 -0.0867 -0.3211 -0.1360
 2163W        W20367   4.345   8.198  12.136  0.1762  0.2893 -0.2391
 2164W        W20368  16.747  16.383  13.528 -0.1811  0.1762 -0.1836
 2165W        W20369  17.530   5.177   4.060  0.2422 -0.1210  0.0719
 2166W        W20370   5.762  15.131   1.597 -0.2257 -0.0027  0.0627
 2167W        W20371  16.931   5.813   2.371 -0.0312  0.2705 -0.0878
 2168W        W20372   1.921   6.767  13.801 -0.1263 -0.0040 -0.0641
 2169W        W20373  16.648  12.428   3.741 -0.0565  0.0204  0.0245
 2170W        W20374  12.752  17.021   1.021 -0.2162  0.1558 -0.1910
 2171W        W20375  14.594   5.188   5.730 -0.3489  0.0220  0.2217
 2172W        W20376  10.876   2.131  12.890 -0.1854 -0.2083  0.1603
 2173W        W20377   4.639   3.019  15.643  0.3395  0.1038 -0.1067
 2174W        W20378   0.246  15.477  16.110 -0.0427 -0.1663  0.1149
 2175W        W20379  14.154   6.651  16.111 -0.0338  0.5267  0.0956
 2176W        W20380   7.851  12.923  11.829  0.0308 -0.2347  0.3096
 2177W        W20381   6.847   6.847  12.322  0.1751 -0.0534  0.0505
 2178W        W20382   8.749  16.174  15.819  0.0914  0.1677 -0.0694
 2179W        W20383   6.491   4.928   1.353 -0.0115  0.3071  0.1551
 2180W        W20384   2.257   1.571   2.959 -0.0962  0.1045 -0.0322
 2181W        W20385   3.614  10.101   1.839 -0.2014  0.1634 -0.0008
 2182W        W20386  12.757   9.368  14.497 -0.0716 -0.0868 -0.1082
 2183W        W20387   8.076   1.757  11.261  0.1343  0.2463  0.2424
 2184W        W20388   2.966   5.601  11.948  0.0741  0.0320 -0.0644
 2185W        W20389   6.513   9.658   0.764 -0.4128  0.1029  0.3705
 2186W        W20390  11.157   4.899  12.808 -0.0361 -0.0020 -0.0667
 2187W        W20391   5.822   2.489  14.641  0.0709 -0.1012  0.4015
 2188W        W20392   4.872  17.559  15.232 -0.0083  0.1132  0.0296
 2189W        W20393  14.373   4.729   1.230  0.0654  0.1044 -0.0229
 2190W        W20394   2.538   2.972   4.027  0.0950 -0.1707  0.0519
 2191W        W20395   1.418   8.305   0.634 -0.0911 -0.1946  0.0658
 2192W        W20396  15.416  10.174  12.536 -0.0340 -0.0787  0.2497
 2193W        W20397   1.339   5.866  10.883 -0.1311  0.0622  0.1462
 2194W        W20398  14.194   8.446  14.185 -0.2926 -0.0424  0.3822
 2195W        W20399  13.357  10.252  12.046  0.0221  0.1705 -0.3504
 2196W        W20400   6.394   8.391   3.985 -0.3217 -0.0355 -0.2400
 2197W        W20401  15.772  16.582   4.333 -0.1640 -0.2718  0.0540
 2198W        W20402   0.278   0.709   0.388 -0.3156  0.0183 -0.0255
 2199W        W20403  13.944   8.152  15.020 -0.0258  0.0554  0.0859
 2200W        W20404  11.464   3.154   4.792  0.1967  0.1200 -0.0516
 2201W        W20405   1.031   6.104  15.206  0.1221  0.0635  0.1483
 2202W        W20406   7.200  15.270   1.388  0.0593 -0.1168  0.2280
 2203W        W20407   3.289   1.860  11.349 -0.0035  0.0420  0.2187
 2204W        W20408  10.744   2.194  11.331  0.2577  0.1240 -0.2241
 2205W        W20409  15.377  13.740   3.758 -0.1802  0.0973 -0.1371
 2206W        W20410   0.324   3.690   4.048  0.0043  0.0160  0.0298
 2207W        W20411   0.279   2.884  12.815 -0.0201 -0.2134  0.0080
 2208W        W20412   0.921   3.478   4.176 -0.2023  0.2834 -0.2589
 2209W        W20413  14.708  17.396   0.348  0.1605 -0.0251  0.3189
 2210W        W20414  11.050  14.851  14.337  0.0691  0.0766 -0.1464
 2211W        W20415  17.588   6.666  12.666 -0.0898  0.0831  0.1183
 2212W        W20416   4.992  13.550   4.155 -0.0508  0.2206  0.1861
 2213W        W20417  17.452   1.822  13.635  0.2001  0.1285  0.0079
 2214W        W20418  12.980   4.851   2.584 -0.0709 -0.0025 -0.1409
 2215W        W20419   1.313   6.278  15.635  0.0516 -0.1774 -0.0806
 2216W        W20420  16.619   7.858  12.689 -0.1069 -0.3219  0.1690
 2217W        W20421  14.695  15.402  13.007  0.0020 -0.1616  0.0377
 2218W        W20422   5.642   9.593  13.990  0.4054 -0.0318 -0.1399
 2219W        W20423  12.893   2.803   1.091  0.1232 -0.2185 -0.0243
 2220W        W20424   7.159   8.469   4.477  0.0296  0.0682  0.3560
 2221W        W20425  16.388  17.594   1.525  0.0867 -0.0307  0.0748
 2222W        W20426   8.646  18.042   1.690 -0.0083  0.3293  0.1900
 2223W        W20427  14.091   5.688  12.850 -0.1710 -0.3755  0.0352
 2224W        W20428   6.649  16.322  16.020  0.3305  0.2216  0.0764
 2225W        W20429   6.323   5.250   3.865  0.1828  0.0111  0.1090
 2226W        W20430   6.495  17.144   2.085  0.0413 -0.1710 -0.2029
 2227W        W20431   1.954   2.832   0.314  0.0530  0.4063 -0.0754
 2228W        W20432   0.933   4.668  14.103 -0.0975  0.1156  0.0416
 2229W        W20433  11.920  16.298  15.998 -0.0398 -0.1755  0.1034
 2230W        W20434  15.606   7.363   1.935  0.1564 -0.1753 -0.0038
 2231W        W20435   6.044   7.787  15.200 -0.2596 -0.2055  0.2069
 2232W        W20436  17.730  13.512  12.904 -0.1580  0.1500  0.4517
 2233W        W20437   1.217  11.955   0.880 -0.1056  0.2156 -0.2201
 2234W        W20438  16.831   6.878   2.610 -0.0258 -0.2479  0.0861
 2235W        W20439   9.749   5.151  13.948 -0.1252 -0.1156 -0.0188
 2236W        W20440   0.069  11.042   1.466  0.2093  0.2181  0.0100
 2237W        W20441   9.224   3.988  14.925 -0.2507  0.2299  0.1688
 2238W        W20442  10.945  10.416   2.964 -0.0721 -0.1110  0.0633
 2239W        W20443  10.032  10.509  13.427  0.4063 -0.0088 -0.0161
 2240W        W20444  15.846   1.039   0.513 -0.1154 -0.1076  0.1914
 2241W        W20445  17.499   9.294  12.958 -0.2298 -0.3396  0.0814
 2242W        W20446  16.087   0.632  14.540  0.5596 -0.2074  0.2127
 2243W        W20447   3.398   6.797   1.443 -0.0582  0.1776  0.2457
 2244W        W20448  16.709  14.215   2.796  0.2009  0.0599 -0.2050
 2245W        W20449   6.319  14.079  12.079  0.1004 -0.0695  0.0306
 2246W        W20450   0.998   5.540   2.278 -0.0374  0.1007 -0.1590
 2247W        W20451  17.202  14.426  11.424 -0.1283  0.0895 -0.0670
 2248W        W20452   9.707  14.278  11.536  0.3889 -0.1057 -0.0669
 2249W        W20453  11.748   3.660  11.736  0.1101 -0.2749 -0.1955
 2250W        W20454   1.516   2.175   2.237  0.0181 -0.1382 -0.1979
 2251W        W20455   6.333   5.752  12.906  0.1884  0.1571  0.0384
 2252W        W20456   1.967   8.617  12.804 -0.1135 -0.1689  0.0128
 2253W        W20457   9.640   8.988   2.507 -0.1043 -0.3313  0.0487
 2254W        W20458  17.215   7.379  11.177  0.1513 -0.0497  0.1348
 2255W        W20459   4.751  17.802  12.879 -0.1316 -0.2503  0.0875
 2256W        W20460   1.635  14.639  15.944 -0.0687 -0.2398  0.0805
 2257W        W20461   0.437  16.780  13.018  0.2486 -0.1084 -0.0022
 2258W        W20462   9.633   6.711  11.168  0.0970 -0.0246  0.1052
 2259W        W20463  14.610   3.725   0.562 -0.0625 -0.0885 -0.1915
 2260W        W20464   5.207   4.825  13.150  0.1617 -0.0777 -0.1894
 2261W        W20465   7.028   1.409   4.570  0.1046  0.0876 -0.1248
 2262W        W20466   2.997  13.692  11.971  0.1538 -0.2576 -0.0187
 2263W        W20467   5.555   6.939  13.674  0.3549 -0.0248  0.2283
 2264W        W20468  14.290  10.749   0.897  0.4156  0.0797  0.1780
 2265W        W20469   9.134   2.859   4.135  0.1609  0.1064 -0.0164
 2266W        W20470   4.192  17.406   0.968  0.2793  0.0727 -0.0256
 2267W        W20471   9.565  11.461  15.095  0.0927 -0.2779  0.0529
 2268W        W20472   4.540  17.942  11.925 -0.2176 -0.3357  0.2197
 2269W        W20473   1.879   8.439   1.942 -0.2649  0.2668  0.0550
 2270W        W20474  13.524   4.098  12.875  0.1415 -0.2828  0.0658
 2271W        W20475  13.569  17.824  12.485 -0.1686 -0.2145  0.0919
 2272W        W20476   4.241   1.517  16.084 -0.1452  0.1486 -0.2324
 2273W        W20477  11.036   4.772  15.096 -0.1625  0.1061  0.0631
 2274W        W20478   2.953  16.692  11.842 -0.1593  0.3195 -0.0514
 2275W        W20479  13.851   1.857  12.329  0.1338  0.2588  0.2111
 2276W        W20480  13.884  11.762   2.527  0.1007  0.0633 -0.1385
 2277W        W20481   8.308   8.868   2.868 -0.0687  0.2844 -0.0099
 2278W        W20482  14.325   9.345  15.123 -0.2916  0.3096 -0.1701
 2279W        W20483   2.013   2.058   2.278  0.0619 -0.4667 -0.0426
 2280W        W20484   0.983   9.268  14.114  0.0707 -0.1564 -0.0846
 2281W        W20485   5.436  11.745   1.687  0.0125 -0.2957  0.0766
 2282W        W20486  12.132   3.277   4.285 -0.0999 -0.1231 -0.0084
 2283W        W20487  11.089  15.616   2.104 -0.1689  0.2593 -0.0528
 2284W        W20488  17.916   0.844  13.142  0.0796  0.1311  0.2650
 2285W        W20489  14.917  16.511   2.651  0.0894 -0.1287 -0.2399
 2286W        W20490   8.810  11.788  13.539  0.1343  0.1185 -0.1435
 2287W        W20491  12.138   5.773  14.016  0.2909  0.1337  0.2711
 2288W        W20492   4.143  14.033  15.060 -0.1056  0.1663 -0.2444
 2289W        W20493  10.225   0.184  12.550  0.1311 -0.3757 -0.0529
 2290W        W20494   7.119   9.983   1.942  0.2927 -0.1045  0.3428
 2291W        W20495   8.631  11.981   1.983 -0.1931 -0.1754 -0.0665
 2292W        W20496   5.507  16.657  15.018  0.0424 -0.0944  0.0186
 2293W        W20497  15.542   5.620  14.126  0.1397 -0.3335  0.0571
 2294W        W20498  17.946   2.780  14.927  0.0332  0.2966 -0.0634
 2295W        W20499  13.368  11.178   1.276  0.1068  0.2903 -0.0641
 2296W        W20500   4.959   4.981   1.112  0.0003 -0.1865  0.0320
 2297W        W20501   9.157   2.598  15.868  0.3025  0.0443  0.1516
 2298W        W20502   0.826   0.405  15.753 -0.0314  0.1296 -0.0576
 2299W        W20503   6.897  12.079   2.593 -0.0224  0.3140 -0.0305
 2300W        W20504   4.101   7.244  11.875 -0.1724  0.0764  0.2488
 2301W        W20505  16.596   4.708  14.763 -0.1821 -0.3465 -0.1225
 2302W        W20506   3.434  10.097  13.115  0.1855  0.0719 -0.0163
 2303W        W20507   5.754  14.847  13.884  0.0941 -0.0642  0.3116
 2304W        W20508  10.295  10.782   3.502  0.0484 -0.0497  0.3729
 2305W        W20509  15.434  12.372  12.592  0.2803  0.0313  0.1973
 2306W        W20510   3.749   5.799   5.457 -0.2539  0.0601  0.1883
 2307W        W20511   8.044   1.382  14.785  0.2933 -0.0524 -0.2531
 2308W        W20512   6.194   7.054   1.657  0.1975  0.0175  0.1307
 2309W        W20513   0.934   8.517   3.422  0.0425 -0.0697  0.1008
 2310W        W20514   2.491   9.662   3.295  0.2731  0.0464 -0.0709
 2311W        W20515  12.597  14.091  10.484 -0.1730 -0.0280  0.0986
 2312W        W20516   6.430  18.015   5.852 -0.0962  0.0089  0.1849
 2313W        W20517   6.086   9.833  11.078  0.1004  0.0442  0.0583
 2314W        W20518  18.009  14.632   1.046 -0.1337  0.0342  0.2822
 2315W        W20519   4.639  10.921   4.373  0.1924 -0.1864 -0.1222
 2316W        W20520  10.648   1.427  15.990  0.0348  0.2624  0.0397
 2317W        W20521  13.110  12.507  15.784 -0.2150 -0.0249  0.1190
 2318W        W20522  14.450   4.123   3.479 -0.2529 -0.0549  0.1960
 2319W        W20523  11.113   7.562  14.466  0.1019  0.2066  0.2108
 2320W        W20524   1.706   5.468  15.532  0.1746 -0.0000 -0.0753
 2321W        W20525   9.721  10.496   3.986  0.1984  0.1218 -0.1222
 2322W        W20526  13.810  11.682   5.899 -0.1653  0.4006 -0.1199
 2323W        W20527  11.192   2.068  11.926  0.3527 -0.0911 -0.1717
 2324W        W20528   1.765   7.419   2.220  0.1865  0.1799  0.0062
 2325W        W20529  15.289  11.200   0.270  0.1585  0.0063 -0.0912
 2326W        W20530  11.438   7.867  12.807  0.0416  0.0799  0.1837
 2327W        W20531  11.144   8.012   3.610  0.1563  0.1520 -0.2366
 2328W        W20532  15.465  17.593  15.331  0.2721 -0.0406  0.0972
 2329W        W20533  11.371  11.210  13.316  0.2028 -0.0382 -0.0614
 2330W        W20534   6.160   0.495  12.135 -0.0408  0.0102  0.1529
 2331W        W20535  12.328   4.341  12.189 -0.1128 -0.1539  0.0231
 2332W        W20536  13.684   1.150   1.176  0.0167  0.2405  0.0101
 2333W        W20537   3.811  10.198  10.986 -0.0105 -0.0609  0.2419
 2334W        W20538  15.842   4.599  16.098 -0.0586  0.0610 -0.1102
 2335W        W20539   9.256   9.934  10.875 -0.1725 -0.0674 -0.0361
 2336W        W20540  14.935   0.102   1.359 -0.2747 -0.2218 -0.2722
 2337W        W20541  11.036   4.830  15.915 -0.2813 -0.1073 -0.1242
 2338W        W20542   4.863   7.432  10.580 -0.2106 -0.0970 -0.2387
 2339W        W20543   9.232   9.662   3.819  0.0542  0.0644 -0.2340
 2340W        W20544   5.615   6.507   3.977 -0.4606 -0.0677  0.3177
 2341W        W20545   6.704  10.587  14.905  0.0855 -0.1469  0.1300
 2342W        W20546   6.777   8.497  12.745  0.2017 -0.2110  0.0135
 2343W        W20547  15.985  11.813   3.809  0.0383 -0.0639 -0.0633
 2344W        W20548  14.552  12.579  11.663 -0.2262 -0.0639  0.0806
 2345W        W20549   5.746  10.587  11.465  0.1969  0.0059 -0.1853
 2346W        W20550  12.734   8.858   1.000 -0.1001  0.0547  0.3085
 2347W        W20551   6.053   7.904  13.665  0.0587 -0.3790  0.1464
 2348W        W20552  15.501  12.114  11.575  0.1861 -0.1622  0.0141
 2349W        W20553  12.443   1.303  14.317  0.0272  0.0084 -0.1435
 2350W        W20554  16.098  13.394  11.839 -0.1154  0.1036 -0.0192
 2351W        W20555  16.495   2.098  13.560  0.1837 -0.0318  0.0130
 2352W        W20556   9.751  16.229  12.763  0.0997  0.0042 -0.0474
 2353W        W20557  15.697   6.823   0.697  0.0576  0.0256  0.0117
 2354W        W20558   3.701   7.479  11.580  0.0776 -0.0976 -0.0947
 2355W        W20559   1.074  17.421   1.847 -0.1506  0.0124 -0.2243
 2356W        W20560  11.730  10.293  12.500 -0.1527  0.1333  0.0257
 2357W        W20561   1.628   1.671  15.921 -0.2589 -0.0471  0.0847
 2358W        W20562  13.374  12.782   2.355 -0.0639 -0.0387 -0.3204
 2359W        W20563  17.124  12.044  13.101 -0.1486 -0.2842  0.0961
 2360W        W20564  15.122  17.300   3.849  0.5066 -0.1169 -0.3247
 2361W        W20565   4.230   3.761  12.747  0.1882 -0.2075  0.1346
 2362W        W20566  10.608   6.481   1.350  0.0911  0.0835 -0.2517
 2363W        W20567  15.278  14.827  15.130  0.2673 -0.0301 -0.1936
 2364W        W20568  14.131  15.301   2.332 -0.1315  0.2083  0.2730
 2365W        W20569   1.359  16.334   0.713  0.2654 -0.0217 -0.0638
 2366W        W20570  11.363  17.503   3.034  0.0915 -0.0147  0.1650
 2367W        W20571  10.515  16.883  11.117 -0.0565 -0.2524 -0.0515
 2368W        W20572   7.859  10.829  13.520  0.1842 -0.0149  0.3397
 2369W        W20573   4.241  18.027  12.933  0.1366  0.0216  0.1806
 2370W        W20574   8.588   4.657   1.580  0.0775 -0.0828  0.2359
 2371W        W20575  11.140   1.994   1.589  0.4212 -0.0172 -0.1513
 2372W        W20576  17.291   8.971   1.965 -0.1401 -0.1366 -0.0948
 2373W        W20577   5.360   4.866  16.174 -0.0649 -0.0535  0.3163
 2374W        W20578   0.204   5.495   3.815 -0.0388 -0.0686 -0.0865
 2375W        W20579  13.093  16.354  13.539  0.2406  0.1934 -0.0770
 2376W        W20580   7.678  14.938   4.966 -0.0008 -0.0279  0.0986
 2377W        W20581   2.239   2.040   2.780 -0.3047  0.0732 -0.5103
 2378W        W20582  13.491  13.569   1.590 -0.1170 -0.1203 -0.1885
 2379W        W20583  15.647  13.678   0.019  0.1004  0.1332  0.2354
 2380W        W20584  15.034   4.974  10.383 -0.4981 -0.1283  0.0807
 2381W        W20585   9.837  13.288  15.154  0.1392 -0.2351  0.0545
 2382W        W20586  11.716  16.691   2.347 -0.0623  0.0941  0.1270
 2383W        W20587   5.575   7.863  11.609 -0.0145 -0.0504  0.2197
 2384W        W20588  13.931   1.633  11.095 -0.1348 -0.3125  0.0222
 2385W        W20589   5.919   9.108   1.396 -0.2134 -0.0025  0.0587
 2386W        W20590  14.906  14.909  13.143 -0.0130 -0.0247 -0.1443
 2387W        W20591  10.343   1.007  13.419  0.1749  0.2669 -0.0084
 2388W        W20592   5.664   7.975   1.600  0.2235 -0.0926 -0.1196
 2389W        W20593  16.604   1.599  13.773  0.1255  0.0182 -0.1503
 2390W        W20594   6.552  17.644   2.097  0.0974  0.3129 -0.0656
 2391W        W20595  14.205   9.636  12.263 -0.3278  0.1728 -0.1177
 2392W        W20596   9.529   8.829   1.193 -0.3472  0.2887  0.0373
 2393W        W20597  17.948   3.155  13.978 -0.0641 -0.0573 -0.2161
 2394W        W20598   2.044   9.506   2.514  0.1385  0.1314  0.0039
 2395W        W20599  14.977  13.804   2.353 -0.0607 -0.1593 -0.0272
 2396W        W20600  13.332   1.155  14.477  0.0841 -0.0740  0.0549
 2397W        W20601   2.589  17.330  13.596 -0.0244  0.3517 -0.2601
 2398W        W20602  17.326   4.455   0.044 -0.1495 -0.0642  0.0724
 2399W        W20603  12.266  14.830   2.972  0.0488  0.0332 -0.0740
 2400W        W20604   0.064  16.569  10.922 -0.0799  0.1709 -0.0038
 2401W        W20605   6.681   1.100   3.062  0.3767 -0.0069 -0.2636
 2402W        W20606   5.299   9.333  12.682 -0.0765 -0.1331  0.0615
 2403W        W20607  14.743   2.675   2.591 -0.0051 -0.0720 -0.4234
 2404W        W20608   8.036   4.656  11.528  0.0203  0.0002 -0.1758
 2405W        W20609  16.959   3.770  14.809 -0.1361  0.1335 -0.1048
 2406W        W20610  10.045   3.056  12.386 -0.2646  0.1334  0.2443
 2407W        W20611   1.877  10.581  12.992 -0.0705 -0.0922 -0.1704
 2408W        W20612  11.719   6.648   2.745 -0.0479 -0.2811  0.1606
 2409W        W20613  15.047   9.317  14.777 -0.2341  0.1482 -0.0367
 2410W        W20614   8.441   7.847   3.299  0.0671  0.1608  0.0273
 2411W        W20615  10.575  16.511  14.967  0.1744  0.1313  0.0915
 2412W        W20616  16.361  13.916   4.612  0.0933 -0.0090  0.1837
 2413W        W20617   0.146  10.855   2.790 -0.0511 -0.0960  0.3015
 2414W        W20618  14.139  17.422  12.692  0.1740  0.1951 -0.1666
 2415W        W20619   0.507   6.095  14.585 -0.1063 -0.1633 -0.0846
 2416W        W20620   5.756   4.643   0.641 -0.0013 -0.0405 -0.1040
 2417W        W20621  18.039  16.768   0.700 -0.1527  0.1110  0.2400
 2418W        W20622  15.398  17.992  12.116 -0.1882  0.0332  0.2589
 2419W        W20623  17.451   1.753   1.565 -0.0563  0.3049 -0.0433
 2420W        W20624  10.407   6.157   0.143 -0.1185 -0.1787  0.1214
 2421W        W20625   7.889  16.849   1.499  0.3459 -0.1373  0.1691
 2422W        W20626  10.404   1.714  15.705  0.0548  0.1989 -0.1579
 2423W        W20627  12.972  17.520   3.321 -0.0052  0.1887  0.2638
 2424W        W20628   0.431   5.735   3.396  0.1718  0.1161  0.0101
 2425W        W20629   4.525  14.802   4.819 -0.0562  0.0930 -0.2277
 2426W        W20630  14.890   4.495  10.804 -0.0585  0.0528  0.1879
 2427W        W20631   0.827  10.174   2.898 -0.1651 -0.0294  0.2092
 2428W        W20632   3.222  17.175   1.250 -0.0016 -0.0358 -0.0509
 2429W        W20633  16.939  11.523   3.696 -0.0392 -0.0233 -0.0713
 2430W        W20634   6.465  11.910  15.414 -0.0645 -0.1227  0.1736
 2431W        W20635  17.247  14.935  13.117  0.0023 -0.1133 -0.0026
 2432W        W20636   0.027   5.432  14.333 -0.2501 -0.0026 -0.0031
 2433W        W20637   7.563  11.220   0.928  0.0949  0.0241  0.1812
 2434W        W20638  14.909  13.065  11.024  0.0315  0.1983  0.0916
 2435W        W20639  17.655   2.466   1.950 -0.1994  0.1012 -0.1378
 2436W        W20640  13.742  12.011   3.713 -0.1169 -0.1204 -0.0825
 2437W        W20641   6.308  13.370  13.164  0.0637  0.0168 -0.0610
 2438W        W20642   5.885   6.445   4.515  0.0465  0.0529 -0.0710
 2439W        W20643   5.997  15.423  16.048 -0.0053 -0.1833 -0.0827
 2440W        W20644  15.230  17.136  11.732  0.2671  0.1358  0.2736
 2441W        W20645   6.446   4.844  11.549  0.0179 -0.1685 -0.1380
 2442W        W20646   0.548   7.727  15.280  0.1015 -0.0457  0.0699
 2443W        W20647   0.176   1.062   2.044 -0.1219 -0.0626  0.1477
 2444W        W20648  15.301   9.437   2.499  0.0728  0.1861  0.0346
 2445W        W20649  11.181  14.056  13.013 -0.3078 -0.2169 -0.0566
 2446W        W20650   6.046   2.085  15.465  0.1335 -0.1037  0.1506
 2447W        W20651   5.826  15.907   3.672 -0.0528 -0.3759 -0.2469
 2448W        W20652   4.054   7.231  12.412  0.0823 -0.0544 -0.2528
 2449W        W20653   8.393  15.990   4.294 -0.0825 -0.0967 -0.1572
 2450W        W20654   4.132  14.620   1.674 -0.0065 -0.1260  0.0772
 2451W        W20655  10.316   2.277  15.547 -0.0908 -0.2080  0.0739
 2452W        W20656   3.127   4.970   0.437  0.0054  0.1079 -0.1986
 2453W        W20657   3.827   6.627   3.070  0.1084  0.0995  0.2531
 2454W        W20658   3.838  17.467  15.971 -0.0517  0.3137  0.0645
 2455W        W20659  14.945  12.074  14.703 -0.0977 -0.3168  0.2766
 2456W        W20660  11.703  14.496  15.465  0.1354  0.0461  0.1492
 2457W        W20661  17.022   9.007   2.817  0.0084 -0.0433  0.2996
 2458W        W20662   3.317  12.894   2.876  0.1424  0.2126 -0.1034
 2459W        W20663   5.236  17.870  13.345 -0.2283  0.1385  0.0044
 2460W        W20664  12.203   4.488   1.106  0.2603  0.1215  0.1716
 2461W        W20665   9.706   5.423   1.544 -0.0942  0.2330 -0.1003
 2462W        W20666   8.711   9.249   1.041  0.0229  0.0075  0.0503
 2463W        W20667   2.877  14.645   0.831 -0.1030  0.0640 -0.2074
 2464W        W20668   2.016  14.716   4.664  0.2482  0.1383  0.0045
 2465W        W20669   7.572   8.933   4.004 -0.0678 -0.1051 -0.0277
 2466W        W20670   3.834  17.715   1.793  0.0747  0.0675  0.2785
 2467W        W20671  12.764   5.761  15.848  0.1481 -0.0151  0.0545
 2468W        W20672  10.358   3.682   1.342  0.0070  0.0620 -0.1004
 2469W        W20673  13.495   2.547  16.076  0.1260  0.1519  0.2461
 2470W        W20674   7.034   7.779   1.004 -0.1738  0.0243  0.1189
 2471W        W20675  17.413  11.425  12.596 -0.0336 -0.1917 -0.0255
 2472W        W20676  15.244  17.556   4.329 -0.0953  0.3315  0.0650
 2473W        W20677   6.023   6.159   2.612  0.0384 -0.1635  0.0327
 2474W        W20678   5.646  18.023   2.955 -0.0992  0.0131 -0.1949
 2475W        W20679   8.465   0.524   0.338  0.2686  0.3542  0.1203
 2476W        W20680   1.056  15.407   1.041  0.1685 -0.2226 -0.0717
 2477W        W20681   5.335   6.860  12.232 -0.2411  0.2700 -0.0729
 2478W        W20682   5.741   0.285  13.901 -0.0197  0.2181 -0.0802
 2479W        W20683  14.816  15.915   3.534 -0.0647 -0.3096 -0.1703
 2480W        W20684  11.852  11.311  14.018  0.0231  0.0969  0.3237
 2481W        W20685  16.261  12.636   1.358 -0.0454 -0.1069 -0.2284
 2482W        W20686   6.833   4.365   5.412  0.2320 -0.2281 -0.2223
 2483W        W20687  12.851  12.739   3.040  0.1826 -0.2096  0.3288
 2484W        W20688  13.479   8.399   2.927  0.0597 -0.0906 -0.1549
 2485W        W20689   4.151  13.631  13.057 -0.2309 -0.0583  0.0788
 2486W        W20690  14.660   2.885   0.691  0.0965 -0.1400 -0.2296
 2487W        W20691   5.949  16.575  15.338  0.1063  0.1401  0.0296
 2488W        W20692  17.355   1.763   3.828  0.1120  0.0531  0.0273
 2489W        W20693   0.382   6.987  13.276 -0.2920  0.0183 -0.0823
 2490W        W20694  11.195  11.156   1.625  0.1103 -0.0253  0.0630
 2491W        W20695   9.315   6.325   3.403  0.0180 -0.0611  0.0562
 2492W        W20696   8.799  11.388  14.903 -0.0110  0.3778 -0.0228
 2493W        W20697   6.647   2.445  15.228 -0.0437 -0.0431  0.2473
 2494W        W20698   3.339  14.627  13.499  0.2178 -0.3867  0.4139
 2495W        W20699   0.410   7.432  11.774 -0.2692 -0.2247  0.2577
 2496W        W20700   0.379   7.562   2.875  0.1822  0.1041  0.2572
 2497W        W20701  11.402   6.448   0.580 -0.0353 -0.0762 -0.0057
 2498W        W20702   1.670  11.738   1.827  0.1478  0.1611  0.0571
 2499W        W20703  10.135  17.291  13.751  0.0804  0.0393  0.2131
 2500W        W20704   4.774   2.622   4.407  0.0623 -0.4446 -0.3117
 2501W        W20705  15.896   0.336  15.973  0.1301 -0.1764 -0.0065
 2502W        W20706  12.011  14.240   2.137 -0.1007  0.1070 -0.1112
 2503W        W20707   3.898   5.249  12.671  0.0417  0.0708  0.0650
 2504W        W20708  17.174   2.202  12.831 -0.1427 -0.2441 -0.3033
 2505W        W20709   0.065  14.188  12.424 -0.3001 -0.0033 -0.0299
 2506W        W20710   4.493   1.521  12.327 -0.0374 -0.0958  0.1953
 2507W        W20711   1.825   8.077  10.955  0.2037 -0.0474 -0.0534
 2508W        W20712  13.901  13.374   1.862  0.0309  0.3951  0.2200
 2509W        W20713   8.822   0.221   3.730  0.1310 -0.2263  0.1376
 2510W        W20714   4.719   4.088  11.558 -0.0826 -0.2577  0.0164
 2511W        W20715   8.597  15.902  11.308 -0.2613 -0.1791  0.1160
 2512W        W20716  14.930  14.779  13.690 -0.2012  0.1580 -0.0058
 2513W        W20717  10.808   4.109   3.521 -0.2376  0.1723  0.1841
 2514W        W20718  10.981   9.058   3.316  0.0322 -0.1077  0.0401
 2515W        W20719  15.118  17.554  12.028  0.0796 -0.0872 -0.1567
 2516W        W20720   0.071   5.825  11.545  0.0109  0.1686  0.0401
 2517W        W20721  11.477  17.279  10.799  0.1763 -0.0129 -0.1145
 2518W        W20722   4.246   5.009  14.872 -0.2357  0.1065  0.2781
 2519W        W20723   5.597  15.129   0.032  0.3478  0.1312 -0.1182
 2520W        W20724  12.660  17.455  14.491  0.2127  0.1190  0.1672
 2521W        W20725   9.889   9.891   1.662  0.0139  0.0303  0.1254
 2522W        W20726   6.519   1.762  15.908 -0.3380 -0.3567  0.1427
 2523W        W20727  15.046   2.545   0.700 -0.3194 -0.1388  0.1427
 2524W        W20728   8.074  17.313   0.053  0.1033 -0.0953  0.1796
 2525W        W20729   2.102   3.123   0.798 -0.0806  0.1822 -0.2076
 2526W        W20730  12.499   1.663   1.551 -0.0557 -0.0453 -0.2689
 2527W        W20731   3.370  16.554   4.155 -0.0784  0.3169  0.0739
 2528W        W20732   6.296   9.941  15.919  0.2108  0.2743  0.0990
 2529W        W20733   0.494   2.358  15.489  0.0520 -0.2079  0.0328
 2530W        W20734   7.640  13.403  15.356 -0.1340  0.1794 -0.0645
 2531W        W20735   6.885  10.180   2.591  0.1340 -0.3896  0.2477
 2532W        W20736   7.302   9.137   4.787 -0.4321  0.1013 -0.0435
 2533W        W20737  15.259  11.289  13.071 -0.2797 -0.0771  0.1547
 2534W        W20738  17.656  14.786  15.320 -0.1055 -0.1398 -0.0465
 2535W        W20739   2.837   9.324  12.400  0.0291 -0.0826  0.0797
 2536W        W20740  13.335   3.860   4.138  0.1126  0.0228 -0.1763
 2537W        W20741   0.745   4.406   2.984 -0.0778  0.0482  0.1845
 2538W        W20742   4.009   5.953  13.528 -0.0065 -0.0676 -0.2917
 2539W        W20743   7.096  12.771   3.390 -0.0146 -0.1750  0.1658
 2540W        W20744  16.685  13.472  13.556  0.0664 -0.6082  0.0904
 2541W        W20745   9.949   5.802  16.134  0.0232  0.2892 -0.0978
 2542W        W20746   8.729  11.187  12.197  0.1994  0.0614  0.0881
 2543W        W20747   9.953   0.745   4.578 -0.0839  0.1587 -0.0513
 2544W        W20748  13.194  12.808  12.923 -0.1239 -0.2917  0.2839
 2545W        W20749   9.645  15.159  14.992 -0.2417  0.0561  0.0402
 2546W        W20750   7.317   3.277   2.649  0.1379 -0.1317 -0.0551
 2547W        W20751   0.798   5.739   5.162  0.0382 -0.2019 -0.4289
 2548W        W20752  13.818  13.835  11.860 -0.0996  0.2237 -0.0963
 2549W        W20753   5.366  13.273  15.770  0.2011  0.4658  0.2813
 2550W        W20754  13.305  13.943   2.870 -0.0095 -0.1753  0.1059
 2551W        W20755  17.907  11.568   2.279  0.1629 -0.2271 -0.1724
 2552W        W20756   9.238   0.775  15.714 -0.0015 -0.1007  0.1089
 2553W        W20757   1.685  10.623   0.984  0.2116  0.1023  0.2427
 2554W        W20758   8.517   0.467  12.081 -0.2016 -0.0353 -0.1335
 2555W        W20759   4.665   6.990  13.142  0.0968  0.0038  0.2859
 2556W        W20760   6.208   4.916   1.797 -0.1373 -0.1417  0.1494
 2557W        W20761  13.109  15.431  14.700  0.2450 -0.0271  0.0326
 2558W        W20762   6.274   1.230  15.831  0.0258  0.0453 -0.0182
 2559W        W20763   4.997  12.295  13.605  0.1907  0.0432  0.0754
 2560W        W20764   5.649  11.065   1.541 -0.1586  0.0379 -0.1724
 2561W        W20765  10.123   6.561  13.534 -0.0866  0.0910  0.0454
 2562W        W20766  13.758  11.408   2.207 -0.1444  0.0493 -0.3422
 2563W        W20767   4.289   9.417   3.508 -0.2005 -0.1529  0.2008
 2564W        W20768   7.190   3.856  13.011 -0.1988  0.0858  0.2318
 2565W        W20769   4.597  16.082  13.906 -0.2361 -0.4209 -0.1305
 2566W        W20770  16.700  14.495  12.231 -0.2271  0.2438 -0.1557
 2567W        W20771  11.964  17.841   4.931  0.1839 -0.0193  0.0960
 2568W        W20772   5.628   7.854   3.693  0.2010 -0.1405 -0.1443
 2569W        W20773  14.890  16.280  12.084 -0.3574 -0.0035  0.0135
 2570W        W20774  12.965  12.853   0.823  0.2475  0.2612 -0.0365
 2571W        W20775  14.991  10.534  13.549  0.0368  0.1238 -0.0117
 2572W        W20776  13.592  14.680  11.532  0.1650  0.0566  0.1987
 2573W        W20777   1.343   1.186  15.376  0.1007  0.1408  0.0863
 2574W        W20778  15.769  15.078   2.176 -0.0576 -0.0592  0.2520
 2575W        W20779   6.845   8.175  12.367 -0.1697  0.0389 -0.0613
 2576W        W20780   2.556  16.908  13.255  0.0978  0.2009 -0.0733
 2577W        W20781  13.630   3.364   1.238 -0.1675 -0.0311  0.1344
 2578W        W20782   7.719   5.141  14.633  0.3221  0.1146  0.1352
 2579W        W20783   2.967  15.566  14.234  0.1988  0.0226 -0.3262
 2580W        W20784  13.692   7.842   0.205  0.0329  0.0109 -0.1562
 2581W        W20785   8.963   3.299  11.466 -0.1534  0.2741 -0.1178
 2582W        W20786  15.688  14.786   4.689 -0.0738 -0.1448  0.1181
 2583W        W20787   4.372  15.072   0.014 -0.0359 -0.0757  0.1964
 2584W        W20788   1.621   6.493  14.636 -0.2202 -0.0682 -0.2691
 2585W        W20789   2.087  15.966  15.250  0.2419  0.0724 -0.3859
 2586W        W20790  16.166   2.229   4.406 -0.2182 -0.2937 -0.0469
 2587W        W20791  16.211   8.919  13.011 -0.0707  0.0253  0.0202
 2588W        W20792  17.527   2.708   0.357  0.1280 -0.1192  0.4653
 2589W        W20793   7.964   7.059  12.057 -0.2502  0.2449  0.0928
 2590W        W20794  13.624  12.470  13.163  0.2888  0.3453  0.2533
 2591W        W20795  12.683   8.762  13.145  0.1331 -0.1521 -0.0237
 2592W        W20796   5.190   2.733  13.996  0.3664 -0.0153 -0.1898
 2593W        W20797  14.287   8.971   1.595  0.0465  0.1317 -0.2324
 2594W        W20798   5.412   5.554  13.040  0.1204 -0.1738 -0.0171
 2595W        W20799  12.258   6.753   2.589  0.2093  0.0788 -0.1091
 2596W        W20800  10.198  16.051   3.706 -0.0431  0.4254 -0.2387
 2597W        W20801   4.202   9.170   2.035  0.2030  0.2336  0.2044
 2598W        W20802  15.760   9.790  15.348 -0.0693  0.1469 -0.1852
 2599W        W20803   4.032   7.029  14.226  0.0465  0.2407 -0.1219
 2600W        W20804   8.441   2.359   0.067 -0.0141 -0.0249 -0.1415
 2601W        W20805   6.587   4.553  15.026 -0.0227 -0.2216  0.0095
 2602W        W20806   9.401  11.490   1.024 -0.2061 -0.0524 -0.5359
 2603W        W20807   0.972   1.783   4.848 -0.1385 -0.1388  0.2606
 2604W        W20808   3.644   7.371  12.047  0.1136 -0.0837  0.2186
 2605W        W20809  17.456   2.196   4.525  0.1090 -0.1030 -0.0324
 2606W        W20810  12.844   9.223  12.266  0.1969  0.2040 -0.1320
 2607W        W20811   3.435   8.913  16.014  0.1684  0.2415 -0.0555
 2608W        W20812   3.180   4.818  13.863 -0.1700 -0.2251  0.0994
 2609W        W20813  16.473   9.327  14.881 -0.2815  0.0052  0.4166
 2610W        W20814  14.875   0.906   3.151  0.0515  0.1606 -0.1112
 2611W        W20815  14.820   4.497   1.993  0.0812  0.0633  0.3191
 2612W        W20816  15.355  12.600  16.090 -0.0140 -0.0680  0.1376
 2613W        W20817   5.703  16.075   0.817 -0.2114 -0.0879 -0.2463
 2614W        W20818  12.707  15.478  15.540  0.0103  0.3021 -0.0996
 2615W        W20819  17.765  12.655   4.097 -0.1098 -0.3591  0.1254
 2616W        W20820  13.567  14.451  12.853  0.0650  0.0326 -0.0863
 2617W        W20821  10.222   1.576  16.169 -0.1605 -0.3139 -0.5471
 2618W        W20822  10.907   6.114   4.168  0.1737  0.0586  0.1144
 2619W        W20823  11.419   6.961   6.089 -0.2884  0.3118  0.1776
 2620W        W20824  13.249   2.463   0.348 -0.0126  0.1243  0.0253
 2621W        W20825   9.674   7.101  13.555  0.2673  0.1968  0.0724
 2622W        W20826   4.549   0.728  12.509 -0.2143  0.2191 -0.0134
 2623W        W20827   0.878  10.321   0.519 -0.0072  0.1639 -0.0677
 2624W        W20828   0.590   0.825  15.898  0.0425 -0.1903  0.1917
 2625W        W20829  16.236   3.130   0.997  0.0680 -0.0273 -0.1091
 2626W        W20830   5.318   1.690  13.016  0.0897 -0.3253 -0.1816
 2627W        W20831   7.805   4.729   1.294  0.2746 -0.1894 -0.1733
 2628W        W20832   7.908   9.012  12.420  0.0700 -0.0555  0.1289
 2629W        W20833   6.787  11.828  13.474 -0.3512 -0.2850 -0.0589
 2630W        W20834   4.868   0.370   0.113 -0.1077  0.1051 -0.0691
 2631W        W20835   2.313  17.321  13.060 -0.0348  0.0387  0.0893
 2632W        W20836   9.309   8.062   3.749 -0.0448 -0.2236  0.0083
 2633W        W20837   9.560   2.757   2.134 -0.0002 -0.0948  0.0554
 2634W        W20838   0.663   7.924  14.395 -0.1701 -0.0390  0.3333
 2635W        W20839   3.967   2.652   1.610  0.0683  0.0431  0.2025
 2636W        W20840  10.103  16.168  11.497  0.1162 -0.0478  0.1622
 2637W        W20841  12.482   9.025  15.747 -0.4164 -0.0093 -0.2270
 2638W        W20842   2.053   1.001   0.857  0.2260 -0.1430  0.1562
 2639W        W20843   6.609  13.319   3.928 -0.0431 -0.2428 -0.0615
 2640W        W20844   7.065  13.633   4.777  0.2014 -0.1505  0.0451
 2641W        W20845   3.028   2.939   4.424 -0.0896 -0.1185  0.1653
 2642W        W20846  15.856   5.949   4.757  0.1869 -0.0618  0.0513
 2643W        W20847  16.774   7.627   0.391  0.1829 -0.0842 -0.1080
 2644W        W20848  14.704  11.215  12.079  0.0316 -0.0945 -0.0215
 2645W        W20849  11.975  13.539   2.834 -0.0352 -0.1733  0.0280
 2646W        W20850  16.008  10.514   0.912  0.2517  0.0411 -0.1170
 2647W        W20851   3.893  15.874  14.539 -0.0998  0.2009 -0.0134
 2648W        W20852   5.953  15.337  13.254  0.0935  0.0568  0.1275
 2649W        W20853   0.502  11.722  12.757  0.1009  0.1317  0.0764
 2650W        W20854   1.633   3.254  13.296 -0.2387  0.1656  0.1843
 2651W        W20855   0.585   2.930  13.711 -0.1523  0.2857 -0.0575
 2652W        W20856  11.236   8.382  15.140 -0.0094 -0.2410 -0.2128
 2653W        W20857   9.170  11.339  12.004  0.0108  0.0630  0.1167
 2654W        W20858   6.266   9.357  12.607  0.1808  0.1379  0.1436
 2655W        W20859   3.181  11.989   2.620  0.1730 -0.2991 -0.0568
 2656W        W20860   1.998   5.091   1.014 -0.1688  0.1154 -0.0988
 2657W        W20861   4.814   3.571   2.909 -0.1954 -0.3286 -0.0995
 2658W        W20862   4.845  12.142  12.496  0.0369  0.0176 -0.1059
 2659W        W20863  13.628  16.777   0.597  0.0668 -0.1523  0.2329
 2660W        W20864   6.214   8.603  16.003 -0.2668 -0.1524  0.1640
 2661W        W20865   7.425  17.251  12.093  0.4052 -0.2161  0.0733
 2662W        W20866   9.663  17.860   0.877  0.1931  0.0270 -0.0353
 2663W        W20867   8.837   0.324  12.893 -0.2855  0.1989  0.0189
 2664W        W20868  10.686   1.867   0.052  0.1209 -0.0759 -0.0787
 2665W        W20869   7.369   6.857   0.992 -0.1070  0.1093 -0.3159
 2666W        W20870   7.899  13.336  13.875  0.0343 -0.2949  0.1642
 2667W        W20871  13.276   9.896   4.471 -0.0510 -0.0074 -0.1740
 2668W        W20872  11.627   5.658   3.637 -0.0165  0.1104 -0.0248
 2669W        W20873   0.879   7.600   5.803 -0.0454 -0.2693  0.1647
 2670W        W20874   7.676  15.043   3.520 -0.1662 -0.0661 -0.1261
 2671W        W20875   4.373   3.814  14.291  0.3038  0.4533 -0.1109
 2672W        W20876  17.393   7.433   4.533  0.1497  0.0798 -0.0331
 2673W        W20877   1.271   2.978  12.815  0.0604  0.0694 -0.2291
 2674W        W20878   2.567  17.889  14.944 -0.1040 -0.0152  0.3827
 2675W        W20879  12.787  16.683   4.707  0.2326 -0.1454  0.2299
 2676W        W20880  16.824   2.583  11.766 -0.0767 -0.1579 -0.1650
 2677W        W20881  12.603  14.687   0.287  0.0407  0.2401 -0.2614
 2678W        W20882  10.781   6.284  13.090 -0.1395 -0.0933  0.1946
 2679W        W20883   9.691  15.963   2.618 -0.2270  0.0942  0.0940
 2680W        W20884  10.357  14.136  14.913  0.2414 -0.0727 -0.1911
 2681W        W20885  15.602   6.819  12.106  0.2227 -0.1841 -0.0944
 2682W        W20886   5.947  17.582  11.710  0.0939 -0.2790 -0.0975
 2683W        W20887  10.019  13.094  12.238 -0.2247 -0.3262  0.0382
 2684W        W20888  11.268  14.328   1.523  0.2100 -0.0401 -0.0083
 2685W        W20889   1.651  14.125   0.193 -0.0501  0.0579  0.2013
 2686W        W20890  14.835   7.533  14.135  0.0256 -0.0157  0.0261
 2687W        W20891  14.067   5.211  15.564 -0.0461 -0.2624 -0.1569
 2688W        W20892   9.683  10.725  14.985  0.1259  0.0248  0.3644
 2689W        W20893   0.848   7.553   0.259  0.1740 -0.3434  0.2812
 2690W        W20894   7.978  14.273  13.026  0.1352 -0.2354  0.1049
 2691W        W20895   9.807  17.421  14.563 -0.0436  0.1042  0.0666
 2692W        W20896  12.392   4.734   3.348 -0.3241  0.0029  0.0175
 2693W        W20897   5.157  13.952   3.305 -0.2848 -0.0750  0.0497
 2694W        W20898   9.932   9.048  15.659  0.1733 -0.1514  0.3360
 2695W        W20899  11.657  11.861  12.899 -0.3594  0.0110  0.0207
 2696W        W20900  10.871   1.300  11.092 -0.1785  0.1727  0.1449
 2697W        W20901   1.041   2.712  11.855 -0.2476 -0.0208 -0.1528
 2698W        W20902   4.660   0.551   5.187 -0.0342 -0.1915 -0.0917
 2699W        W20903  15.504  17.281   2.390 -0.1673 -0.1054  0.0049
 2700W        W20904   2.260  15.454  15.083 -0.4269  0.0652 -0.0637
 2701W        W20905   9.489   5.908   2.628 -0.1559  0.1699  0.2013
 2702W        W20906  12.429   3.785  15.621 -0.0498  0.1058  0.1181
 2703W        W20907   3.201   1.420  14.719  0.0330  0.1682  0.1077
 2704W        W20908   6.873   1.136  14.153 -0.1366  0.0225  0.0050
 2705W        W20909  11.261  17.833   0.151 -0.1393 -0.1692  0.0305
 2706W        W20910  10.572  14.193  13.228 -0.1541  0.2793  0.0425
 2707W        W20911  17.423  13.174   1.895  0.1131  0.0878  0.1785
 2708W        W20912   4.844  16.187  11.920 -0.0408  0.3821 -0.0609
 2709W        W20913   2.119   4.281  11.825 -0.0458 -0.3206  0.1252
 2710W        W20914  17.500  10.264   1.542  0.0154 -0.0257  0.3696
 2711W        W20915   2.865  17.267  13.126 -0.2072  0.1873  0.0049
 2712W        W20916  13.763  16.676  15.151 -0.0176  0.1980  0.0565
 2713W        W20917   0.681   1.213  12.333  0.1325  0.1212  0.1569
 2714W        W20918   9.793  15.325   2.495  0.4115 -0.0851  0.0584
 2715W        W20919   7.932   9.334   1.195 -0.0029  0.0954  0.1696
 2716W        W20920   7.131  16.775  15.320 -0.0773  0.0957  0.0949
 2717W        W20921   1.110   0.683   0.981  0.0565  0.0049 -0.0794
 2718W        W20922   3.715  12.375   4.734 -0.1236  0.0239 -0.5754
 2719W        W20923   8.026   4.498   4.498 -0.1470 -0.1517 -0.2028
 2720W        W20924  15.743  16.583   0.708  0.1299 -0.1621 -0.1357
 2721W        W20925   8.174  14.107   4.849 -0.2776 -0.1164 -0.1721
 2722W        W20926   4.674   4.465   3.442  0.1621 -0.0366 -0.2452
 2723W        W20927   0.631   2.392   3.918  0.0721 -0.0797  0.0406
 2724W        W20928   1.305   5.979   1.482  0.1765  0.0143 -0.1420
 2725W        W20929   0.792  15.722  12.071  0.1543 -0.0880  0.0637
 2726W        W20930  14.891  12.898   4.707 -0.1923  0.1253  0.0506
 2727W        W20931   3.522   7.187  15.719 -0.2894  0.0308 -0.1528
 2728W        W20932  10.522  10.734  13.842  0.0245  0.1887  0.1435
 2729W        W20933  15.848  17.508  13.335  0.2968  0.0560 -0.2726
 2730W        W20934   6.885  11.325   0.988 -0.5085  0.1881  0.2430
 2731W        W20935  14.448  12.101   0.198  0.0562  0.1482 -0.1408
 2732W        W20936   3.052   8.066   4.519 -0.0940  0.1204  0.1101
 2733W        W20937  10.369  17.893  14.433 -0.0546 -0.1272 -0.2119
 2734W        W20938   0.656   7.282   4.052 -0.0904  0.0418 -0.1303
 2735W        W20939   9.583   9.937  14.355  0.0535  0.0531  0.1750
 2736W        W20940   5.489   9.955   2.854 -0.1498  0.1149  0.0734
 2737W        W20941   9.633  17.816  12.400  0.2501 -0.0169 -0.2404
 2738W        W20942   3.852  14.854  12.655  0.0585 -0.1118  0.2910
 2739W        W20943  16.228  11.946   2.424 -0.2058 -0.1622  0.0695
 2740W        W20944   5.740   7.374  15.583  0.2420  0.0309 -0.1967
 2741W        W20945  17.278  14.103  15.915 -0.1459  0.1506  0.2728
 2742W        W20946   3.285   5.190   3.892 -0.2015  0.0959  0.1786
 2743W        W20947   4.855   6.981   4.344 -0.1184  0.1336 -0.1155
 2744W        W20948  10.315   4.585   2.701  0.0002 -0.1575  0.4081
 2745W        W20949  13.101  15.890  15.684 -0.0374  0.0952  0.4277
 2746W        W20950   2.969  16.500  13.212 -0.0059 -0.0432 -0.0126
 2747W        W20951  13.317   1.153   4.170  0.0025  0.4563  0.1652
 2748W        W20952  13.021   5.870  11.357  0.1869 -0.1679  0.3375
 2749W        W20953  15.711   4.534  13.317 -0.0453  0.4875 -0.0814
 2750W        W20954   7.503  13.659  13.630  0.1826 -0.0055  0.1615
 2751W        W20955  10.666   8.362  15.975  0.0616 -0.3000 -0.1208
 2752W        W20956   9.684  14.298  13.405  0.0122 -0.3376  0.0541
 2753W        W20957   7.779  13.785  11.390 -0.2564  0.0990  0.0208
 2754W        W20958  15.139   6.487   5.412 -0.1068 -0.2030 -0.2488
 2755W        W20959   5.409  17.137   3.261 -0.0405 -0.0422  0.0001
 2756W        W20960  15.043  16.448   1.275 -0.0313  0.1258 -0.1251
 2757W        W20961  16.747   9.835   3.063 -0.0009 -0.1286  0.1673
 2758W        W20962  12.538  13.185   3.536  0.2050  0.4127  0.2377
 2759W        W20963  10.836   6.696  11.211 -0.0137 -0.0059  0.1921
 2760W        W20964  14.927  10.718   2.822 -0.0710  0.1518  0.2176
 2761W        W20965  11.604   3.927  12.479  0.2140 -0.0670 -0.0786
 2762W        W20966   9.095   4.468   0.377  0.0947  0.0477 -0.1000
 2763W        W20967   6.599   2.733  15.924 -0.1944  0.1893  0.3115
 2764W        W20968   7.900   4.986   0.833 -0.0815 -0.0157 -0.3408
 2765W        W20969   8.062   9.244  14.907 -0.0449 -0.0115  0.2721
 2766W        W20970  15.670   3.921  14.749  0.0281  0.1611 -0.0943
 2767W        W20971  16.356   1.375  12.267 -0.2814 -0.1026  0.0984
 2768W        W20972  16.935   5.947   4.084  0.1303  0.3669 -0.0004
 2769W        W20973  12.368   9.932  13.744  0.0177 -0.2344  0.0840
 2770W        W20974   6.476  17.744   4.820  0.0953 -0.1345  0.0352
 2771W        W20975   2.367   2.617   0.503  0.0631  0.1852 -0.2740
 2772W        W20976   2.556   2.073   1.538 -0.1673 -0.0580  0.3346
 2773W        W20977  13.281   1.642   0.825  0.2677  0.1466 -0.0392
 2774W        W20978  13.798   7.506   4.804 -0.1149 -0.1902 -0.0328
 2775W        W20979   3.112   1.593   3.948  0.0328  0.2430 -0.0295
 2776W        W20980   9.266   7.648  13.026  0.3692 -0.1113 -0.1539
 2777W        W20981  12.733   4.155  15.574 -0.2627 -0.2900 -0.3213
 2778W        W20982   5.958   1.863   2.381 -0.1165 -0.0446  0.1442
 2779W        W20983   4.048   3.380   1.146  0.0756 -0.0127  0.1312
 2780W        W20984  12.538  10.750   4.962 -0.0035 -0.1439  0.0590
 2781W        W20985  17.631  17.399   1.801 -0.3015 -0.0444 -0.0286
 2782W        W20986   4.882  16.407   4.313  0.0295  0.0014 -0.0040
 2783W        W20987   3.090  17.552  14.426 -0.1753 -0.0687  0.0455
 2784W        W20988  11.438  12.444  11.683 -0.0871  0.1150  0.0919
 2785W        W20989  11.197  12.499  13.318 -0.1161 -0.1831 -0.0506
 2786W        W20990  16.470  17.843   0.511  0.0618  0.0563  0.0858
 2787W        W20991   2.646   9.873   1.754 -0.0821 -0.3709 -0.0860
 2788W        W20992   8.726   8.580   4.245  0.0040 -0.0178 -0.0281
 2789W        W20993   6.176   3.138   2.820  0.0707 -0.2677  0.0527
 2790W        W20994   3.616  12.185  14.321  0.0278  0.0421 -0.0644
 2791W        W20995   6.895  10.996  13.752  0.3969 -0.2794  0.0953
 2792W        W20996  16.538  17.627   4.563  0.0513 -0.0241  0.0859
 2793W        W20997  15.963   6.176  12.188  0.1468  0.0301 -0.1911
 2794W        W20998   5.778  11.116  12.064  0.1483 -0.1903 -0.2749
 2795W        W20999   9.039  15.592  11.368 -0.0988 -0.1648  0.1444
 2796W        W21000   4.887   6.815   3.300 -0.0195  0.0937 -0.1200
 2797W        W21001   3.439   3.007  12.511 -0.0628  0.1071 -0.1093
 2798W        W21002   0.019   1.716   0.621 -0.1759 -0.1717  0.0232
 2799W        W21003   8.996   2.748  11.334 -0.0132  0.2118 -0.1074
 2800W        W21004   3.395   1.399   5.178 -0.3472  0.0544  0.0666
 2801W        W21005   6.162   1.853  14.061  0.1227 -0.1837 -0.2109
 2802W        W21006   2.761  11.072   2.225  0.0222  0.1138  0.2879
 2803W        W21007  11.285  15.981   0.818  0.0629  0.1518  0.2627
 2804W        W21008  17.510  12.314  12.308  0.2753 -0.0582  0.1630
 2805W        W21009   9.242   3.187   3.762  0.0500  0.0542 -0.0673
 2806W        W21010  17.484   8.239  14.811 -0.1911  0.3059 -0.2720
 2807W        W21011   1.563   8.366   1.112 -0.4525  0.0971  0.0666
 2808W        W21012   7.479   8.784  16.033  0.0393 -0.1012 -0.1559
 2809W        W21013   5.788   6.361   4.968 -0.1355  0.0807 -0.2663
 2810W        W21014  11.742   5.943   4.131  0.0788 -0.2033  0.1193
 2811W        W21015  11.350   0.499  13.046  0.2628 -0.1369  0.1649
 2812W        W21016  14.808   5.568  15.963 -0.0180 -0.2132 -0.0877
 2813W        W21017   5.175   5.299   4.209 -0.0979 -0.1109 -0.0770
 2814W        W21018  14.884  17.416  14.797 -0.3998  0.0680 -0.0770
 2815W        W21019  14.911   4.613   4.140  0.0733  0.0495 -0.2118
 2816W        W21020   3.532  14.311   2.376 -0.0428  0.2317  0.0118
 2817W        W21021   8.606   4.101   5.126  0.0777  0.1409 -0.5082
 2818W        W21022  13.109   3.809   0.573  0.2712 -0.2676  0.2833
 2819W        W21023   5.173  11.586  15.269 -0.0862  0.5677 -0.2324
 2820W        W21024   9.377   4.703   4.324 -0.1300 -0.2281 -0.0207
 2821W        W21025   8.663   8.539   1.140 -0.1800 -0.0639  0.3900
 2822W        W21026   4.683  13.423   1.739 -0.1089 -0.1344  0.2481
 2823W        W21027   3.455  15.164   1.413 -0.1231  0.0523 -0.1171
 2824W        W21028  13.478   1.375  15.511  0.1734 -0.0361 -0.3345
 2825W        W21029  14.590   4.199   1.325 -0.1350 -0.0350 -0.1668
 2826W        W21030   5.715   1.117   5.704 -0.2446  0.1075 -0.2114
 2827W        W21031   9.176  14.108   2.795  0.1739 -0.3073 -0.0514
 2828W        W21032   0.560   9.793   4.635 -0.1471 -0.0431  0.2195
 2829W        W21033   9.583  12.001   0.699  0.2283  0.2199 -0.3585
 2830W        W21034   3.109  13.757   4.272  0.0908 -0.1528  0.1630
 2831W        W21035  13.784  16.219  11.599 -0.0466  0.1147 -0.1769
 2832W        W21036  10.809   0.172  13.596  0.1034  0.0509 -0.0517
 2833W        W21037   2.921  11.391   0.737  0.1019  0.0794  0.0092
 2834W        W21038  14.952   1.148  14.022  0.1059  0.0698 -0.1426
 2835W        W21039   8.085   1.530  13.619 -0.1725 -0.1492  0.1195
 2836W        W21040   3.440   0.892  11.579 -0.0030  0.0996  0.1776
 2837W        W21041   0.561  13.220  13.165  0.1141 -0.0822 -0.1731
 2838W        W21042   5.461  14.458   4.805  0.1049  0.1199 -0.0967
 2839W        W21043  17.018  12.247   4.638  0.0599 -0.0692  0.0580
 2840W        W21044   9.792   0.937   0.698 -0.0874  0.2400 -0.0245
 2841W        W21045   5.016   8.602  12.156  0.1530  0.1002  0.0512
 2842W        W21046   1.422   7.462   0.576  0.1263 -0.0035 -0.1318
 2843W        W21047   1.630  10.856  13.848  0.0741 -0.0021  0.2779
 2844W        W21048  13.924   5.010   0.600 -0.1758 -0.3613 -0.0282
 2845W        W21049  15.997  14.436   4.437 -0.4981  0.0543  0.0326
 2846W        W21050  16.048   1.649   1.908 -0.0192 -0.0067  0.3022
 2847W        W21051  17.183  16.109   1.627 -0.2990  0.1121  0.0818
 2848W        W21052  13.637   4.163   0.442 -0.0042  0.1242 -0.1734
 2849W        W21053  12.679  16.628  11.660  0.1698  0.3913  0.1877
 2850W        W21054   9.736  13.426   4.953 -0.2785  0.2106  0.1666
 2851W        W21055  14.335   2.945  15.139 -0.1504 -0.2106 -0.0246
 2852W        W21056   1.366   1.915  13.318  0.1901  0.1338 -0.2255
 2853W        W21057  11.802   8.034   0.385 -0.4369  0.0566  0.0728
 2854W        W21058   6.189   1.324   3.092 -0.0961 -0.1142 -0.2340
 2855W        W21059   5.908   9.915   5.246  0.2395 -0.2191  0.2679
 2856W        W21060  16.380   2.742   1.668  0.1229  0.1542 -0.0862
 2857W        W21061   7.857   4.022  14.607 -0.3049 -0.0741 -0.1967
 2858W        W21062  11.921   6.198  13.652 -0.0120  0.0589 -0.5501
 2859W        W21063  17.217   7.017  12.006  0.0705  0.0088  0.2149
 2860W        W21064   5.481  12.498   4.648 -0.2027 -0.0997  0.0090
 2861W        W21065   1.692  10.669   3.985 -0.0626  0.0789  0.0913
 2862W        W21066  17.839   0.621  15.460  0.0001  0.0227  0.1293
 2863W        W21067   3.777   7.931   1.571 -0.0129  0.0173  0.0647
 2864W        W21068   3.170   4.202  12.704 -0.0412 -0.2417 -0.0628
 2865W        W21069  13.776  12.788   0.541 -0.1178  0.1044 -0.3111
 2866W        W21070   9.646  12.132  12.285  0.0845 -0.3527  0.0338
 2867W        W21071  14.326  15.814   4.401  0.0877  0.0309  0.2452
 2868W        W21072   5.129   4.716  15.640 -0.0821  0.0121  0.2821
 2869W        W21073  15.842   0.653  15.029  0.0930 -0.1107  0.0289
 2870W        W21074  10.181  12.228   4.637 -0.0700 -0.0423  0.0469
 2871W        W21075   3.404  10.309   4.490 -0.0253  0.0768  0.2611
 2872W        W21076  16.786   8.596   1.361 -0.1315 -0.1874  0.3034
 2873W        W21077   6.438   6.801  15.272 -0.1144 -0.0853  0.0833
 2874W        W21078  17.550   2.850   2.319 -0.2251  0.1781 -0.1137
 2875W        W21079   1.420   0.244   4.399 -0.1038 -0.1414  0.0261
 2876W        W21080   5.282   5.602  11.518  0.0219 -0.3510  0.1545
 2877W        W21081  10.633   5.123  15.241  0.2815 -0.2661 -0.2765
 2878W        W21082  12.617   8.062   4.422  0.2207 -0.1056  0.4723
 2879W        W21083  13.650   4.775  12.304 -0.0680  0.0221 -0.0481
 2880W        W21084  11.514   8.883   0.498  0.3773 -0.0530 -0.1645
 2881W        W21085   1.856  11.316   2.019 -0.1730 -0.4125  0.1318
 2882W        W21086  15.076   3.845   3.731 -0.1491  0.0707 -0.4281
 2883W        W21087  14.232  17.961   3.471  0.4817  0.1746 -0.1304
 2884W        W21088   4.499   3.244   2.029 -0.0521 -0.0952 -0.2065
 2885W        W21089   2.781   7.951   3.623  0.0361  0.0095 -0.1515
 2886W        W21090   4.185   2.331  12.758  0.0627 -0.1327 -0.0866
 2887W        W21091  17.346  12.562  14.325  0.0928  0.0071 -0.2633
 2888W        W21092  16.574   5.302   0.931  0.2195 -0.3291  0.2553
 2889W        W21093   7.900   1.382  15.280  0.0609 -0.1500  0.2253
 2890W        W21094  13.696  11.550   1.172 -0.1551 -0.1968  0.1767
 2891W        W21095   5.480   9.150   4.990  0.1205  0.0346 -0.0315
 2892W        W21096   0.365   4.885   3.854  0.1965  0.0974  0.2063
 2893W        W21097   6.658  16.163  11.365 -0.0133 -0.2386  0.0841
 2894W        W21098   7.260  17.098  14.506  0.1495  0.0383  0.4317
 2895W        W21099  12.033   4.815   2.361 -0.0343 -0.2516  0.3086
 2896W        W21100  14.928   7.109   4.479 -0.2554 -0.1854  0.2367
 2897W        W21101  12.759  14.675  13.147  0.2443  0.0872  0.1114
 2898W        W21102  10.994   6.982  15.191 -0.0870  0.0035 -0.1651
 2899W        W21103   9.547   8.226   2.500  0.3744  0.2157  0.1052
 2900W        W21104  12.430  11.733   1.658  0.1671  0.0843  0.0860
 2901W        W21105  17.512   7.988   4.280  0.3268 -0.1206  0.0919
 2902W        W21106  15.457   8.520  12.739 -0.0636  0.0951 -0.3271
 2903W        W21107  16.250  13.821  14.192 -0.0729  0.1899 -0.2195
 2904W        W21108  13.718   6.823  13.032  0.1452 -0.0279  0.1418
 2905W        W21109  10.834   3.924  15.707  0.0517  0.2578 -0.1093
 2906W        W21110  16.772  15.999   0.822  0.1556  0.2228  0.1294
 2907W        W21111  15.425   1.132  12.824  0.0391  0.1478 -0.0456
 2908W        W21112  11.388  13.616   1.155 -0.0120 -0.4123 -0.2855
 2909W        W21113  17.177  11.822  11.418 -0.0560  0.2039  0.0280
 2910W        W21114   2.655   0.149  11.258 -0.1659 -0.1271  0.1654
 2911W        W21115   4.865   4.472  13.347  0.4072 -0.3379  0.1858
 2912W        W21116  14.222  14.497  15.994  0.2867 -0.0628  0.1099
 2913W        W21117  13.153   4.272   3.985 -0.2466 -0.0058 -0.1284
 2914W        W21118   5.296   7.614   1.751  0.0159  0.2661  0.2245
 2915W        W21119   4.471  11.957   1.074 -0.0130  0.1608  0.1559
 2916W        W21120  14.654  13.800  15.412  0.4822  0.0241  0.0154
 2917W        W21121  10.661   9.984   3.204 -0.1930  0.3378 -0.0961
 2918W        W21122   5.019  11.310  14.851  0.1834 -0.0402  0.0940
 2919W        W21123   9.893   0.322   2.492  0.1896 -0.2092  0.0063
 2920W        W21124  12.193   4.360   3.681  0.0732  0.2721  0.1460
 2921W        W21125   0.568   6.813  12.302  0.3005 -0.1814  0.1764
 2922W        W21126   6.026  11.647  15.116  0.4359 -0.0544 -0.0213
 2923W        W21127   6.496   9.274   0.176 -0.1322  0.0567 -0.1183
 2924W        W21128  10.980  15.799   1.586 -0.1030 -0.0767 -0.3235
 2925W        W21129  12.338   6.718   3.314 -0.0669  0.3252  0.1821
 2926W        W21130   4.678   0.242   0.764 -0.0121  0.2018  0.4378
 2927W        W21131   9.352  17.234  11.890  0.1171  0.1925 -0.1948
 2928W        W21132  11.682   8.145  15.093  0.1376 -0.1115 -0.0401
 2929W        W21133  14.316   0.802   3.282  0.1859 -0.0967 -0.1214
 2930W        W21134   2.302   1.230  14.963 -0.1002 -0.1197 -0.2103
 2931W        W21135   3.097   9.425   4.651 -0.1010  0.3125 -0.0063
 2932W        W21136  14.981   3.451  12.106  0.0098 -0.1175 -0.1176
 2933W        W21137  14.381  14.254  11.274 -0.1402  0.1801  0.1149
 2934W        W21138  12.225   8.303   0.385  0.0581 -0.0011  0.0857
 2935W        W21139  15.426   6.442   0.482 -0.1888  0.0807  0.0406
 2936W        W21140   4.022  16.123  13.414  0.0331  0.0468 -0.2393
 2937W        W21141   3.719  11.295  12.756 -0.0715  0.1737 -0.1017
 2938W        W21142  17.411   1.441  15.740 -0.1160  0.0702  0.0570
 2939W        W21143  17.878   2.847  12.476 -0.2005  0.1397  0.1236
 2940W        W21144   6.595  10.169   2.998  0.1579  0.2024  0.4286
 2941W        W21145  16.029   1.296  11.885  0.0437 -0.2233 -0.1240
 2942W        W21146   2.069  16.389   3.752  0.3272 -0.1559 -0.1285
 2943W        W21147  11.688  10.871  14.991  0.1125 -0.2768 -0.3080
 2944W        W21148   4.299  13.026  13.238  0.4236 -0.3915 -0.2315
 2945W        W21149   8.335   6.361   2.164  0.1366  0.0532 -0.2074
 2946W        W21150   8.101   5.035   1.640 -0.0870  0.1647  0.0483
 2947W        W21151   7.180  17.383   0.348  0.0027 -0.3270  0.1004
 2948W        W21152   1.757   1.401  15.508  0.2148 -0.0986  0.1547
 2949W        W21153   0.441  13.038   1.027  0.2318 -0.2380 -0.0935
 2950W        W21154   2.493  11.103   4.023  0.1453  0.0576  0.0214
 2951W        W21155   3.039   4.753  14.732  0.1198 -0.0813 -0.0197
 2952W        W21156  16.802  11.803   0.673  0.0449 -0.0041  0.3677
 2953W        W21157   5.317   9.835   2.401  0.0581 -0.4058 -0.1273
 2954W        W21158  17.382   7.578  13.950  0.1462  0.0630 -0.0621
 2955W        W21159  16.263  16.703  11.300 -0.1850  0.1913 -0.2104
 2956W        W21160   8.077   3.455   3.142  0.3118 -0.0838 -0.0569
 2957W        W21161   1.637  13.549   3.254  0.0563 -0.0329  0.3564
 2958W        W21162  14.942  10.599   1.011  0.2400 -0.2381 -0.0725
 2959W        W21163  17.043  15.170  13.955  0.1265  0.0084  0.0693
 2960W        W21164   6.668   1.637  14.515  0.0467  0.1812 -0.0090
 2961W        W21165   3.309  10.058  14.039 -0.0526  0.1476  0.4455
 2962W        W21166   2.916  13.550   3.708 -0.0408 -0.0273  0.0933
 2963W        W21167  13.281  15.422  14.086  0.0685  0.2465  0.0994
 2964W        W21168  15.792   7.535  15.034 -0.0227  0.0368 -0.0322
 2965W        W21169  16.790   1.212  14.658  0.0258 -0.1377  0.2466
 2966W        W21170   8.406  16.029  11.776 -0.2762  0.1172 -0.2599
 2967W        W21171   7.679  16.776   2.118 -0.2473  0.3142  0.0785
 2968W        W21172   4.402  17.707   5.427 -0.1348  0.0503  0.1000
 2969W        W21173   6.380   0.771  11.782  0.0362  0.4978  0.1891
 2970W        W21174   1.091  11.465   0.998  0.1396  0.0247  0.3406
 2971W        W21175  14.374  12.721   3.908  0.3983  0.2968 -0.0455
 2972W        W21176  11.031   3.657  16.154 -0.2751 -0.1517 -0.3762
 2973W        W21177  13.395   1.916   3.224 -0.1125  0.2281 -0.0312
 2974W        W21178   2.350   3.589   0.634  0.1243  0.2136 -0.2022
 2975W        W21179   7.641   3.949  15.962 -0.0024  0.1418 -0.1321
 2976W        W21180  10.892  17.735   3.068 -0.1015 -0.0772 -0.1435
 2977W        W21181   9.922   9.755   0.260 -0.2466 -0.2642  0.0255
 2978W        W21182  15.506  17.067   1.804 -0.0795 -0.1175 -0.3585
 2979W        W21183   0.705   0.665   3.833  0.1197 -0.1970 -0.3140
 2980W        W21184  16.540   0.555  13.243  0.4461  0.1954 -0.6106
 2981W        W21185  10.680  15.800  15.584  0.0975  0.0503  0.2448
 2982W        W21186   7.361   5.881   3.280 -0.0281 -0.2300 -0.2587
 2983W        W21187  16.534  14.027   0.431 -0.1263 -0.1071  0.0714
 2984W        W21188   3.915   0.849   4.525 -0.3017  0.1499 -0.5374
 2985W        W21189  12.842   2.603   4.191 -0.1023 -0.3017  0.0724
 2986W        W21190  13.966   5.592   4.214 -0.0537 -0.0962 -0.2458
 2987W        W21191   1.434   0.820  12.024 -0.0505 -0.1582 -0.4219
 2988W        W21192   3.595   8.390   3.138  0.0012 -0.0693 -0.0168
 2989W        W21193  11.632  13.142  15.661  0.0815 -0.2783  0.1056
 2990W        W21194   0.149  12.753   3.866  0.1232 -0.4945  0.3687
 2991W        W21195   9.901  16.276  13.312 -0.3785  0.0625 -0.0203
 2992W        W21196   5.053   0.631   4.792  0.1515  0.1055 -0.0587
 2993W        W21197  10.376  14.748   4.024  0.3726 -0.1266 -0.0130
 2994W        W21198   9.491   0.302   9.975  0.1267  0.0160 -0.0929
 2995W        W21199  13.844   5.235   0.160  0.1718  0.3035 -0.2036
 2996W        W21200   6.685  11.857   1.015  0.1451 -0.2322  0.0597
 2997W        W21201  12.865   7.117   2.506  0.0108  0.0352  0.1691
 2998W        W21202   9.300  17.436   3.306 -0.0471  0.3174 -0.1001
 2999W        W21203  15.778  13.303   1.636  0.0014  0.2899 -0.1539
 3000W        W21204  16.786   7.407   2.150 -0.1403 -0.0993 -0.0888
 3001W        W21205   4.856  15.697   4.880 -0.1671 -0.0715 -0.1030
 3002W        W21206  14.523   3.250  12.351  0.3945  0.1102  0.0132
 3003W        W21207   8.349  13.167   4.576  0.1071  0.0546  0.1525
 3004W        W21208   5.245  10.091   4.556 -0.1518 -0.2528  0.0732
 3005W        W21209  10.958  16.436   9.908  0.1535  0.0975 -0.1242
 3006W        W21210  13.374  17.335  12.259 -0.1821  0.0119 -0.0834
 3007W        W21211  15.079  15.887   0.620 -0.2449  0.0919 -0.2597
 3008W        W21212  11.832   0.057   0.605  0.2144 -0.1961 -0.1585
 3009W        W21213  14.615  14.015  12.464 -0.0732  0.1697 -0.1694
 3010W        W21214  10.439   0.631  11.827  0.1109 -0.3481  0.0496
 3011W        W21215  14.647  14.540  13.355  0.1444  0.1974  0.0745
 3012W        W21216  13.256   4.256  15.165  0.3347  0.1849  0.0110
 3013W        W21217   4.221   4.321   3.810 -0.2790  0.5337 -0.1707
 3014W        W21218   8.981   0.516  13.941  0.0496 -0.1662 -0.0556
 3015W        W21219  17.493  13.619  12.457  0.0879 -0.1618  0.3616
 3016W        W21220  13.574   4.749   3.673 -0.0103 -0.2093  0.2945
 3017W        W21221   0.286   5.270  16.177 -0.0081 -0.3867 -0.0072
 3018W        W21222   6.997  14.716   2.232 -0.1207 -0.0554 -0.0906
 3019W        W21223   4.714  11.653   1.394  0.2965 -0.3004  0.2283
 3020W        W21224  10.009   3.075  10.759  0.0478  0.0595  0.0781
 3021W        W21225   0.026   1.462   2.469 -0.0366 -0.3355 -0.1820
 3022W        W21226   9.367   1.740  13.812  0.0837  0.0911  0.1612
 3023W        W21227   5.724  13.071  16.154  0.1378  0.2431  0.1034
 3024W        W21228  17.097   1.373  13.261  0.0969 -0.1925  0.0020
 3025W        W21229   8.077  17.533  13.481 -0.2347 -0.0098  0.1314
 3026W        W21230  17.450   1.752   0.775 -0.2690 -0.2140  0.1341
 3027W        W21231   0.320  11.428   0.971 -0.3548 -0.2893 -0.2082
 3028W        W21232   9.208   9.898  15.779  0.1755 -0.0892 -0.2836
 3029W        W21233  12.251  16.979   1.043 -0.0142 -0.2440  0.2733
 3030W        W21234   7.267   5.324  14.751  0.5136 -0.0270  0.1294
 3031W        W21235   5.370   0.487   1.426  0.1076  0.0502 -0.2899
 3032W        W21236   7.283  14.794   0.200 -0.1148 -0.0404 -0.0790
 3033W        W21237   8.949   8.634   3.702 -0.0468  0.0502  0.0959
 3034W        W21238  13.191   6.341  16.016 -0.1691  0.0367 -0.1507
 3035W        W21239   6.033  17.051   4.577 -0.2027  0.0827  0.0526
 3036W        W21240  13.211   2.308  15.420  0.0410 -0.0824  0.2424
 3037W        W21241  17.984   4.519  13.758  0.0012  0.2970 -0.1394
 3038W        W21242   5.533   0.812  13.961  0.0793 -0.3052 -0.0508
 3039W        W21243   6.054  12.833   1.061  0.0343 -0.1439 -0.6052
 3040W        W21244   2.754  17.234   2.339  0.1117  0.0244  0.1321
 3041W        W21245  16.490  11.329   0.735 -0.1012 -0.0924 -0.0296
 3042W        W21246   4.827   3.519  13.531 -0.1841  0.2624 -0.1110
 3043W        W21247   1.023  14.895   4.564 -0.0589  0.0856  0.1364
 3044W        W21248  13.120  15.374  13.527 -0.1871  0.2431  0.1940
 3045W        W21249   7.919   6.866   4.761  0.1787 -0.0247  0.1315
 3046W        W21250   4.199  14.166  14.221  0.0240 -0.1186  0.0247
 3047W        W21251  12.742   2.263   2.200  0.4648  0.4931 -0.1730
 3048W        W21252  17.377  12.394   2.844  0.2291 -0.4193  0.2150
 3049W        W21253  15.820   8.539   4.599  0.1790  0.0121  0.0303
 3050W        W21254   0.426  17.755  11.387  0.2578  0.1536  0.0171
 3051W        W21255   8.203  16.955  13.515 -0.1322 -0.0078 -0.1551
 3052W        W21256   6.037   7.313  12.086 -0.0066 -0.0676 -0.1087
 3053W        W21257  16.467   7.466  12.944 -0.0219 -0.0914  0.1507
 3054W        W21258   0.602  11.634   3.906 -0.3042  0.0437  0.0776
 3055W        W21259  17.453   7.340  13.057 -0.2845  0.1997 -0.2590
 3056W        W21260  17.203   6.983  15.882  0.4051  0.0468  0.0527
 3057W        W21261  14.598  14.504  12.572  0.0431  0.0146 -0.0390
 3058W        W21262   5.359   8.365   1.688  0.1279 -0.2621 -0.2267
 3059W        W21263  13.677   0.467   1.826  0.2194  0.4817  0.1199
 3060W        W21264  16.419   5.795   0.681  0.2127 -0.1900 -0.1851
 3061W        W21265   6.470  15.770   0.799 -0.1752 -0.0911 -0.3564
 3062W        W21266   3.825  14.445  13.322  0.0150 -0.0496  0.4621
 3063W        W21267  17.119   4.004   0.164 -0.0039  0.1622  0.1121
 3064W        W21268   5.757  12.133  13.897  0.2515  0.1405  0.0342
 3065W        W21269   0.305   1.597   4.198  0.0616 -0.0767  0.1156
 3066W        W21270   5.900  16.034   4.528  0.1759  0.0453 -0.0516
 3067W        W21271   8.725   1.040   2.848 -0.0531  0.5437 -0.0178
 3068W        W21272  12.811  17.520   1.007  0.3358  0.0591 -0.1359
 3069W        W21273   1.061  16.584  11.744 -0.0939  0.1331  0.0834
 3070W        W21274   0.432   8.371  11.143  0.1146 -0.1125 -0.0374
 3071W        W21275   3.672  14.072  12.969 -0.1735  0.2993  0.3662
 3072W        W21276  15.838   9.019  13.367 -0.1317 -0.0188  0.2453
 3073W        W21277   4.853   4.499  15.262  0.1206 -0.2030  0.1440
 3074W        W21278  16.013  13.635   1.235  0.4055  0.0792  0.1299
 3075W        W21279   4.003  10.223  13.556 -0.2185  0.2158  0.0092
 3076W        W21280  15.232   0.379  13.336  0.2050  0.0184 -0.2603
 3077W        W21281   1.344  12.517  13.278  0.1239 -0.2358 -0.1145
 3078W        W21282  10.856  13.416   4.274  0.2844  0.0377 -0.0679
 3079W        W21283   4.404   2.467   0.406  0.0794  0.2018 -0.0153
 3080W        W21284  16.054   6.634   5.253 -0.1371 -0.0011 -0.1665
 3081W        W21285   9.049   3.404   0.063  0.0619 -0.1535  0.2789
 3082W        W21286  17.638   8.130   1.599 -0.0233 -0.0866 -0.3243
 3083W        W21287   1.264  12.246  14.135 -0.0962  0.0895  0.1716
 3084W        W21288   3.447  12.293   0.010 -0.0058  0.1582 -0.2787
 3085W        W21289   2.428   2.016   3.216 -0.1914 -0.1005 -0.0196
 3086W        W21290  12.348   0.737   2.038  0.0365  0.2154 -0.1586
 3087W        W21291  16.584   9.262  12.934 -0.0270  0.1602 -0.3695
 3088W        W21292   7.982   1.666  12.801  0.0024  0.0094  0.0211
 3089W        W21293   6.723  17.005   3.244 -0.1242 -0.1583  0.2273
 3090W        W21294   5.236  15.794  11.871 -0.1447  0.0155 -0.0756
 3091W        W21295  11.015  11.482   1.958  0.2991  0.2463  0.0686
 3092W        W21296   2.145  10.664   3.242  0.0918  0.1525  0.2122
 3093W        W21297   1.881   9.643  11.427 -0.1290  0.4536  0.2196
 3094W        W21298   4.415   5.895   2.880  0.2560  0.0576  0.2909
 3095W        W21299   3.583   8.259  12.238 -0.0418 -0.0255  0.0831
 3096W        W21300  13.921  13.525  14.529  0.1657 -0.0294  0.1562
 3097W        W21301   0.044   0.336  11.290 -0.1870 -0.3090 -0.3258
 3098W        W21302  16.963  11.468   2.819  0.2602 -0.2377  0.3311
 3099W        W21303   4.005   2.955  15.267  0.0260 -0.0169  0.2499
 3100W        W21304   1.122   1.285   2.126 -0.1151  0.1944  0.1826
 3101W        W21305   7.162   9.720   2.371  0.0569 -0.2624  0.0622
 3102W        W21306  17.853   5.609  12.474 -0.0504 -0.1313 -0.0592
 3103W        W21307   3.646   8.432   2.592 -0.0153  0.0560  0.0545
 3104W        W21308  12.986   3.783  14.536 -0.1996 -0.3264  0.0723
 3105W        W21309  16.505  12.182  15.126  0.1073 -0.3741 -0.0677
 3106W        W21310  13.970   8.327  13.310 -0.1975 -0.0001 -0.0153
 3107W        W21311  12.349  14.832  11.341 -0.1461  0.0512 -0.1283
 3108W        W21312  14.346  16.459  13.196 -0.1509  0.1113 -0.1418
 3109W        W21313   6.813  12.621  15.070  0.1705  0.0092 -0.0852
 3110W        W21314  17.462   9.078   2.488  0.0284  0.0911 -0.0586
 3111W        W21315  12.186  14.619   4.781  0.2540 -0.0845 -0.0666
 3112W        W21316   2.222   4.208  13.503 -0.0260 -0.3706  0.0073
 3113W        W21317   3.816   5.663  11.188  0.1855  0.1367  0.0837
 3114W        W21318  13.173  10.302   0.732 -0.0913 -0.0326  0.0878
 3115W        W21319   4.793  12.775  15.770 -0.0050  0.5049  0.1428
 3116W        W21320   8.097   4.176   0.375  0.2399  0.1559 -0.1312
 3117W        W21321  11.841  17.918   1.891  0.4095 -0.0609  0.1557
 3118W        W21322  14.341   7.066  12.848 -0.2615 -0.2587 -0.0154
 3119W        W21323   5.454  14.285  12.636 -0.0917 -0.0431  0.0911
 3120W        W21324  14.318   7.554   4.059 -0.0400  0.3316  0.1512
 3121W        W21325   3.482  10.876   3.767 -0.0017 -0.0555  0.2083
 3122W        W21326   8.947   7.094  14.832  0.1111 -0.0088 -0.2693
 3123W        W21327  16.476  16.990  14.152 -0.0502 -0.0683  0.2752
 3124W        W21328  13.315   9.927  12.495  0.1390 -0.2122  0.1981
 3125W        W21329  15.247   6.199  10.874  0.4194 -0.1576 -0.2717
 3126W        W21330  13.642   0.328   0.574  0.0670 -0.2069 -0.1612
 3127W        W21331  14.951   5.128  15.274  0.1126 -0.2019 -0.2258
 3128W        W21332   1.984  15.925   2.972 -0.0889 -0.2186  0.2253
 3129W        W21333   7.762  10.188  11.976  0.0017 -0.1502 -0.2083
 3130W        W21334  14.806   4.956  11.747  0.0975  0.0130  0.0273
 3131W        W21335   9.709  13.780  13.212 -0.0479  0.0868  0.2583
 3132W        W21336  12.448   9.036   3.511  0.1821 -0.1662 -0.0345
 3133W        W21337  17.150  16.711  11.649  0.1975  0.1277 -0.0421
 3134W        W21338   1.556   5.280  16.031 -0.0774  0.0654  0.0144
 3135W        W21339   3.232   7.705  15.062 -0.1438 -0.1903 -0.0539
 3136W        W21340  17.004   2.381  11.029  0.0385  0.2557  0.2170
 3137W        W21341  10.902   8.154   4.436 -0.0387 -0.1522  0.3370
 3138W        W21342   0.772   7.042   3.011 -0.0418 -0.0163 -0.3921
 3139W        W21343  12.739   3.935   0.201  0.2265  0.1066  0.0130
 3140W        W21344  17.552  10.832   1.999 -0.3344 -0.1016 -0.1353
 3141W        W21345   2.456  14.636  14.167  0.1386 -0.1940 -0.0411
 3142W        W21346  11.631  14.433  12.383  0.1160  0.0437 -0.0780
 3143W        W21347   9.523   8.122   1.902 -0.2133 -0.0300 -0.3153
 3144W        W21348   5.554   3.288  12.305  0.2290 -0.0826 -0.0372
 3145W        W21349   3.323   6.775  14.876  0.0670  0.1230  0.0702
 3146W        W21350   6.480  16.774  15.528  0.1443  0.3049  0.0316
 3147W        W21351   7.298  14.121   3.720 -0.3923 -0.1361 -0.0857
 3148W        W21352  13.391  11.655  11.328 -0.1364  0.2105 -0.1258
 3149W        W21353   8.782   3.226  14.891  0.0720  0.0190  0.1585
 3150W        W21354   4.609  10.747  12.046  0.0974 -0.1477  0.0010
 3151W        W21355   4.044  16.039   1.568 -0.1836  0.1812 -0.1097
 3152W        W21356  16.260  15.766   1.878 -0.1225 -0.1972 -0.1549
 3153W        W21357  14.239  11.991   3.923 -0.1822  0.3516 -0.0026
 3154W        W21358   8.726   4.387   1.119  0.1847  0.1401 -0.2087
 3155W        W21359   4.065   2.176  11.265 -0.0050  0.4358 -0.0870
 3156W        W21360   1.736  15.144  15.846 -0.0412  0.0088  0.1416
 3157W        W21361  17.633  12.557  13.353 -0.3045  0.2108  0.1067
 3158W        W21362  17.372   5.786  14.759  0.2120 -0.1892 -0.1958
 3159W        W21363  17.638   6.125  14.938  0.1314  0.0623 -0.0044
 3160W        W21364  17.793   9.916  14.089 -0.2782  0.0152  0.0801
 3161W        W21365   9.739   0.735  15.833 -0.0815 -0.1406  0.0285
 3162W        W21366   3.200   1.897  14.602  0.2489 -0.1409  0.1580
 3163W        W21367   6.444   8.914  14.758  0.0503  0.1608  0.1090
 3164W        W21368  13.929   0.002   2.693  0.3659  0.1959  0.3858
 3165W        W21369   3.866  15.268   3.088 -0.0269  0.0270  0.2156
 3166W        W21370   6.740   8.876   1.894  0.0843  0.2130 -0.3019
 3167W        W21371   4.339   4.158  12.303 -0.1497  0.3178 -0.1089
 3168W        W21372  12.159  10.870  15.227 -0.0999 -0.0666 -0.0430
 3169W        W21373  17.433   0.751   4.869  0.0322  0.0953  0.2365
 3170W        W21374  17.947  12.592   2.320  0.3468  0.0764  0.2940
 3171W        W21375   8.871   2.316   0.643  0.0433  0.1222  0.1223
 3172W        W21376  17.564  12.299   4.956 -0.1702 -0.0890 -0.3159
 3173W        W21377   6.070  16.542   4.867 -0.1019 -0.2320 -0.0355
 3174W        W21378  12.021   6.432   3.042 -0.0684 -0.1412 -0.0347
 3175W        W21379  13.475  16.137  14.251  0.0307  0.0363  0.1953
 3176W        W21380   5.479  12.345   3.394  0.1216 -0.0360  0.1803
 3177W        W21381  13.453   0.528   1.281  0.4460 -0.1933 -0.3710
 3178W        W21382   5.913   8.406   5.251 -0.0860 -0.0408  0.0116
 3179W        W21383   9.911  17.776   1.350  0.1041  0.4522 -0.0835
 3180W        W21384   3.877  13.459  12.401  0.0544 -0.0993 -0.0003
 3181W        W21385   0.208   7.900   0.207 -0.1289  0.1541 -0.1942
 3182W        W21386   8.659  15.064  15.139 -0.2024  0.2248 -0.1079
 3183W        W21387  11.009   1.295  14.012  0.1362  0.0436  0.0396
 3184W        W21388  10.930   5.114   2.211 -0.0925 -0.0251 -0.0283
 3185W        W21389   9.946   5.394  13.053  0.0717  0.1501 -0.0922
 3186W        W21390  14.303  10.023  10.547 -0.0339  0.1171  0.1470
 3187W        W21391   4.867  17.370  12.602 -0.1308 -0.0426  0.2888
 3188W        W21392   3.860  13.940  14.572 -0.0123  0.1956  0.3684
 3189W        W21393  11.073  16.458  12.594  0.0909  0.0064  0.5443
 3190W        W21394   6.642   6.495  13.511 -0.0320 -0.0804 -0.1953
 3191W        W21395  17.697   2.168   4.062  0.0979 -0.0059  0.1750
 3192W        W21396   1.388   0.333  14.280  0.1324  0.4041  0.1776
 3193W        W21397  18.015  16.023  14.943  0.2377 -0.0107 -0.0663
 3194W        W21398   6.341   4.473   1.650  0.0156 -0.2665  0.0934
 3195W        W21399   7.745   8.065   2.475 -0.0767 -0.3042  0.0593
 3196W        W21400  16.350  10.399   3.707  0.2893  0.3346  0.3486
 3197W        W21401   2.228  17.995   0.142  0.2506  0.1531 -0.1110
 3198W        W21402  17.564   3.236  12.666  0.0076  0.1600 -0.0092
 3199W        W21403  15.657  17.032  13.413 -0.1180 -0.0677 -0.0656
 3200W        W21404   5.795  10.320   5.472  0.3422  0.0299 -0.0936
 3201W        W21405   8.334  10.605  11.511 -0.0816  0.2114  0.0043
 3202W        W21406  11.754  15.293  16.067 -0.2837 -0.0972  0.0916
 3203W        W21407   2.455   5.750   2.515 -0.1199  0.2874 -0.0462
 3204W        W21408  14.901  12.205  16.176 -0.0937 -0.2361 -0.0018
 3205W        W21409   2.169   7.583   1.847 -0.1930 -0.1879 -0.1831
 3206W        W21410   1.026  10.748  13.823  0.2035 -0.3357 -0.1212
 3207W        W21411   9.485  10.794   1.779 -0.2163 -0.3029  0.1962
 3208W        W21412  14.501   2.266  15.676 -0.0704  0.0018  0.2595
 3209W        W21413   4.018   8.806   1.792 -0.2833  0.1048  0.3044
 3210W        W21414  10.818  13.752  14.293 -0.1414  0.5372  0.2584
 3211W        W21415  16.900   2.339   0.910  0.2056 -0.1603 -0.0486
 3212W        W21416  14.437   6.173   2.675  0.4400 -0.2114  0.0175
 3213W        W21417   4.114  13.416   4.120 -0.0006  0.0331 -0.1472
 3214W        W21418  15.773  16.934  11.949  0.2061  0.0605  0.2411
 3215W        W21419   4.355   9.771   1.455 -0.0081  0.3630 -0.2786
 3216W        W21420   0.631   4.592   1.870 -0.0593  0.0307 -0.1752
 3217W        W21421   9.923   2.094   4.681  0.0551  0.2831 -0.3042
 3218W        W21422   6.227   0.545   0.332  0.0278 -0.1310  0.2227
 3219W        W21423   4.210   7.354   1.201 -0.1517 -0.0601  0.0459
 3220W        W21424   4.797   6.818  12.192 -0.2864  0.1289  0.0552
 3221W        W21425  11.342  17.850   3.760 -0.0129  0.0897  0.0380
 3222W        W21426   3.687   9.423   4.578 -0.0593 -0.0341  0.2637
 3223W        W21427   2.096  17.906   3.305  0.1278  0.1491  0.2524
 3224W        W21428   5.483   1.820   0.527  0.0195  0.1427  0.0786
 3225W        W21429  12.045  17.196  12.852  0.0243 -0.0283 -0.2702
 3226W        W21430  12.670   3.984  15.142 -0.1901 -0.1260 -0.1313
 3227W        W21431  16.026  12.145  14.804 -0.2237  0.0369  0.1085
 3228W        W21432   2.683   4.219  10.380 -0.0858  0.1324  0.1907
 3229W        W21433   7.659   5.209  15.659  0.0157 -0.0110  0.0109
 3230W        W21434   3.713  11.681  15.394  0.0467 -0.3051  0.1157
 3231W        W21435  13.812  15.481  15.946 -0.0624 -0.0117 -0.3929
 3232W        W21436  13.480  13.547   2.510 -0.0925  0.1588 -0.0738
 3233W        W21437  11.028   4.236   5.174  0.2765 -0.2628 -0.0557
 3234W        W21438   4.592   9.942   4.771  0.0316 -0.0938 -0.3563
 3235W        W21439   6.110   3.280   0.421  0.2809  0.2941 -0.1101
 3236W        W21440   9.470  17.236  14.951  0.1923  0.1081 -0.1543
 3237W        W21441  17.408  14.489  13.660  0.1545 -0.0764  0.3677
 3238W        W21442   2.354   2.674  15.728 -0.0925  0.1489 -0.0043
 3239W        W21443   4.892   9.932  15.255  0.2571  0.1450  0.1430
 3240W        W21444   0.437  10.349  15.199  0.0921 -0.2085 -0.1383
 3241W        W21445   3.442  10.328   2.868 -0.0434 -0.2869  0.0173
 3242W        W21446  11.305   3.826   1.586  0.1833 -0.0319  0.0332
 3243W        W21447   7.603   1.955  11.507 -0.1407  0.1041  0.0729
 3244W        W21448  12.063  17.801   3.985 -0.0011  0.0232  0.0506
 3245W        W21449   8.079   5.949   1.964 -0.3116 -0.1161  0.2754
 3246W        W21450  15.725  17.514  14.688 -0.0718 -0.2533  0.0107
 3247W        W21451   9.409   8.938  14.735  0.2565  0.2736  0.1757
 3248W        W21452  11.662  10.174   0.479 -0.1925 -0.0251  0.2772
 3249W        W21453  13.016   2.132  14.363  0.1077  0.0478 -0.2506
 3250W        W21454   9.643   0.765   2.455 -0.0665  0.0765 -0.1508
 3251W        W21455  13.655  14.688  14.551 -0.1304 -0.0605 -0.1882
 3252W        W21456   0.285   0.565  15.461 -0.0956  0.1526 -0.2742
 3253W        W21457   3.659   1.297   4.634  0.0874  0.0607  0.4324
 3254W        W21458   4.891   6.272   2.121 -0.0188  0.2125  0.1624
 3255W        W21459   5.163   5.877  15.037  0.0675  0.0852 -0.0330
 3256W        W21460   1.349   7.915  12.685  0.1682  0.1318  0.0998
 3257W        W21461  14.937   4.874  12.251 -0.0318 -0.2239 -0.1621
 3258W        W21462   5.287  12.048   4.591  0.1073 -0.1815 -0.3115
 3259W        W21463  10.719   9.092   4.308  0.2512 -0.1581 -0.0020
 3260W        W21464   7.613   3.881  13.297 -0.1770 -0.0650  0.0593
 3261W        W21465   0.865   0.552  11.704 -0.0169  0.2133 -0.2732
 3262W        W21466   9.466   9.804   1.395  0.0085  0.0332  0.2998
 3263W        W21467  12.490   1.518   0.707 -0.0808  0.1101  0.0372
 3264W        W21468  10.401   1.021   1.396  0.1587 -0.2441 -0.0978
 3265W        W21469  17.277   3.745  12.146  0.0722  0.2882  0.0657
 3266W        W21470  14.368   1.651   4.878 -0.2117  0.1367  0.0188
 3267W        W21471   8.832  15.170  12.304  0.0637 -0.1138 -0.2186
 3268W        W21472  10.117  17.536   5.143 -0.0580 -0.1651 -0.1315
 3269W        W21473   6.417  14.606  15.806  0.1361  0.1416 -0.1974
 3270W        W21474  12.251   7.829   2.977 -0.0983  0.0102 -0.0452
 3271W        W21475  14.234  10.937  15.522 -0.2298 -0.1529  0.0961
 3272W        W21476  16.345  13.242  13.856 -0.2541 -0.2345  0.0561
 3273W        W21477   5.203   3.261  11.928  0.4887 -0.1535  0.0226
 3274W        W21478   5.936  14.049  12.684 -0.1023 -0.4484  0.2529
 3275W        W21479   9.905   1.379   4.237  0.2251  0.3062 -0.0052
 3276W        W21480  11.195  16.765   1.656 -0.2208  0.0238 -0.1087
 3277W        W21481   1.961   8.132   1.526 -0.3499 -0.2459  0.2599
 3278W        W21482  11.733   1.582  12.670 -0.0483  0.3430 -0.2383
 3279W        W21483   4.918  13.303  15.975 -0.0116  0.1902 -0.0969
 3280W        W21484  12.440   3.435   0.224  0.0849  0.0808 -0.1702
 3281W        W21485  16.801   6.499  15.314  0.2818 -0.2325 -0.0911
 3282W        W21486  13.081   4.713   3.710  0.0637 -0.3864  0.3107
 3283W        W21487  17.169  15.006  15.690 -0.1441  0.3415  0.2459
 3284W        W21488   0.412  10.263  14.419 -0.1982 -0.0227 -0.1517
 3285W        W21489   0.215   2.201   0.634  0.0471  0.0118  0.1084
 3286W        W21490   5.361   6.970   1.772 -0.1499 -0.0096  0.0167
 3287W        W21491  14.989   2.296   2.048  0.0632 -0.0611 -0.0647
 3288W        W21492   5.408   5.191   2.851  0.4947  0.1285  0.2745
 3289W        W21493  16.022   9.469   3.376  0.1353  0.2121 -0.0919
 3290W        W21494  17.248  14.489  15.509  0.1983 -0.1958  0.0631
 3291W        W21495   8.477  14.121   5.359 -0.3150 -0.0582  0.1537
 3292W        W21496  10.296   4.836  12.250 -0.0867  0.0860 -0.3189
 3293W        W21497   8.145   9.576   4.371  0.1612  0.1086  0.0376
 3294W        W21498   6.349  11.092  13.960  0.0397 -0.0608  0.1428
 3295W        W21499   4.434  15.487  13.061 -0.0813 -0.5111 -0.3016
 3296W        W21500   8.725   2.097  15.486  0.1814  0.0930  0.0511
 3297W        W21501   9.625  12.438  11.773  0.3035 -0.1045 -0.0773
 3298W        W21502  11.443  14.756   3.821  0.5752  0.4265 -0.0381
 3299W        W21503  10.538   4.964   5.041  0.0945 -0.4039 -0.1811
 3300W        W21504  14.587  17.574  12.559  0.0870  0.5685 -0.2468
 3301W        W21505  11.976  12.303   0.530 -0.0663  0.0073 -0.3198
 3302W        W21506  11.745   6.253   5.435  0.0308 -0.0877  0.1158
 3303W        W21507  10.762   2.345   1.624  0.0408  0.0632 -0.2467
 3304W        W21508  17.055  10.641  12.645 -0.0154 -0.2739 -0.3298
 3305W        W21509  17.592   4.611   2.690 -0.1362  0.0215 -0.0059
 3306W        W21510   2.799   4.158   3.065  0.1017 -0.1323 -0.0389
 3307W        W21511  17.188   8.735  15.511 -0.1420  0.0075  0.1672
 3308W        W21512   3.490   3.914  15.606  0.1923 -0.0291 -0.0415
 3309W        W21513  13.184  13.570  13.730  0.0359 -0.1222 -0.1750
 3310W        W21514  11.610  10.023  15.121  0.1515  0.1913 -0.1666
 3311W        W21515   2.389  12.374   2.271  0.0674  0.4832  0.1475
 3312W        W21516   6.736  13.758  11.973 -0.0917  0.0752 -0.0131
 3313W        W21517   2.589  17.304   2.791  0.2243 -0.1308 -0.2428
 3314W        W21518  16.411   2.490  15.922 -0.2510  0.2072  0.3668
 3315W        W21519   0.958   7.383   2.586  0.0224 -0.0208 -0.3127
 3316W        W21520  16.968  14.021   1.858 -0.1131 -0.2613  0.2359
 3317W        W21521  11.593  13.550  14.648 -0.1078 -0.3386 -0.0047
 3318W        W21522  15.264   0.807   3.430 -0.3304 -0.0019  0.1763
 3319W        W21523   8.808   6.985  13.316 -0.0567 -0.1649 -0.0923
 3320W        W21524  17.346   8.912  15.975  0.1282  0.0839  0.2213
 3321W        W21525   9.661  14.382   3.453 -0.1760 -0.3121  0.1122
 3322W        W21526   6.408  15.241  14.914 -0.0225 -0.0447  0.0347
 3323W        W21527   9.649  13.818   2.737  0.0086 -0.0543 -0.1700
 3324W        W21528   2.368   1.923   3.901  0.2668 -0.4034  0.1963
 3325W        W21529  15.603   9.148   0.470  0.0956 -0.2635 -0.3363
 3326W        W21530  11.737  14.109   0.919  0.2348 -0.1654  0.0834
 3327W        W21531   5.412  14.167  15.838  0.2531 -0.2466 -0.1800
 3328W        W21532   7.567  14.364   2.838  0.0419 -0.2071  0.0777
 3329W        W21533   9.294   6.508   0.241 -0.0727 -0.0755  0.1103
 3330W        W21534   1.861  15.401   2.070  0.0905 -0.0595  0.0280
 3331W        W21535   7.753  12.645   1.081  0.3064  0.2354 -0.0091
 3332W        W21536  15.993  10.275  16.066 -0.0521  0.1618  0.3583
 3333W        W21537  14.738   4.771  14.303 -0.1106  0.1139 -0.0674
 3334W        W21538   2.294   0.072  13.705 -0.1001 -0.0980 -0.1007
 3335W        W21539   5.184   0.547   1.910  0.0400  0.1975  0.0837
 3336W        W21540  17.985   1.344  13.053  0.0964 -0.1507  0.0067
 3337W        W21541  15.619  17.166  13.865  0.2060 -0.1498 -0.0322
 3338W        W21542   6.402  15.312   3.353  0.1217  0.1181 -0.3717
 3339W        W21543  14.026   5.858   1.768  0.0817 -0.0322 -0.0475
 3340W        W21544   3.284  14.687  14.391 -0.0306 -0.0916  0.1252
 3341W        W21545  14.941  17.205  14.253  0.3414 -0.0144 -0.0236
 3342W        W21546   3.319   7.990  12.584  0.2217 -0.0135 -0.0840
 3343W        W21547  16.657  16.704  12.921  0.0717  0.1297  0.2450
 3344W        W21548   7.512  15.880  11.521 -0.2000 -0.2129  0.2275
 3345W        W21549  14.169   2.010  15.291  0.1826  0.0358  0.0899
 3346W        W21550   1.496   8.909  13.443 -0.0733 -0.1037 -0.0727
 3347W        W21551   4.315   5.999  15.662  0.2313  0.1562  0.1118
 3348W        W21552  15.009   8.171   2.070 -0.0161  0.0517 -0.2031
 3349W        W21553   8.147   2.076   4.351  0.1479  0.0177 -0.1228
 3350W        W21554  11.921  13.192  12.843  0.0439  0.0635 -0.0543
 3351W        W21555  12.055  15.720  14.599  0.2290 -0.1205  0.0059
 3352W        W21556   4.125   0.825  12.784  0.0619 -0.0105  0.0532
 3353W        W21557   4.099   3.295   0.550  0.0488 -0.0775 -0.0123
 3354W        W21558   2.611   1.396  15.291  0.2323 -0.0885  0.0843
 3355W        W21559   6.093  10.264   1.271 -0.2001 -0.1735  0.3572
 3356W        W21560  12.212   8.821  14.472 -0.2028  0.0282 -0.0104
 3357W        W21561  16.717   9.858  14.117  0.1989 -0.0341 -0.2267
 3358W        W21562  12.755  13.714  11.771 -0.0489  0.1300  0.1815
 3359W        W21563   6.934   9.925   0.924 -0.0172  0.0412 -0.0758
 3360W        W21564   1.258  16.967  12.903  0.0351 -0.1679  0.1484
 3361W        W21565  11.774   2.743   4.636 -0.1581 -0.1235  0.1001
 3362W        W21566  13.472   7.416  12.437  0.0690  0.0675  0.1128
 3363W        W21567   1.086   2.491  12.917 -0.1320  0.3464 -0.1407
 3364W        W21568  11.931   5.054  14.973 -0.5525  0.1510 -0.0798
 3365W        W21569   1.734   3.186   1.639 -0.0326 -0.0002 -0.2114
 3366W        W21570   2.073   7.051   5.137 -0.2512  0.1481  0.4456
 3367W        W21571  15.889   2.192  14.676  0.3936  0.2537  0.1743
 3368W        W21572   3.611  12.543   0.975  0.3738  0.2817  0.2497
 3369W        W21573  15.498  12.433  13.232 -0.2150  0.1460  0.1081
 3370W        W21574  12.773  16.629  12.983 -0.1143 -0.0332 -0.0387
 3371W        W21575  15.708   5.328  12.124 -0.1806 -0.0070  0.1759
 3372W        W21576   5.369   6.402  13.492  0.0038 -0.2472  0.1348
 3373W        W21577  11.475   9.340   2.489  0.3351  0.1298  0.0586
 3374W        W21578  10.782   3.428  12.398  0.1355 -0.0211 -0.0196
 3375W        W21579   5.188  10.096  13.366  0.0098  0.0630 -0.0180
 3376W        W21580  10.400  11.448   2.186 -0.0567  0.0618  0.0118
 3377W        W21581  17.057   2.929  14.414 -0.1233  0.0205 -0.0638
 3378W        W21582  12.431   9.517  15.253  0.2756  0.1783 -0.1536
 3379W        W21583   1.096  17.904   2.999  0.0899 -0.0652 -0.0450
 3380W        W21584  11.109  15.641   2.685  0.2327  0.0154  0.3577
 3381W        W21585   3.754   7.272  13.175  0.1184  0.0325  0.0042
 3382W        W21586   1.386  17.770  10.815 -0.0466  0.0115  0.2138
 3383W        W21587   5.913  12.960   4.386  0.1026  0.0789 -0.0066
 3384W        W21588  12.646  16.552  14.316  0.0016  0.2734 -0.1070
 3385W        W21589  11.098  11.643   1.279 -0.0677  0.3360  0.0260
 3386W        W21590  17.621   5.351  14.120 -0.0230 -0.0218  0.0680
 3387W        W21591  12.056  13.332   3.757 -0.1153  0.0803  0.0896
 3388W        W21592   1.234   3.302  13.608  0.0102 -0.2317 -0.0022
 3389W        W21593   7.206   8.562  10.314  0.0362 -0.0537 -0.0726
 3390W        W21594   2.492   7.264  11.232 -0.0546  0.0892  0.0370
 3391W        W21595  14.889   2.972  12.693 -0.0057 -0.0371 -0.2153
 3392W        W21596   9.605   4.541   2.507 -0.0361  0.1489 -0.0950
 3393W        W21597  16.642   5.478  14.698 -0.2528 -0.1819 -0.1888
 3394W        W21598   3.285  14.075   1.508 -0.0414 -0.1644 -0.1437
 3395W        W21599  18.000   1.706  11.823  0.1291 -0.0019  0.1359
 3396W        W21600  15.561   1.217  15.896 -0.2321 -0.0168 -0.0185
 3397W        W21601   6.086   0.396  14.722 -0.0442  0.2668 -0.2994
 3398W        W21602   5.586   7.366   3.505  0.0970  0.0549 -0.0312
 3399W        W21603   2.681  15.414  13.834  0.1920 -0.2484 -0.1437
 3400W        W21604  14.384  14.085   4.392  0.2946  0.1361  0.1452
 3401W        W21605  17.853   5.479   1.727  0.1655  0.0700  0.1849
 3402W        W21606   5.687   7.081   0.110  0.2052  0.1902 -0.1825
 3403W        W21607   6.677   5.172  15.822 -0.1303 -0.0998 -0.1970
 3404W        W21608  11.731  15.386  10.806  0.1478  0.0145 -0.1227
 3405W        W21609   0.899   1.043  12.750  0.0204 -0.0345  0.0650
 3406W        W21610  15.430   0.499   0.798  0.0519  0.4855 -0.1550
 3407W        W21611   6.920   5.967   2.062  0.0842  0.0105  0.0410
 3408W        W21612  12.581   8.320   3.929 -0.2078  0.0858 -0.0164
 3409W        W21613  17.100   8.599  14.892  0.3190  0.0843  0.0506
 3410W        W21614   1.371   3.925   2.219  0.0637  0.1943 -0.0371
 3411W        W21615  13.925   0.533   1.020  0.0626  0.0147  0.0060
 3412W        W21616  12.532  17.058  13.118  0.3493  0.1849 -0.2199
 3413W        W21617  15.539   4.906   3.008  0.1132  0.0190  0.0994
 3414W        W21618  13.935   9.896   0.307  0.1593  0.3854 -0.0452
 3415W        W21619   9.617   5.856  13.116 -0.0572 -0.0829 -0.0172
 3416W        W21620   1.135   6.157  12.214  0.1067  0.0871 -0.2989
 3417W        W21621   3.355   7.169   5.638 -0.0480  0.2100  0.2245
 3418W        W21622   7.171   1.015   1.217 -0.2701 -0.1919 -0.0433
 3419W        W21623   4.438   1.572  13.816 -0.3826  0.0291 -0.0429
 3420W        W21624   5.018   6.542  13.062 -0.1437  0.0289 -0.4131
 3421W        W21625   2.818  12.381   2.590 -0.1776 -0.0512  0.0070
 3422W        W21626   0.716   8.286  15.110  0.0911  0.0917 -0.1514
 3423W        W21627  10.269   2.337  13.939 -0.1994 -0.1861 -0.1079
 3424W        W21628  11.876  15.479   4.766 -0.0401  0.2720 -0.0485
 3425W        W21629   4.017  16.548  14.454  0.0177 -0.0736 -0.1422
 3426W        W21630  17.473  14.966  13.702  0.2123  0.1045 -0.1313
 3427W        W21631   7.782   6.844  12.521  0.1637 -0.0881 -0.2284
 3428W        W21632   1.316   4.720  15.162  0.1690  0.1731  0.1175
 3429W        W21633   7.379  14.123   4.869  0.0985 -0.0532  0.1600
 3430W        W21634  15.979   2.241  11.312  0.0641 -0.0067 -0.0777
 3431W        W21635   2.684  12.658  12.353  0.0836  0.3749  0.0705
 3432W        W21636  14.080   7.000   2.238  0.1291 -0.0987 -0.2176
 3433W        W21637   9.725   2.455   4.347  0.0462 -0.1301 -0.1363
 3434W        W21638   4.413  10.750  12.766  0.0107  0.3128  0.1160
 3435W        W21639   9.049   8.829   1.329  0.0136  0.0396 -0.2593
 3436W        W21640   9.674   6.591  14.397  0.0171  0.0337  0.0049
 3437W        W21641   6.418  14.583   3.910 -0.0848  0.2946 -0.0072
 3438W        W21642  16.802   9.769   0.427 -0.2474 -0.1400 -0.2823
 3439W        W21643  11.095   3.652   2.101  0.0386 -0.1563  0.0218
 3440W        W21644  10.808   4.600  12.560  0.0636 -0.2982  0.0247
 3441W        W21645   4.003   9.591   1.758 -0.0184  0.1349 -0.0000
 3442W        W21646   4.026  12.819  15.905  0.1471 -0.0631  0.3649
 3443W        W21647   3.723   3.979  14.213  0.1300 -0.0496  0.0638
 3444W        W21648   2.789  11.731  13.587 -0.0585 -0.1468 -0.0085
 3445W        W21649  17.471  15.710   1.608  0.0382 -0.2899  0.0855
 3446W        W21650  13.882   8.147   3.101  0.0321 -0.0544  0.0267
 3447W        W21651   1.613   9.809   1.412 -0.1667 -0.0025  0.3642
 3448W        W21652  11.929   2.286   2.672  0.0189 -0.1112  0.1245
 3449W        W21653  12.202   8.390  12.968  0.2188 -0.3152 -0.0970
 3450W        W21654   2.351   8.479  13.413  0.1226 -0.3995  0.2106
 3451W        W21655   6.716   8.688  13.739 -0.2720 -0.3389 -0.0037
 3452W        W21656  15.977   4.342  12.919  0.2274 -0.2353  0.2470
 3453W        W21657  14.441  16.511   0.026 -0.1204 -0.2447  0.0337
 3454W        W21658   6.940  15.051   4.955  0.0073  0.2183 -0.3661
 3455W        W21659  15.919   9.167   3.771  0.0539 -0.1755  0.4630
 3456W        W21660  10.410  13.227   4.487  0.1813 -0.1761 -0.0031
 3457W        W21661   4.747  14.842  15.998 -0.3185  0.1233  0.0757
 3458W        W21662   6.308   3.158   2.278  0.0568 -0.0458  0.3635
 3459W        W21663   9.601  11.038   2.252 -0.0354  0.5250  0.1633
 3460W        W21664   9.625   0.807  13.479 -0.1565  0.0170 -0.0569
 3461W        W21665   8.069   1.008  13.752  0.1255  0.3669 -0.0097
 3462W        W21666   6.658   1.739   1.188  0.0210  0.0250 -0.0191
 3463W        W21667  12.027   4.414  11.802  0.0157  0.1245 -0.2328
 3464W        W21668  12.931   7.675   2.430  0.4916 -0.0047  0.1077
 3465W        W21669  13.766  17.331   1.288 -0.2163  0.2867 -0.0437
 3466W        W21670   2.235   6.807  14.788 -0.0182  0.0815  0.0477
 3467W        W21671   3.516   1.662   3.252  0.0408  0.2322  0.1828
 3468W        W21672  12.394  15.772  13.641  0.1807 -0.2962  0.1682
 3469W        W21673   9.288   4.999   3.755  0.0803  0.2432 -0.1567
 3470W        W21674  12.681  16.264   2.279 -0.1715 -0.0890 -0.1897
 3471W        W21675  15.305  14.470  11.537 -0.0543  0.2443 -0.0293
 3472W        W21676   7.595  12.581   0.009  0.0949  0.2228 -0.3580
 3473W        W21677  14.793  10.206   2.813  0.1241 -0.1534 -0.2999
 3474W        W21678  15.703   1.114   4.776  0.1023 -0.0771  0.2000
 3475W        W21679   4.189  16.241  15.344  0.0322 -0.0269  0.2674
 3476W        W21680   5.664   0.857  11.836  0.0850 -0.1693  0.2651
 3477W        W21681   6.837  13.377  12.511  0.2329  0.2676 -0.0670
 3478W        W21682   1.705   2.408  13.576  0.1413  0.0924 -0.1443
 3479W        W21683   6.097   0.540   3.700  0.2076  0.2028  0.0857
 3480W        W21684   7.457   0.742  11.872  0.0290 -0.0648  0.2607
 3481W        W21685   0.739  11.401  13.967  0.0508  0.0003 -0.1195
 3482W        W21686   6.021   4.943   2.250 -0.2893  0.0185  0.1086
 3483W        W21687  15.959   5.616   1.444 -0.1332  0.1299 -0.2786
 3484W        W21688   9.570   7.327   4.697 -0.0867 -0.0098 -0.0013
 3485W        W21689   3.157   8.121   2.123  0.4200 -0.1381  0.3040
 3486W        W21690  16.708   2.849  14.904  0.2957  0.0483  0.1582
 3487W        W21691   5.486  13.427   2.304  0.1131 -0.1144 -0.1318
 3488W        W21692   5.162  15.907  14.512  0.1076 -0.2917  0.1337
 3489W        W21693   6.385  10.784  15.196  0.1316  0.1305  0.0763
 3490W        W21694  17.435  12.829   3.204 -0.1689 -0.1941 -0.1136
 3491W        W21695   2.845  12.381  12.739  0.1131 -0.1606  0.0450
 3492W        W21696   6.070  10.329   2.810  0.3394  0.2937 -0.1372
 3493W        W21697   3.729  12.526  15.382 -0.1011  0.1016 -0.2221
 3494W        W21698   7.241  11.687   0.915 -0.0563 -0.1120  0.1341
 3495W        W21699   7.880   7.474   0.707 -0.4409  0.0417 -0.1055
 3496W        W21700  11.966  10.591   0.314  0.0037 -0.2575 -0.1440
 3497W        W21701  15.147   2.766   2.829 -0.0975 -0.0799 -0.1518
 3498W        W21702  15.071  17.985  13.687  0.3200 -0.5090  0.2814
 3499W        W21703   9.648  12.801   1.013  0.1809  0.1805 -0.1690
 3500W        W21704  14.144   2.285  14.490  0.0989  0.1514 -0.1347
 3501W        W21705   8.108  12.218  12.971  0.2163  0.3564 -0.0457
 3502W        W21706   2.276   3.463  12.217  0.4974  0.2975  0.3985
 3503W        W21707   5.102   8.855  15.891 -0.0567  0.0899 -0.1344
 3504W        W21708  14.152   1.358  14.628 -0.0556  0.0168  0.2858
 3505W        W21709  16.368  13.188   2.144  0.0212 -0.1447 -0.1562
 3506W        W21710   7.108  16.007  13.354  0.0482 -0.1036 -0.3559
 3507W        W21711   2.506   9.729   1.169 -0.2187 -0.1705  0.1466
 3508W        W21712   4.937  12.765  11.870  0.0209 -0.0674  0.0606
 3509W        W21713  15.278   8.495   2.342 -0.2430  0.3684  0.0179
 3510W        W21714   2.623   0.345  14.978  0.0399  0.2044 -0.0742
 3511W        W21715  16.570   1.386   3.975 -0.1850  0.2700  0.0149
 3512W        W21716  12.974  14.536  14.753 -0.0466 -0.0042  0.2998
 3513W        W21717  11.209   5.176   0.829 -0.1110  0.2508 -0.0624
 3514W        W21718   7.892  13.879   1.134  0.2481 -0.1397  0.0629
 3515W        W21719   0.877   6.058   4.770 -0.0232  0.1438  0.5051
 3516W        W21720  16.181   4.109  16.100  0.2495 -0.1902 -0.2150
 3517W        W21721  12.423  11.743   2.245 -0.3200  0.0844 -0.0440
 3518W        W21722   9.146  13.676  14.123 -0.1353 -0.3002  0.0796
 3519W        W21723   4.648  17.222  14.515  0.0535 -0.3406  0.1929
 3520W        W21724   3.001  13.302  12.578 -0.0483 -0.0031 -0.1367
 3521W        W21725   7.874  15.716  15.990 -0.0462  0.3245 -0.0323
 3522W        W21726   3.003   7.464   1.721 -0.2199 -0.1101 -0.2077
 3523W        W21727   9.206  17.932  13.784 -0.0142  0.0315 -0.0063
 3524W        W21728   3.709   3.214  11.530  0.0744  0.2729 -0.2500
 3525W        W21729   4.507  17.052   3.155  0.0749  0.1236  0.3237
 3526W        W21730  15.058  12.974   0.260  0.3144  0.1262 -0.1977
 3527W        W21731  17.819   7.544   3.052 -0.1733 -0.0421  0.0937
 3528W        W21732  11.351   8.260   3.260  0.0607  0.0412 -0.0997
 3529W        W21733   0.156   3.766   1.601 -0.0041 -0.0565 -0.0248
 3530W        W21734  11.550  13.560  13.111 -0.0823  0.0923 -0.0581
 3531W        W21735  16.431  11.378  14.537  0.2197 -0.3884  0.1425
 3532W        W21736   2.073  11.143  15.764  0.2404  0.2369 -0.0408
 3533W        W21737   2.998   4.190  12.212  0.0690  0.1644 -0.1169
 3534W        W21738   3.815   8.412   0.852 -0.1126  0.0349  0.2830
 3535W        W21739   8.603   3.696   1.994  0.1546 -0.0103 -0.1623
 3536W        W21740  11.828   5.740  12.001 -0.0504 -0.2888  0.2298
 3537W        W21741  14.239  16.374   1.210  0.2179  0.5083  0.0186
 3538W        W21742  14.322  10.111  11.994  0.2544  0.0288 -0.2025
 3539W        W21743  14.634  10.541  12.661  0.2651 -0.1348 -0.2072
 3540W        W21744  14.422  14.234  15.318 -0.1412 -0.0616  0.1504
 3541W        W21745   7.195   9.691   4.678  0.1508 -0.2394 -0.1571
 3542W        W21746   1.864  12.358   0.183  0.1431 -0.0177  0.0772
 3543W        W21747   8.219  10.684  15.226  0.1853 -0.3118  0.1281
 3544W        W21748   7.105   9.395  15.299 -0.0535  0.0360  0.1401
 3545W        W21749  13.942   9.273  12.029 -0.0791 -0.3679  0.0331
 3546W        W21750  17.530   8.458  15.812  0.0961 -0.1667 -0.0587
 3547W        W21751   6.184  10.765  10.909 -0.2432 -0.0654  0.2878
 3548W        W21752  13.885  16.603  14.617  0.0541 -0.1086 -0.1450
 3549W        W21753   3.951  12.894  12.369  0.1685  0.1162 -0.1698
 3550W        W21754   1.221  15.226  15.865  0.0613 -0.0976 -0.3605
 3551W        W21755  14.920  16.810  14.551  0.0282 -0.2344 -0.3012
 3552W        W21756   2.291  14.760   2.204 -0.0040  0.1371  0.1067
 3553W        W21757   0.268   9.129   3.950  0.0083  0.0934 -0.1138
 3554W        W21758  13.275   9.425  12.505  0.3080 -0.2566 -0.0286
 3555W        W21759   9.576  16.553   4.158 -0.3128 -0.0248 -0.1868
 3556W        W21760   8.999   4.365   1.688 -0.0991 -0.0171 -0.0385
 3557W        W21761   1.908  12.137  11.572  0.1232 -0.4489  0.1270
 3558W        W21762  17.774   8.820  13.697 -0.0183  0.2442 -0.0199
 3559W        W21763   4.037  12.684  13.746  0.1757 -0.0246  0.0405
 3560W        W21764   2.652  16.842  11.432  0.3256  0.1817 -0.4100
 3561W        W21765   6.417   5.428  14.159 -0.1641 -0.1543  0.0800
 3562W        W21766  10.866   7.654  15.398 -0.0993 -0.2706  0.1094
 3563W        W21767   6.062  11.436   0.384 -0.0553  0.1503  0.0091
 3564W        W21768   3.817   9.392  14.611  0.2918 -0.2696 -0.0550
 3565W        W21769   3.787  13.363   0.438 -0.0110  0.1752  0.0903
 3566W        W21770   8.406   4.661   3.584 -0.0107  0.2256  0.0595
 3567W        W21771   4.737   4.045  15.499 -0.0617 -0.1783 -0.5178
 3568W        W21772  15.897  13.822  13.339 -0.2178  0.0235 -0.1502
 3569W        W21773  16.156  13.053   4.309 -0.0546 -0.1566  0.0686
 3570W        W21774   9.170  12.877   4.528  0.0139 -0.1691 -0.3055
 3571W        W21775  16.313   0.796  14.008 -0.2609  0.2207  0.1763
 3572W        W21776   8.770   2.990   3.807 -0.0377  0.0435  0.0335
 3573W        W21777   8.074   9.743  15.220 -0.0159 -0.1660 -0.3306
 3574W        W21778  12.171   5.454   2.596  0.0600 -0.2108  0.0912
 3575W        W21779   7.745   8.335   4.654 -0.0698 -0.1608  0.1287
 3576W        W21780   6.099  15.687   3.297 -0.2794 -0.0231  0.2003
 3577W        W21781   6.639  10.682   5.316 -0.1313 -0.3011 -0.3577
 3578W        W21782   6.835   6.700   2.486  0.2068  0.1782 -0.0790
 3579W        W21783   4.967  17.874   0.917 -0.1543 -0.1242  0.2933
 3580W        W21784   2.951  16.852   4.587  0.2920 -0.0073 -0.0599
 3581W        W21785   1.833  10.996   2.383 -0.0418  0.1538 -0.1978
 3582W        W21786   3.331   1.390  11.517  0.1262  0.2116  0.2756
 3583W        W21787   9.547   9.513   2.495  0.3636  0.0042 -0.0682
 3584W        W21788   5.279  10.793   3.296 -0.0931 -0.1106 -0.0481
 3585W        W21789  10.613   5.885  11.301  0.1461  0.2693  0.1597
 3586W        W21790   9.098  13.395  14.900 -0.0709  0.0155  0.0409
 3587W        W21791   9.390   3.848   3.110  0.1602  0.1057 -0.4247
 3588W        W21792   9.871   0.367  12.871 -0.2325 -0.0884  0.0285
 3589W        W21793  12.032  10.994   4.909  0.1351  0.2235 -0.2898
 3590W        W21794   1.431   4.439   0.753  0.0687  0.1212  0.0223
 3591W        W21795   8.327  12.867   3.593 -0.0589 -0.0257 -0.1053
 3592W        W21796   8.269  11.423  12.402  0.0876 -0.2217  0.4608
 3593W        W21797  12.580   3.155   1.137 -0.0395  0.2130  0.3074
 3594W        W21798   2.993   8.937   4.553  0.2971  0.0580 -0.1617
 3595W        W21799  13.527   3.599   3.462 -0.1271 -0.1444 -0.0888
 3596W        W21800  14.594   3.409  14.104  0.2480  0.0278 -0.0896
 3597W        W21801  13.322  12.942  14.995 -0.0642  0.1883  0.3205
 3598W        W21802  15.057  15.954  11.057  0.3382  0.1773  0.3121
 3599W        W21803  13.023  13.562  14.554  0.1796 -0.3982 -0.1905
 3600W        W21804   0.168  11.045   2.335 -0.0891 -0.2670 -0.0696
 3601W        W21805   4.975  11.476  13.078  0.0761  0.1003  0.0752
 3602W        W21806  10.674  15.326   5.262  0.2200 -0.2849  0.0485
 3603W        W21807  16.513  13.714  16.160 -0.0038  0.0175  0.2008
 3604W        W21808   3.756   7.834  14.408 -0.0272 -0.0448  0.0860
 3605W        W21809  15.973  13.909   1.665  0.3318  0.2168 -0.0646
 3606W        W21810  17.504   9.504   5.798 -0.0943 -0.0502 -0.2182
 3607W        W21811   3.728  11.538   1.210  0.0042 -0.2948  0.0643
 3608W        W21812  16.296  10.032   0.616  0.0086  0.1130 -0.0702
 3609W        W21813  10.031  16.693  13.559  0.1574  0.0017  0.1075
 3610W        W21814   4.549  15.828  16.075 -0.0989  0.3059 -0.2675
 3611W        W21815   6.013   7.896  14.377  0.0024  0.0245  0.2318
 3612W        W21816   2.350   9.739  14.241  0.2940 -0.0271  0.0981
 3613W        W21817  16.852   6.307  13.175 -0.0610 -0.0387  0.0364
 3614W        W21818   8.375  16.685  11.273 -0.0194 -0.3364  0.1233
 3615W        W21819  11.325  13.348   0.392  0.1194 -0.1177  0.3085
 3616W        W21820   6.097  14.859   2.585  0.0637 -0.1306 -0.1595
 3617W        W21821   0.715   6.195  10.257 -0.0851  0.0108  0.0588
 3618W        W21822   2.420  11.351  15.419  0.0051  0.2150  0.0935
 3619W        W21823   8.269  12.995   1.759 -0.0476  0.3551  0.1131
 3620W        W21824   1.933  13.120   4.026 -0.0507 -0.0773  0.1119
 3621W        W21825  15.260   1.565  13.778  0.0612  0.1426 -0.1340
 3622W        W21826  13.267   0.179  11.810 -0.0404 -0.1167 -0.2229
 3623W        W21827  15.594   5.309   0.396 -0.1587  0.2954  0.0569
 3624W        W21828   7.954  10.299   0.629 -0.3553  0.0905  0.2667
 3625W        W21829  17.206  12.902   2.706  0.2531 -0.1579  0.2618
 3626W        W21830   6.728   0.715   1.306 -0.1854  0.1827 -0.2559
 3627W        W21831   9.108   5.795  14.412 -0.2632  0.2900  0.0602
 3628W        W21832  16.026  16.087  10.228 -0.2235 -0.0584 -0.3129
 3629W        W21833  16.039  15.171   0.071 -0.0019 -0.0700 -0.0237
 3630W        W21834  16.139   6.953  12.491  0.0379 -0.1989  0.1164
 3631W        W21835   5.725   8.097  15.627  0.0164  0.1144  0.0510
 3632W        W21836  14.844   6.732   1.655 -0.0318  0.2111  0.1826
 3633W        W21837   9.575   7.595   3.727  0.2763  0.0217  0.1622
 3634W        W21838   9.378   4.084   3.567 -0.3123  0.0342 -0.1185
 3635W        W21839   6.461   0.359  12.996  0.0358 -0.2567  0.0554
 3636W        W21840  10.456  17.930  13.835 -0.2048  0.3704 -0.0705
 3637W        W21841   6.329   3.328  11.568 -0.2792 -0.0576 -0.1089
 3638W        W21842   1.718  12.052  14.900 -0.3177  0.2453 -0.2300
 3639W        W21843  14.778   7.495   5.984  0.1454  0.2650  0.1119
 3640W        W21844   6.836  16.510  12.106  0.2821 -0.1513  0.0463
 3641W        W21845   5.053  14.970   3.095 -0.1980 -0.1229 -0.0163
 3642W        W21846  10.243   8.064   3.795 -0.0733 -0.0644 -0.1018
 3643W        W21847  10.718   7.887   5.172 -0.2501  0.0921  0.2407
 3644W        W21848  12.618  12.467   3.359 -0.5181 -0.2232 -0.0243
 3645W        W21849   2.134   2.630  11.252 -0.0006 -0.4166 -0.0671
 3646W        W21850  17.586  14.225  12.415  0.1999  0.2902 -0.1089
 3647W        W21851  17.064  11.059  11.288 -0.0537  0.4107 -0.0120
 3648W        W21852   8.249  14.422   0.466  0.0690 -0.5341  0.2237
 3649W        W21853  17.636   2.224  14.760  0.2301  0.1239 -0.0934
 3650W        W21854  16.165  17.589   0.172  0.0791  0.1810  0.1262
 3651W        W21855   6.769  16.334  15.499  0.3032  0.0097  0.1670
 3652W        W21856  14.553  11.317   0.169 -0.0255 -0.2154  0.1730
 3653W        W21857  14.342   9.615   5.053  0.2665 -0.1333 -0.0390
 3654W        W21858  11.290   7.417   5.921 -0.0682  0.1224  0.0812
 3655W        W21859   8.607  17.793   3.673  0.2303 -0.1348  0.1430
 3656W        W21860   3.017  10.441  14.083 -0.0375  0.1171  0.1874
 3657W        W21861   3.363  14.064  14.416 -0.1798 -0.1148 -0.0532
 3658W        W21862   7.920  14.515   3.266 -0.1810  0.1057  0.0608
 3659W        W21863   2.574   5.885  12.567  0.0827 -0.2156 -0.2422
 3660W        W21864   6.486   1.443  12.889  0.3070 -0.2748 -0.4723
 3661W        W21865  15.950  16.412   1.172  0.1116 -0.0125 -0.0004
 3662W        W21866  15.891   4.296   2.226  0.0960  0.0988  0.0212
 3663W        W21867  12.990   2.275   3.249  0.0038  0.1070 -0.1396
 3664W        W21868   4.903   0.362   3.998  0.1863 -0.0786  0.0430
 3665W        W21869   5.556   2.487   2.992  0.2247 -0.0590 -0.0682
 3666W        W21870   0.452   5.268   0.739 -0.1896 -0.0666  0.1709
 3667W        W21871   6.472  12.622   3.245 -0.2812  0.1090 -0.0115
 3668W        W21872   5.059   3.483   4.393 -0.0317 -0.2153 -0.1005
 3669W        W21873   5.540  15.090   4.789  0.1997  0.0639  0.2773
 3670W        W21874   2.227   7.251   4.187  0.0007  0.0338  0.1334
 3671W        W21875   0.361   6.610   0.420 -0.5233 -0.2327  0.1140
 3672W        W21876   8.453  14.582   3.058  0.0018 -0.2916 -0.3503
 3673W        W21877   3.394   8.741   5.360  0.0860  0.0353 -0.1597
 3674W        W21878   8.309   2.164  14.586  0.1161  0.0766 -0.2180
 3675W        W21879  15.783   1.121  13.192 -0.0603 -0.0007 -0.0579
 3676W        W21880  13.691   3.796   1.649 -0.1382 -0.0827  0.0510
 3677W        W21881  16.702  14.180   1.400 -0.1702 -0.0667  0.1045
 3678W        W21882   1.416  15.509   4.818 -0.3948 -0.2160  0.1112
 3679W        W21883   7.768   6.654  15.254 -0.1027  0.0194 -0.1085
 3680W        W21884   3.097   2.262  14.226 -0.0364  0.1030  0.2056
 3681W        W21885   8.682  10.308   2.097  0.0972  0.0953 -0.2928
 3682W        W21886   8.665   1.819  14.626 -0.0876 -0.1128  0.0196
 3683W        W21887  17.208  11.230  13.611 -0.0000 -0.1017 -0.0341
 3684W        W21888  15.859  15.217  15.518  0.0699  0.1239  0.1284
 3685W        W21889  10.095  12.865  14.916 -0.0042  0.0569 -0.1386
 3686W        W21890   0.271  11.760  13.253  0.0210 -0.3102 -0.2576
 3687W        W21891  15.735  15.958   3.246  0.0423 -0.0025 -0.1776
 3688W        W21892  15.883   3.535   0.874  0.2093 -0.0192 -0.2253
 3689W        W21893  10.450  14.776   4.996 -0.1407 -0.0699 -0.2000
 3690W        W21894   0.871  11.370   4.787 -0.1202 -0.1245 -0.1238
 3691W        W21895  15.193   4.841   1.925 -0.0829 -0.0737 -0.1274
 3692W        W21896   9.171  16.441   5.277  0.3331  0.1434 -0.0975
 3693W        W21897  11.857   9.222   4.393  0.3262  0.1265  0.2651
 3694W        W21898  16.032   1.807   3.168 -0.1568  0.0723 -0.1608
 3695W        W21899  13.759  11.969   2.045 -0.1162 -0.1516  0.2347
 3696W        W21900   9.236   2.163   1.002 -0.0222 -0.3217  0.1396
 3697W        W21901   8.315   7.279  11.743  0.0949 -0.2366  0.1247
 3698W        W21902   6.885   5.936   3.768 -0.1107 -0.0254 -0.1587
 3699W        W21903  13.040   1.525  12.823 -0.2188  0.0113  0.1715
 3700W        W21904   6.951   0.164  13.118  0.0073  0.0432  0.1242
 3701W        W21905   8.801   7.005  14.223  0.0057 -0.1278 -0.0624
 3702W        W21906   9.958   6.703   3.294  0.4300 -0.1483  0.3041
 3703W        W21907  13.962   5.312   2.569 -0.1272  0.1958 -0.2748
 3704W        W21908  12.541  17.302   1.379  0.0671 -0.4200 -0.0395
 3705W        W21909  11.980   8.391   1.345 -0.0301  0.1835 -0.1092
 3706W        W21910  13.015  16.865  13.376 -0.0327  0.1429  0.4598
 3707W        W21911  16.627   4.948   5.273  0.0441  0.1116 -0.0223
 3708W        W21912  15.871   5.722  10.790  0.0457  0.0688 -0.2627
 3709W        W21913   3.300   5.338  11.172 -0.0969 -0.3366 -0.1421
 3710W        W21914  17.753   0.442   4.643  0.0503 -0.0085  0.1455
 3711W        W21915  15.691   2.052   4.395  0.1549  0.1588 -0.0197
 3712W        W21916   0.479   1.365  15.966 -0.0171  0.0724  0.2697
 3713W        W21917  15.459  15.511  11.890 -0.2306  0.1396 -0.1166
 3714W        W21918   0.541   1.702   0.541 -0.2217 -0.2015 -0.0658
 3715W        W21919   3.875   2.619  14.636 -0.2795  0.1239 -0.3166
 3716W        W21920   3.678  14.062  14.024  0.2337 -0.0917 -0.0533
 3717W        W21921   1.748  13.077   3.411 -0.0999  0.0740 -0.0879
 3718W        W21922   2.638   8.428  11.975  0.1099 -0.1961 -0.2512
 3719W        W21923  12.910  12.019  15.944  0.2305  0.2176  0.0754
 3720W        W21924   0.668   5.320  10.907 -0.1088 -0.1915 -0.2286
 3721W        W21925  16.357  15.484   4.576  0.0136 -0.0169 -0.0512
 3722W        W21926  15.398   3.558   4.030  0.0150 -0.0139  0.3324
 3723W        W21927   2.301   6.612  13.407  0.0891 -0.1662 -0.0385
 3724W        W21928   6.343   6.594  12.464  0.2232  0.0273 -0.3051
 3725W        W21929   4.544  12.387   1.321  0.0229 -0.0320 -0.2150
 3726W        W21930   1.611  14.541  12.115 -0.2457  0.2601  0.1247
 3727W        W21931   8.854  17.377   1.527 -0.4032 -0.1893 -0.2132
 3728W        W21932  12.276   3.730  13.748 -0.0138  0.2095 -0.0184
 3729W        W21933   6.284   6.517  13.907 -0.0913  0.0285 -0.0131
 3730W        W21934  12.512   2.645   1.868  0.0613 -0.0825 -0.0559
 3731W        W21935  16.767  16.332   0.134 -0.0943  0.2704  0.2419
 3732W        W21936   1.692   8.082  13.058  0.1043  0.0444  0.0068
 3733W        W21937  16.195   7.698  14.281  0.0848  0.1392  0.1104
 3734W        W21938   4.524  13.555  14.026  0.1923 -0.1836 -0.0983
 3735W        W21939  14.649  14.080   2.126  0.2976 -0.1626  0.0532
 3736W        W21940  14.623   3.479   5.021  0.0688 -0.0763  0.0988
 3737W        W21941   7.210  11.776   2.825 -0.0107  0.0648  0.1311
 3738W        W21942  11.536  12.057   1.968  0.1967  0.1789  0.2829
 3739W        W21943   1.975   2.313   0.358  0.1594 -0.2654  0.3398
 3740W        W21944  12.688  11.086  14.114  0.0085 -0.1008 -0.0299
 3741W        W21945  13.167   1.594  14.362 -0.2482 -0.0494  0.2549
 3742W        W21946   0.955   3.301   5.412  0.2596 -0.0065  0.1460
 3743W        W21947  14.439   6.796   3.418  0.0235 -0.1123 -0.0180
 3744W        W21948  14.225  15.117  11.743 -0.0463 -0.1672  0.1147
 3745W        W21949  13.365   5.141  14.424  0.0810 -0.2880 -0.1915
 3746W        W21950  17.569  16.082   1.220  0.0831 -0.0896  0.4702
 3747W        W21951   6.025  11.361   4.643 -0.1381 -0.0146 -0.3196
 3748W        W21952  17.844   0.421   3.683  0.0644 -0.1131  0.0538
 3749W        W21953  13.439   0.259  12.307  0.2107 -0.2621  0.0407
 3750W        W21954   4.439   8.155  13.830  0.0045 -0.0614  0.2652
 3751W        W21955   2.972  14.459   3.330 -0.0604 -0.1262  0.1413
 3752W        W21956   7.138   8.826  13.547  0.1919  0.1412 -0.1560
 3753W        W21957   4.978  10.311   4.900  0.0808  0.3525  0.3161
 3754W        W21958   2.468  14.928  11.424  0.2798  0.2050 -0.1738
 3755W        W21959   0.516   3.456   0.781 -0.1009 -0.1189 -0.0557
 3756W        W21960   2.618   7.622  12.988 -0.0656  0.1838 -0.2900
 3757W        W21961   8.829   4.793   4.323 -0.2569  0.0364  0.1045
 3758W        W21962   0.503  16.021  14.771 -0.0648 -0.0058 -0.0269
 3759W        W21963   0.007  10.169   0.438 -0.3631 -0.0886  0.0554
 3760W        W21964  17.176  16.250   4.123 -0.0683  0.1327 -0.0894
 3761W        W21965   5.037   5.756   1.958  0.3212  0.0137 -0.3778
 3762W        W21966  12.316  15.865  11.696  0.0020  0.2745 -0.2194
 3763W        W21967   5.468  16.910  13.134  0.2725  0.0613  0.0789
 3764W        W21968   0.938  14.165  14.481  0.0421 -0.0895 -0.1340
 3765W        W21969   5.021  12.599   1.517 -0.0783 -0.0493  0.3401
 3766W        W21970  13.314   3.774   4.641 -0.1577 -0.0388  0.2600
 3767W        W21971   3.818   9.337   3.050 -0.1629  0.0254  0.0686
 3768W        W21972  13.798   7.805   4.269 -0.0331 -0.0937  0.0110
 3769W        W21973  17.667   4.828   3.194 -0.0556  0.1467 -0.0421
 3770W        W21974   1.991   3.413  15.672 -0.0163 -0.3312  0.1314
 3771W        W21975  10.889   9.770  15.257 -0.0812 -0.1056  0.0756
 3772W        W21976   4.686  10.254   3.992 -0.1018 -0.1050  0.0660
 3773W        W21977  11.406   0.655   2.322  0.6086  0.1584 -0.1014
 3774W        W21978   4.714   6.293  16.021  0.0705  0.1798 -0.0060
 3775W        W21979   8.667   4.939  16.034  0.0148  0.1617 -0.0762
 3776W        W21980  15.078   5.363   4.733  0.2816 -0.0857 -0.1890
 3777W        W21981   1.900   7.457  14.812  0.1140 -0.1201  0.1338
 3778W        W21982   2.029  10.934   4.276 -0.2834  0.1528 -0.0903
 3779W        W21983   5.297   2.490  10.346 -0.2940 -0.1105  0.2071
 3780W        W21984   5.094  12.418  15.926 -0.1614 -0.0135  0.1605
 3781W        W21985  11.643   1.245   4.177  0.0107  0.0853 -0.1616
 3782W        W21986  10.500   2.500  14.359 -0.2018 -0.0129 -0.0853
 3783W        W21987  14.854   2.966  14.088  0.2371 -0.1606 -0.0994
 3784W        W21988   8.165  11.879  13.347  0.0097 -0.0538  0.1256
 3785W        W21989  14.489  14.663   1.577 -0.0394 -0.0454 -0.1114
 3786W        W21990   2.243   4.226   4.439  0.0238  0.0805 -0.2403
 3787W        W21991   5.244   1.868  11.696 -0.1667 -0.0711  0.2188
 3788W        W21992   7.785   7.731  13.537 -0.0034 -0.0190 -0.2884
 3789W        W21993   8.401   6.357  11.455  0.0519 -0.0448 -0.0584
 3790W        W21994  17.731  16.929  15.524 -0.1263  0.2388  0.0374
 3791W        W21995   4.259   4.805  13.563 -0.0563 -0.2454  0.4425
 3792W        W21996   4.858   3.495  15.002 -0.0429  0.1072 -0.1884
 3793W        W21997   9.814  10.108   3.558 -0.0196 -0.0854  0.2512
 3794W        W21998   2.094   7.074  12.085  0.1240 -0.0787 -0.2737
 3795W        W21999   6.141   1.351   1.082  0.0898  0.1697  0.1682
 3796W        W22000   6.513   2.130   2.557 -0.0601  0.3519 -0.1454
 3797W        W22001  17.113  16.473  15.928  0.0226 -0.1678 -0.1129
 3798W        W22002  17.798   3.060   1.939 -0.0912 -0.2065 -0.2239
 3799W        W22003  13.830   2.043  13.879 -0.3038 -0.1018 -0.1248
 3800W        W22004   4.133  13.719   4.570  0.0479  0.3070  0.0270
 3801W        W22005   1.255  12.493  12.169  0.0096  0.0553  0.1909
 3802W        W22006  16.154   1.671   0.836  0.2552 -0.2019  0.3868
 3803W        W22007   6.704   1.430   0.245  0.2530 -0.0295  0.0476
 3804W        W22008  13.570  11.133  15.273 -0.0602  0.0025  0.1160
 3805W        W22009   4.208   5.483   2.692 -0.1929 -0.1415  0.3324
 3806W        W22010  16.680   4.824  10.333  0.1531  0.0287  0.2719
 3807W        W22011  14.738   8.472  14.344  0.1640 -0.1232  0.0164
 3808W        W22012  12.509  10.527   1.297 -0.1111 -0.0737 -0.2349
 3809W        W22013   2.475  15.870  13.532 -0.2080 -0.2512  0.0921
 3810W        W22014  12.087   8.222   3.235  0.1717  0.1922 -0.1510
 3811W        W22015   1.875  13.757   1.068 -0.0885 -0.0393 -0.1880
 3812W        W22016   8.055   2.770   3.200 -0.1345  0.0360 -0.0279
 3813W        W22017  12.781   7.291  12.242  0.0563  0.1368 -0.1712
 3814W        W22018   4.731  16.807   1.711 -0.2366  0.0228  0.0711
 3815W        W22019   2.949   8.700  16.005 -0.1353 -0.1697  0.1369
 3816W        W22020   1.994  10.546   4.600 -0.2086 -0.1408 -0.1560
 3817W        W22021   0.593   3.847  13.078 -0.0661 -0.3889 -0.0049
 3818W        W22022   3.420  15.363   0.103 -0.0498  0.2376  0.0149
 3819W        W22023   5.038  13.162   1.595  0.1095  0.1000  0.3115
 3820W        W22024  12.331  16.834   3.409 -0.1427 -0.1458  0.0735
 3821W        W22025   2.578  10.536   3.877  0.2018  0.0481  0.0290
 3822W        W22026  13.633   1.021  16.012 -0.3422 -0.0006  0.0127
 3823W        W22027  13.801  14.159  12.213 -0.1178  0.0954  0.0897
 3824W        W22028   3.260  11.505   1.382  0.5088 -0.0200 -0.1150
 3825W        W22029   2.375  16.167  14.459  0.0718  0.0872 -0.4808
 3826W        W22030  11.334   2.919  11.765  0.0713  0.0766 -0.1298
 3827W        W22031  15.144   5.159  13.534  0.0250  0.0678  0.1147
 3828W        W22032   1.846   5.788  11.607 -0.0779 -0.0210  0.1311
 3829W        W22033  17.227   6.004  13.381  0.0222  0.0574 -0.0944
 3830W        W22034   0.928   7.933   5.405  0.0314 -0.0176  0.0513
 3831W        W22035  11.992   6.607  11.454  0.0753  0.2594 -0.2197
 3832W        W22036   1.884  16.357  15.830  0.1115 -0.2206 -0.0256
 3833W        W22037  14.246   7.779   4.547  0.0240  0.0941  0.1755
 3834W        W22038  16.611  12.266   4.942  0.2828  0.2869 -0.0730
 3835W        W22039   3.815   6.501  11.689  0.1170 -0.1587  0.1328
 3836W        W22040   3.832   2.755  11.644  0.0756 -0.0823  0.1187
 3837W        W22041   4.953  15.654   2.494 -0.0035  0.0351 -0.3404
 3838W        W22042   6.802  15.168   0.636 -0.0571 -0.0438 -0.1339
 3839W        W22043   3.649  16.461   2.427 -0.1057  0.2767 -0.0983
 3840W        W22044  12.030  15.107  10.031 -0.0031 -0.1112 -0.2486
 3841W        W22045   6.199   2.975   0.074 -0.0813 -0.0382  0.2301
 3842W        W22046   0.615   1.226   4.402  0.0551  0.0487  0.1379
 3843W        W22047  11.316  11.687   2.760 -0.1723  0.2352  0.0877
 3844W        W22048  14.183  17.053   4.478 -0.1382  0.0864  0.2572
 3845W        W22049   7.088  10.085   1.368 -0.1289 -0.2212  0.2105
 3846W        W22050   2.853  14.124   1.123 -0.0066 -0.0404 -0.1820
 3847W        W22051   2.990   3.799   3.850 -0.1242 -0.2417 -0.3149
 3848W        W22052  16.738  11.466  13.492 -0.1550  0.0242 -0.0318
 3849W        W22053   1.497   2.293   5.236  0.1381 -0.5873  0.1850
 3850W        W22054  10.101   7.623   3.575 -0.1118  0.0684 -0.2232
 3851W        W22055  13.956  12.321  12.758 -0.0896 -0.1200 -0.0273
 3852W        W22056   5.715   6.834   1.452  0.0970 -0.2092 -0.0123
 3853W        W22057   5.276   3.787  13.158  0.0496 -0.0583  0.2337
 3854W        W22058  13.747  15.722   1.677 -0.0106 -0.0025 -0.1384
 3855W        W22059   8.577   8.756  11.568 -0.0098  0.0043  0.4169
 3856W        W22060  17.529   0.510  14.380 -0.0299  0.2583  0.2613
 3857W        W22061   3.682   8.405  12.793 -0.0667 -0.0659 -0.1272
 3858W        W22062   9.074   1.817  15.338  0.0333 -0.2131 -0.1590
 3859W        W22063   1.116   8.711   2.090  0.1641 -0.1805 -0.5070
 3860W        W22064   2.541   0.406   0.090 -0.1117  0.2349 -0.2403
 3861W        W22065   3.745   2.134  13.627 -0.1831  0.1253  0.0192
 3862W        W22066  15.162   9.867  14.818  0.0001 -0.1028  0.1742
 3863W        W22067  17.128   7.787   6.449 -0.0271 -0.1237  0.2634
 3864W        W22068   7.539  15.469  12.594  0.1884  0.1049 -0.0653
 3865W        W22069   7.333  17.590  14.264 -0.0872 -0.0931  0.2488
 3866W        W22070   2.278  12.600  12.886  0.2111 -0.1756  0.2230
 3867W        W22071  11.154   7.357  12.842  0.0436 -0.2177  0.0602
 3868W        W22072   8.221   2.897   0.891 -0.0852 -0.1079  0.0966
 3869W        W22073   7.662  17.094  16.040  0.2136  0.0324 -0.1983
 3870W        W22074   4.906  12.009  13.062 -0.0156  0.0460  0.1789
 3871W        W22075  11.192   1.636   2.004 -0.2561  0.1893  0.2074
 3872W        W22076   6.009   0.558   3.216 -0.0449 -0.0521 -0.0713
 3873W        W22077   3.559   9.574   5.058 -0.0914  0.1802  0.1610
 3874W        W22078   8.625   9.798   4.268  0.2221 -0.0053  0.2011
 3875W        W22079   6.684   8.642  11.481  0.0575 -0.2882 -0.1418
 3876W        W22080   0.976   5.905  12.636 -0.3197 -0.0321  0.0757
 3877W        W22081   4.505   5.835  16.127  0.1814 -0.1002 -0.3135
 3878W        W22082  16.801   2.887  11.285  0.0712  0.3194  0.1230
 3879W        W22083   4.045   8.112   3.679  0.1817 -0.2371 -0.4015
 3880W        W22084  16.153   5.997   2.018  0.0340 -0.0685 -0.1444
 3881W        W22085   4.552   5.263   1.428  0.0359 -0.1644 -0.0072
 3882W        W22086   4.366  16.723  15.905  0.0241 -0.0317 -0.1529
 3883W        W22087   5.311  12.281  12.718 -0.0136 -0.2617  0.3618
 3884W        W22088   8.230  17.608   1.900  0.0918  0.0867 -0.0320
 3885W        W22089  14.761   3.945   2.771  0.1910  0.3421  0.0227
 3886W        W22090  10.750  15.318   1.918  0.0393  0.0018 -0.1356
 3887W        W22091  12.232  16.693  14.698 -0.0337 -0.1195  0.3163
 3888W        W22092  17.300   0.647  15.880  0.1733  0.0355 -0.1221
 3889W        W22093   1.991  13.816  14.386 -0.0857  0.0264 -0.1073
 3890W        W22094  15.771   9.170  11.533  0.3711 -0.1777 -0.0810
 3891W        W22095  12.792   6.201   1.480 -0.0517  0.0623  0.2224
 3892W        W22096  15.263  13.944   1.914  0.1264 -0.0907  0.0775
 3893W        W22097  15.044   8.461   2.777 -0.3422 -0.0926 -0.1156
 3894W        W22098  16.108   5.554   2.886  0.2505 -0.3147 -0.0814
 3895W        W22099  15.958  15.063  11.480  0.1592 -0.1799 -0.1330
 3896W        W22100  14.941  15.414   3.227  0.0688 -0.0368  0.2449
 3897W        W22101  14.894   0.476   1.056  0.0703  0.0900  0.2117
 3898W        W22102  11.545   5.175   3.660 -0.0318  0.1984 -0.1925
 3899W        W22103  15.082   0.265   0.498 -0.0889  0.1225 -0.0584
 3900W        W22104   3.401  17.561   5.272 -0.0495 -0.1869 -0.1047
 3901W        W22105   0.895   0.725  14.657 -0.0295 -0.2320  0.2352
 3902W        W22106   4.571  14.160  12.807  0.1958 -0.2921  0.0361
 3903W        W22107  12.579  13.588  13.090  0.1076  0.1399 -0.0621
 3904W        W22108  14.092  14.566  10.897  0.3829  0.0141  0.1352
 3905W        W22109   5.381   7.248   0.764 -0.0324  0.1506  0.3710
 3906W        W22110  12.115  13.290   4.370  0.1531 -0.0091  0.0370
 3907W        W22111  17.880   2.714   2.973 -0.0088 -0.0278 -0.3512
 3908W        W22112   3.765  14.276  15.686 -0.1807  0.0236 -0.0855
 3909W        W22113   9.680  15.527  14.620  0.0166 -0.2489 -0.0671
 3910W        W22114   3.636  16.842   1.651 -0.1154 -0.0398 -0.0053
 3911W        W22115  14.755   1.466  12.459 -0.3036 -0.0666 -0.1259
 3912W        W22116   0.119   6.934  14.964  0.1624 -0.2255 -0.0746
 3913W        W22117  12.495   7.242   4.176 -0.1398  0.2933 -0.1077
 3914W        W22118  13.359   5.672   3.393 -0.2555 -0.2350  0.0547
 3915W        W22119  15.081   7.837   0.474 -0.0149  0.1540  0.0589
 3916W        W22120   7.346   9.798   2.857  0.1195 -0.1555 -0.1797
 3917W        W22121  13.764  16.906  15.695  0.2972  0.0299  0.1352
 3918W        W22122   8.423  11.839  12.839 -0.1229  0.3421 -0.1572
 3919W        W22123   9.059  10.284  14.832 -0.0390 -0.1711 -0.1424
 3920W        W22124  11.599  13.097   4.519  0.3675  0.1083 -0.2255
 3921W        W22125   1.284   6.499   0.780  0.0797 -0.2164  0.1652
 3922W        W22126  13.452   1.244   4.655  0.3097  0.0265  0.1317
 3923W        W22127  15.088  11.401   3.958  0.0458 -0.1622 -0.1878
 3924W        W22128  12.303   0.111  14.658 -0.0210  0.2179 -0.1618
 3925W        W22129   4.246  10.565  13.253 -0.4254 -0.0975 -0.1228
 3926W        W22130  13.609  11.905   1.552 -0.0717 -0.1896 -0.4669
 3927W        W22131   7.284   3.482  13.324 -0.3432  0.2068 -0.1134
 3928W        W22132   3.129  16.548   2.409  0.2300  0.1007  0.0249
 3929W        W22133  12.821   6.764   0.651 -0.0913 -0.2346 -0.1890
 3930W        W22134  15.968   1.720   0.381 -0.3002  0.0812  0.0906
 3931W        W22135   4.288   8.783   4.199 -0.1344 -0.2117 -0.2180
 3932W        W22136   8.338   9.194  11.644  0.0684  0.4427  0.3620
 3933W        W22137   6.636   9.262   4.192 -0.1253 -0.0005 -0.1936
 3934W        W22138  17.400  13.453  11.947 -0.2296  0.1034  0.4122
 3935W        W22139  16.917  12.055   3.605  0.0131 -0.1611  0.0801
 3936W        W22140   1.304   7.972  11.692  0.0166  0.1897 -0.0503
 3937W        W22141   9.588   7.542  15.328 -0.1598 -0.0096 -0.0469
 3938W        W22142  16.279  12.562  15.437  0.2248 -0.0918  0.0963
 3939W        W22143   0.261   8.076   3.787 -0.0672  0.1593  0.0967
 3940W        W22144  12.296  16.834   0.502 -0.1537 -0.4009 -0.1933
 3941W        W22145   2.324  14.917   1.491  0.0698  0.0318 -0.3655
 3942W        W22146   7.519  10.130  15.252  0.1172  0.0902 -0.2454
 3943W        W22147   8.091  17.691   3.650  0.2596 -0.2487  0.3881
 3944W        W22148   8.173  16.385   4.003  0.1866 -0.1922 -0.0152
 3945W        W22149   2.875  10.261   4.543  0.1138  0.1078 -0.0944
 3946W        W22150  16.923  17.332  13.323  0.0520 -0.2692  0.0994
 3947W        W22151  13.675   0.063   4.990 -0.0263  0.0571  0.1059
 3948W        W22152   3.245  12.496  13.801 -0.2144 -0.1819  0.1732
 3949W        W22153  16.838  12.961   2.314 -0.4193  0.0003  0.0617
 3950W        W22154   9.189   3.201  14.014 -0.0297 -0.3006 -0.1319
 3951W        W22155   4.727  17.579  15.688  0.0307 -0.0772  0.1599
 3952W        W22156  14.209  17.545   1.022 -0.1254  0.3946  0.1122
 3953W        W22157   6.315   7.118  13.087 -0.0513 -0.1296 -0.3167
 3954W        W22158   9.757   3.728   4.105 -0.0056 -0.4294 -0.2371
 3955W        W22159   3.804   1.782   1.660 -0.3403  0.0533 -0.2275
 3956W        W22160   3.497  12.289   3.460  0.1260  0.3333  0.2110
 3957W        W22161  12.858   0.098   0.582 -0.0505 -0.0121 -0.2030
 3958W        W22162   8.618   1.518  11.821 -0.0070  0.1572  0.0868
 3959W        W22163   5.203  13.277  11.792  0.1606 -0.2900  0.0624
 3960W        W22164  17.085   1.318  12.019  0.1741  0.2437  0.0971
 3961W        W22165   2.383   5.112   4.208  0.0074 -0.0919  0.0570
 3962W        W22166  12.307  16.379  15.195  0.1727 -0.1473 -0.2249
 3963W        W22167  16.391   3.581  11.423 -0.1172 -0.1257 -0.2632
 3964W        W22168  15.184   7.938  13.075 -0.0823  0.0778  0.1738
 3965W        W22169   8.358  14.586  13.089 -0.0082  0.2498 -0.2995
 3966W        W22170   7.115  13.604   3.863  0.2012  0.0172 -0.4100
 3967W        W22171  15.446  15.938   0.105 -0.1970 -0.1063  0.1059
 3968W        W22172   0.620   4.843   0.798 -0.0648 -0.0436 -0.0985
 3969W        W22173   8.577   5.078   3.408 -0.2728 -0.0821  0.0364
 3970W        W22174  12.092   1.050   3.937 -0.1893  0.0001 -0.0038
 3971W        W22175  14.305  16.046   0.062  0.1478 -0.2022  0.2478
 3972W        W22176  16.753  10.181   2.293 -0.0751  0.1208 -0.0765
 3973W        W22177   6.981   1.399  12.176 -0.0454  0.2584 -0.0582
 3974W        W22178  15.663  10.581   0.524  0.0725 -0.3943  0.0800
 3975W        W22179  16.372   7.403   0.607  0.1409  0.2800 -0.2054
 3976W        W22180  15.578  10.794   2.026  0.1217  0.0140 -0.0922
 3977W        W22181   8.625  14.790   4.858 -0.2367 -0.1533 -0.1029
 3978W        W22182   2.101  16.843  14.016  0.0658  0.0242 -0.0434
 3979W        W22183  15.661  12.828   1.471 -0.0977 -0.0825  0.2855
 3980W        W22184  16.264   2.367   1.277  0.2133  0.2676 -0.0233
 3981W        W22185  17.602   3.897   2.292  0.0011  0.2495  0.1886
 3982W        W22186  14.432   6.300  11.628  0.0525  0.1074  0.1387
 3983W        W22187  14.715  12.058   4.337  0.1188  0.0648  0.1711
 3984W        W22188  14.522   8.433   4.413  0.1761  0.2788  0.1161
 3985W        W22189   6.790  16.660   4.283  0.0361 -0.0279 -0.1569
 3986W        W22190   6.028  13.476   1.234 -0.0975  0.0856 -0.0861
 3987W        W22191   4.432  14.406   2.094  0.0162  0.2845 -0.1446
 3988W        W22192  11.029  13.945  11.932  0.0194  0.2364 -0.0785
 3989W        W22193   1.175   0.264   2.121  0.1568 -0.0137 -0.2044
 3990W        W22194  14.613  16.375  14.295 -0.0239  0.0565 -0.0396
 3991W        W22195   5.592  15.572  15.140  0.1494 -0.0779  0.1529
 3992W        W22196   1.955   6.298  13.028  0.3437 -0.2750 -0.0986
 3993W        W22197  13.424  10.746  12.279  0.2702 -0.2356  0.0457
 3994W        W22198  14.389   9.836  14.540  0.4199  0.1564 -0.0722
 3995W        W22199  11.767   1.742  13.691 -0.1489 -0.0527 -0.0096
 3996W        W22200  11.715   7.532   5.673  0.1264  0.0728  0.2207
 3997W        W22201  15.526   1.866  14.591  0.0265  0.0828 -0.2080
 3998W        W22202  16.412   7.940   0.076  0.1096 -0.0412 -0.1025
 3999W        W22203   8.306   2.874   2.161  0.0448 -0.2449 -0.1665
 4000W        W22204  13.452   0.476  16.016  0.1270 -0.0438  0.0736
 4001W        W22205   4.935   1.646  13.376  0.3207  0.1386  0.3208
 4002W        W22206  14.999   3.283   1.563  0.1309  0.1206  0.0649
 4003W        W22207   0.054   6.571   1.099  0.2784  0.1940 -0.0497
 4004W        W22208   2.717   5.516  14.028 -0.0310 -0.3303  0.2203
 4005W        W22209   9.375  14.928  16.041  0.2371  0.2154 -0.1283
 4006W        W22210   5.117  13.208  14.359  0.0548  0.2170 -0.0152
 4007W        W22211   1.875   2.961   1.233 -0.3893 -0.3931  0.0712
 4008W        W22212  10.547  16.380  11.303 -0.1402  0.0442 -0.1150
 4009W        W22213   4.097  17.118  13.853 -0.0843  0.1301 -0.0103
 4010W        W22214  13.438   0.053  15.153 -0.0607 -0.3942 -0.0445
 4011W        W22215  12.529   0.868   0.242  0.3698  0.0312  0.2828
 4012W        W22216  17.173  16.429  14.554 -0.2665  0.0012  0.1078
 4013W        W22217   3.833   2.566   2.711 -0.0627 -0.1912 -0.0138
 4014W        W22218   8.183   0.079   1.811 -0.3219 -0.0144  0.1432
 4015W        W22219   0.909   5.378  14.822  0.1615 -0.1700 -0.0054
 4016W        W22220  16.281  15.688  11.417 -0.3559 -0.2509 -0.0947
 4017W        W22221   1.119   3.891   1.141  0.1044  0.0854  0.1248
 4018W        W22222   8.585   5.726   3.901  0.0305 -0.0433 -0.0942
 4019W        W22223  17.414   2.848   3.258  0.0521 -0.1136 -0.2461
 4020W        W22224   3.871  12.330  15.931 -0.3802 -0.2478 -0.2487
 4021W        W22225  15.995  15.263   1.715 -0.1472 -0.2077 -0.2297
 4022W        W22226   3.835  16.402   1.950  0.0258  0.0155  0.0718
 4023W        W22227  11.945   0.786   4.367 -0.0023 -0.0493 -0.0146
 4024W        W22228  14.565  11.109  14.868 -0.0902  0.1016  0.1105
 4025W        W22229   3.719   8.673  14.190 -0.0001 -0.1778  0.3440
 4026W        W22230   0.214  13.070   1.469 -0.0955  0.0473  0.3169
 4027W        W22231   9.202   8.313  13.828  0.1100  0.2449  0.4259
 4028W        W22232  12.933  12.451  12.652  0.0301  0.1782 -0.2568
 4029W        W22233  16.107   6.380   4.855 -0.0325  0.1140 -0.0878
 4030W        W22234   5.313  11.623   2.209  0.1613  0.0710  0.1952
 4031W        W22235  14.134  16.252  15.422 -0.2914 -0.1564 -0.1326
 4032W        W22236   6.715   2.991   3.189 -0.2349  0.0423  0.1656
 4033W        W22237   7.656   5.858   0.006 -0.2763  0.2059 -0.0972
 4034W        W22238  14.723   5.215   0.195  0.2543  0.0498 -0.2347
 4035W        W22239   4.046  15.843  16.098 -0.0245  0.0559 -0.2758
 4036W        W22240   0.775   7.494   5.314  0.1877  0.1662 -0.3718
 4037W        W22241   6.268   1.764   4.088  0.1755  0.1698  0.2066
 4038W        W22242  16.102  11.079   3.074 -0.1085  0.3258 -0.0977
 4039W        W22243  12.593   3.739  14.140 -0.2139 -0.0409 -0.1596
 4040W        W22244  13.645   2.641  15.602 -0.0146 -0.2329  0.0369
 4041W        W22245  16.601  13.984  12.170 -0.0476  0.2241  0.0966
 4042W        W22246  10.073  15.047   2.852 -0.1639 -0.1060 -0.1940
 4043W        W22247  16.215  16.707  16.005 -0.0872 -0.1680 -0.1201
 4044W        W22248  10.712  16.819   4.658  0.0295 -0.1995 -0.1223
 4045W        W22249  13.608   2.779  10.622  0.0799  0.2042 -0.2777
 4046W        W22250  13.366  16.471   0.963  0.0415  0.1967  0.0122
 4047W        W22251   5.605  14.244   3.739  0.0091 -0.1442  0.0655
 4048W        W22252   7.204   2.701  11.238  0.2597  0.0028 -0.2151
 4049W        W22253  14.533  12.596   4.433  0.4271 -0.1204 -0.1290
 4050W        W22254   3.694  13.551  14.279  0.1047  0.2383  0.0753
 4051W        W22255   1.145   2.582  15.666 -0.1286 -0.1334 -0.2249
 4052W        W22256  11.221   1.095   4.429  0.1775  0.0586 -0.2028
 4053W        W22257   6.150  11.323   2.704 -0.1346  0.2504 -0.1340
 4054W        W22258  13.523   2.901  12.073 -0.1037  0.3576  0.1107
 4055W        W22259  10.304  11.543  12.126  0.3853 -0.1171  0.0694
 4056W        W22260  17.912   0.610   0.675 -0.3648  0.1405 -0.1727
 4057W        W22261  17.071  16.028   2.600 -0.0028  0.1045 -0.2685
 4058W        W22262  11.656   6.723   0.142  0.2366 -0.1553 -0.0398
 4059W        W22263   9.538   0.962   4.455  0.1256  0.2874 -0.2621
 4060W        W22264  12.046  15.193  12.619  0.3888  0.4173 -0.1070
 4061W        W22265   7.899   0.936  13.192 -0.0005 -0.0921 -0.1221
 4062W        W22266   7.229   1.057   1.781  0.2214  0.0669 -0.2004
 4063W        W22267  16.630  12.957  11.133  0.2720 -0.2499  0.1553
 4064W        W22268   7.306  16.129  10.014 -0.1693  0.1843  0.0300
 4065W        W22269   5.860  12.529   1.476 -0.0407 -0.2464 -0.0849
 4066W        W22270  10.544   3.943   0.965  0.0645  0.3241 -0.0186
 4067W        W22271   8.269   9.725   5.222 -0.3255  0.0500  0.2048
 4068W        W22272   4.545   7.735  14.983 -0.1065  0.1076 -0.0306
 4069W        W22273   4.165   2.398  11.799 -0.0874  0.0738  0.0822
 4070W        W22274   2.905   4.272  15.949 -0.1939  0.2556  0.0588
 4071W        W22275  14.283   9.550   0.366 -0.2649  0.0996  0.1471
 4072W        W22276   2.646   4.849  15.024  0.0279 -0.1595  0.1364
 4073W        W22277   5.185   0.933   1.190 -0.1052 -0.2251 -0.1837
 4074W        W22278   4.370  14.752  11.040 -0.2486  0.2380  0.0964
 4075W        W22279   3.467   5.795  14.200  0.2616 -0.2633 -0.1741
 4076W        W22280   2.897   2.005  15.415  0.0246  0.0545  0.1088
 4077W        W22281  12.822   0.021   2.825 -0.2671  0.5109  0.0392
 4078W        W22282  15.444  12.792  13.597 -0.1093  0.1216  0.2457
 4079W        W22283  17.844   7.557   4.255  0.2870  0.0909  0.0301
 4080W        W22284  13.834   9.434  13.403 -0.1349  0.0880 -0.1884
 4081W        W22285   9.245   4.417   3.903 -0.1904 -0.0642 -0.0331
 4082W        W22286   6.748  14.578   4.344  0.3553  0.0043 -0.0013
 4083W        W22287   7.037  11.720   2.293 -0.0391  0.2924 -0.0302
 4084W        W22288  13.843   2.735  14.526 -0.1630 -0.2454 -0.2112
 4085W        W22289  12.573   3.474   4.061  0.2282  0.0710 -0.4243
 4086W        W22290   5.455   4.234  13.295 -0.0734  0.1702 -0.0554
 4087W        W22291  14.878   4.774   5.868  0.0155  0.1428  0.1229
 4088W        W22292  11.694   9.375  15.937  0.2099  0.0207  0.0134
 4089W        W22293  16.707   3.144  15.340  0.1361  0.1399 -0.3772
 4090W        W22294   9.229   6.277  15.561 -0.1003 -0.0174  0.1924
 4091W        W22295   0.304  10.005  14.890 -0.1820  0.0481 -0.5118
 4092W        W22296   2.264  15.893  13.078  0.1882 -0.1581  0.3211
 4093W        W22297   7.481   1.288  12.003 -0.2364  0.1310  0.2393
 4094W        W22298  14.221  17.949  11.342 -0.1371  0.3764 -0.0708
 4095W        W22299   7.173  10.994   1.206  0.1057 -0.4162  0.0351
 4096W        W22300   9.453   1.903  10.714  0.1409  0.1889 -0.1657
 4097W        W22301  14.669   5.235   2.766 -0.1176 -0.1006 -0.2399
 4098W        W22302  14.277   2.915   4.384 -0.1558  0.1028  0.1201
 4099W        W22303   0.797  14.041  16.093 -0.2527  0.0738 -0.2003
 4100W        W22304   2.571   6.899   1.305 -0.1085 -0.3077  0.1599
 4101W        W22305  11.929  12.779   4.434 -0.0065  0.1703  0.1781
 4102W        W22306   8.904   5.101  13.441 -0.0125  0.0980  0.3001
 4103W        W22307  17.893  15.792  15.774  0.2884  0.1644 -0.3160
 4104W        W22308   6.318   2.126   3.599  0.0483  0.0402  0.0575
 4105W        W22309   5.304   5.721   0.194  0.3629 -0.2793 -0.0660
 4106W        W22310  12.298   3.589  12.825  0.1161  0.1504 -0.2316
 4107W        W22311   2.736  15.480  13.276  0.1645  0.0640  0.2438
 4108W        W22312   0.306   6.155   1.891 -0.0803 -0.1677 -0.0558
 4109W        W22313  17.939   2.424  12.165  0.0977  0.3415  0.1640
 4110W        W22314  10.117  17.162  11.349 -0.0757  0.0721 -0.2038
 4111W        W22315   0.266   6.842  15.978  0.0212  0.2661 -0.3258
 4112W        W22316   2.280  10.111   2.029  0.0903  0.0087  0.2256
 4113W        W22317   0.707   4.679  12.118  0.1006 -0.2629  0.0995
 4114W        W22318  13.956   1.051  13.882 -0.2161  0.1942 -0.0957
 4115W        W22319   9.929   0.968  13.830 -0.0448 -0.1020 -0.0431
 4116W        W22320   4.077   0.836   1.451 -0.0739  0.1796 -0.0686
 4117W        W22321   4.374  15.829  14.301 -0.0956  0.0371  0.1136
 4118W        W22322  16.954   1.724  12.913 -0.2338  0.5385 -0.0174
 4119W        W22323   6.347  16.315  15.159 -0.0080  0.3949 -0.0801
 4120W        W22324  17.349   0.579  15.331  0.1076 -0.1858  0.0605
 4121W        W22325   6.138  17.652  12.187  0.1567 -0.0042 -0.2342
 4122W        W22326  14.420  10.391   4.555  0.0566 -0.1497  0.2106
 4123W        W22327   6.763  17.413  11.585  0.1173 -0.0081 -0.2230
 4124W        W22328   2.165  13.410   3.059  0.3735 -0.0254  0.0956
 4125W        W22329   6.500   5.537   4.863  0.0070 -0.0104  0.0869
 4126W        W22330   7.518  17.587  16.133 -0.0613 -0.1438  0.0614
 4127W        W22331   1.501  12.354  15.303  0.0970 -0.2868  0.0078
 4128W        W22332   5.868   0.291   0.076 -0.3183  0.0954 -0.2122
 4129W        W22333  17.828   1.213   1.818  0.0652  0.0278 -0.3459
 4130W        W22334  17.827  12.284   2.834  0.0022 -0.1352  0.3781
 4131W        W22335   9.861  17.961  11.471 -0.2361  0.1929  0.1211
 4132W        W22336  10.334   7.954   3.260  0.0155  0.1824 -0.0091
 4133W        W22337   1.704   0.920  11.604 -0.3414  0.0071  0.2063
 4134W        W22338   5.763   8.758  13.594  0.2556  0.1532  0.0038
 4135W        W22339   6.225   4.384  10.782  0.2688  0.1508  0.0477
 4136W        W22340  14.060   7.387  14.019  0.0437  0.2181  0.3866
 4137W        W22341  12.433  12.881   4.531 -0.1363 -0.1534 -0.2790
 4138W        W22342  15.479  13.743   1.010 -0.0050 -0.0653  0.2175
 4139W        W22343   5.233  12.175   2.086 -0.4668 -0.3238  0.2673
 4140W        W22344   3.535   3.870   0.195  0.3429  0.1341  0.0650
 4141W        W22345   9.517  15.895   0.124  0.0454 -0.0197  0.0621
 4142W        W22346  17.597   0.908   1.474 -0.3671  0.1120  0.1235
 4143W        W22347   1.411  10.445  15.482 -0.0311 -0.1971 -0.2916
 4144W        W22348   5.874   4.540   1.425  0.0231  0.4073  0.0656
 4145W        W22349   4.721   9.502  12.088  0.0685 -0.0729 -0.0660
 4146W        W22350   0.458  10.545  15.738 -0.0010  0.2341  0.2225
 4147W        W22351   9.813  14.310   4.562 -0.1842 -0.1725  0.0640
 4148W        W22352  17.168  16.973   1.183  0.0447  0.0662 -0.0840
 4149W        W22353   0.315  17.479  10.958 -0.2071 -0.1143  0.4633
 4150W        W22354   7.728  12.415  13.805  0.0774 -0.3550 -0.3092
 4151W        W22355  16.332  12.525  14.804  0.0638  0.1851 -0.1428
 4152W        W22356   7.076   7.492   3.010  0.0110 -0.1321  0.0053
 4153W        W22357  14.565  14.137  12.935 -0.0203  0.1677 -0.1509
 4154W        W22358  12.942   1.721   3.162 -0.0636 -0.1400  0.1680
 4155W        W22359  14.845  10.616   4.356 -0.0342 -0.0820 -0.3768
 4156W        W22360  17.640   5.076   0.645 -0.0979 -0.0790 -0.1385
 4157W        W22361   3.144   5.998   2.973 -0.3148 -0.0633 -0.0799
 4158W        W22362   3.267   1.242  13.213 -0.0001  0.0597 -0.0337
 4159W        W22363   6.409  10.947   4.519  0.0411 -0.0088 -0.3992
 4160W        W22364   5.860  16.204  13.796 -0.1529  0.1318 -0.0465
 4161W        W22365   3.287   9.623  15.830 -0.1750 -0.0411 -0.2217
 4162W        W22366  12.943   5.974   0.226  0.1973  0.0376  0.1502
 4163W        W22367  12.717   7.744   1.634 -0.0333  0.3949 -0.0719
 4164W        W22368   9.849   2.987  11.825 -0.1064 -0.0564 -0.1642
 4165W        W22369   5.751   5.687  14.172  0.0570 -0.1447  0.2575
 4166W        W22370   4.305  15.917   5.067 -0.0585 -0.0405 -0.2778
 4167W        W22371   9.643   8.399  15.988 -0.1183  0.3413 -0.1953
 4168W        W22372   4.469   2.762   1.677  0.1025  0.2598 -0.1228
 4169W        W22373   7.475  10.876  11.468 -0.0293 -0.0834  0.1047
 4170W        W22374   1.877   1.331   4.473  0.0331  0.1760  0.0880
 4171W        W22375   1.224   9.599  12.860  0.2003  0.0150  0.0283
 4172W        W22376  12.162   7.488  14.772  0.1988  0.2699  0.0168
 4173W        W22377  10.431   8.166   1.074  0.0096 -0.0270 -0.2800
 4174W        W22378  10.384  17.883   2.959  0.1908  0.0563 -0.1614
 4175W        W22379  14.677   9.974   1.538 -0.2076 -0.0594 -0.0929
 4176W        W22380   2.419  12.336  12.046  0.1878  0.1107  0.0546
 4177W        W22381   9.621   5.541  12.716  0.0882 -0.1504  0.2870
 4178W        W22382  10.045  15.938   4.324 -0.0319  0.1823  0.1325
 4179W        W22383  16.631   2.931   2.540  0.1951  0.1185  0.0564
 4180W        W22384   5.905  17.564   0.841 -0.1027  0.2376  0.0919
 4181W        W22385  11.345   2.270   0.802 -0.0333 -0.2047  0.1316
 4182W        W22386   3.740   8.638  10.973 -0.1431 -0.4737 -0.1946
 4183W        W22387  11.799  14.146  13.318 -0.0272 -0.0024  0.1440
 4184W        W22388   0.913   1.845   2.812 -0.2905  0.1466 -0.0949
 4185W        W22389  16.843   1.425   3.111 -0.1038  0.0617  0.3840
 4186W        W22390   4.703   4.020   3.068 -0.1441  0.0314 -0.1407
 4187W        W22391  13.188   3.797  14.979 -0.1097  0.1315  0.2329
 4188W        W22392   6.395  16.650   2.048  0.0697 -0.2063 -0.1165
 4189W        W22393   3.736  10.847  15.064 -0.1974  0.0853  0.1436
 4190W        W22394   1.875  11.185   0.220  0.2531  0.1102  0.2011
 4191W        W22395  17.905   8.198  14.047 -0.1881 -0.2420  0.2604
 4192W        W22396   2.867   0.786   4.613 -0.0785  0.0704 -0.0238
 4193W        W22397   4.075   1.110  13.190  0.3072  0.1835  0.1303
 4194W        W22398  11.274   2.843   3.144  0.0197  0.0881 -0.2519
 4195W        W22399   7.072  17.058   9.726  0.0635 -0.1826  0.0722
 4196W        W22400  15.436   5.234  12.704  0.1332  0.0226 -0.0303
 4197W        W22401  16.852   7.580  13.905 -0.1651 -0.3443 -0.0287
 4198W        W22402   4.150  16.226   2.747  0.0296 -0.3486 -0.0691
 4199W        W22403   1.069   4.250  14.983  0.0793  0.3749 -0.1305
 4200W        W22404   6.879   0.339   1.699  0.0642 -0.0961  0.2971
 4201W        W22405   6.232   8.150  15.794  0.0698 -0.2448  0.1568
 4202W        W22406   7.324  15.121  15.944  0.3967 -0.0989 -0.2046
 4203W        W22407   3.965  17.521  14.192  0.0253 -0.1578  0.1187
 4204W        W22408   2.080  17.402   3.379 -0.1466 -0.0535  0.0955
 4205W        W22409   8.057  16.271  15.197 -0.0023 -0.1589 -0.1214
 4206W        W22410   6.181   3.499  11.086 -0.2092  0.0956  0.0778
 4207W        W22411  16.142   7.485   4.090  0.1370  0.0799 -0.0426
 4208W        W22412   0.077  13.654  12.535  0.1556 -0.0010 -0.0333
 4209W        W22413   0.931   8.684  15.973 -0.0149 -0.0278 -0.2998
 4210W        W22414   8.355   7.840  11.910  0.1512 -0.1398  0.1821
 4211W        W22415  12.203  17.597  14.677 -0.1128 -0.2734 -0.0507
 4212W        W22416   1.329   6.246   3.506 -0.2546 -0.1366 -0.0690
 4213W        W22417   8.358   4.086   2.373 -0.0593 -0.1965 -0.2604
 4214W        W22418   7.145   8.762   5.454 -0.0839  0.1682 -0.3651
 4215W        W22419   1.738  11.202   1.567  0.2255 -0.1317  0.0435
 4216W        W22420  15.896  16.807   3.316 -0.2129 -0.1202  0.1163
 4217W        W22421   5.356  10.329   2.562  0.1395  0.0954 -0.0240
 4218W        W22422   6.439   0.064  15.490 -0.0335  0.0448  0.0892
 4219W        W22423   4.050  17.855   1.160 -0.0577 -0.2415 -0.0898
 4220W        W22424  10.410   6.734  11.496  0.3892 -0.2581 -0.0018
 4221W        W22425  13.717   6.816  14.590  0.1742 -0.0507 -0.1610
 4222W        W22426   7.538  16.730  14.210  0.0839 -0.0618 -0.2250
 4223W        W22427  16.978  11.177   0.035 -0.0855 -0.1319 -0.0156
 4224W        W22428  13.536   4.741   1.630  0.0052 -0.0149 -0.0643
 4225W        W22429   8.852   3.539  12.416  0.0696 -0.2163  0.0259
 4226W        W22430   5.007  13.604  12.113  0.0263  0.2018  0.1632
 4227W        W22431   1.674   5.583  15.030 -0.0434  0.1199  0.0681
 4228W        W22432  15.096   1.643  14.314 -0.0851  0.1799  0.0261
 4229W        W22433  12.913   3.090  15.950  0.3388 -0.1382  0.0660
 4230W        W22434  10.331   7.602   2.877  0.0353  0.1199 -0.2620
 4231W        W22435   0.889  17.725   3.968  0.0044 -0.1277  0.1129
 4232W        W22436  13.878  10.405   4.841 -0.0382 -0.0097 -0.0494
 4233W        W22437   0.501   6.527   2.233 -0.1469  0.3471  0.1865
 4234W        W22438  12.095   1.970   3.673 -0.1411 -0.0810  0.2227
 4235W        W22439   3.841  16.556  12.026 -0.1378 -0.1236  0.1658
 4236W        W22440   0.095   2.066   0.200 -0.0293  0.1792  0.1879
 4237W        W22441   2.021   9.536  11.926 -0.1847 -0.1850  0.1164
 4238W        W22442   6.855   7.652  12.601  0.0151  0.0875  0.0066
 4239W        W22443  16.285   6.545  11.634  0.0252  0.0670  0.1222
 4240W        W22444  17.883   1.485   4.531 -0.3816 -0.0718 -0.0332
 4241W        W22445  12.425   2.115   1.252 -0.1306  0.4366 -0.0105
 4242W        W22446   7.249   4.243   1.097  0.0408 -0.2217 -0.0411
 4243W        W22447   6.775   8.865  13.151  0.0980 -0.0047 -0.2676
 4244W        W22448   0.240   4.139  15.875 -0.2416 -0.0998  0.2280
 4245W        W22449  13.711  14.087   2.621 -0.0887  0.0618 -0.0916
 4246W        W22450   5.106   1.517   4.324 -0.1000  0.0002  0.1127
 4247W        W22451  13.690  13.826   1.031  0.1983 -0.1972 -0.0663
 4248W        W22452   3.560   6.932  13.903  0.0623 -0.2955  0.0144
 4249W        W22453   7.957  16.391   0.199  0.1402  0.1440  0.0723
 4250W        W22454  15.646   5.391   3.956 -0.2418  0.4203  0.2599
 4251W        W22455   0.428   7.729   2.397 -0.2091 -0.1508  0.1062
 4252W        W22456   7.371   2.174   3.290  0.1667  0.1871  0.0168
 4253W        W22457   2.296   8.106  15.263  0.0437 -0.0055  0.0549
 4254W        W22458  10.164  17.322   3.165  0.0949  0.1368 -0.1973
 4255W        W22459   0.835  12.740   0.790 -0.3515  0.2233  0.2344
 4256W        W22460   6.856   7.003   5.799  0.0540  0.2480  0.0764
 4257W        W22461   5.443   8.925  12.336  0.0389  0.1817 -0.2452
 4258W        W22462  18.013   9.608   2.200 -0.0259 -0.1493  0.1092
 4259W        W22463  12.350  15.167   1.804  0.2165 -0.3183 -0.4464
 4260W        W22464  15.047   7.099  15.924 -0.1141  0.1895 -0.1260
 4261W        W22465   3.567  14.733  15.061 -0.1128 -0.3039 -0.1388
 4262W        W22466   1.466  14.151  11.840 -0.2209 -0.0006  0.2157
 4263W        W22467   6.792  14.084   1.556  0.1085 -0.2015  0.0533
 4264W        W22468   9.231  15.417  12.385  0.0980 -0.2210  0.2921
 4265W        W22469   4.509   7.273  12.197 -0.0106  0.3272 -0.2378
 4266W        W22470   6.811  10.621  15.406 -0.2087 -0.3483  0.3229
 4267W        W22471   4.591  16.413  15.635  0.3076 -0.3328  0.3650
 4268W        W22472   6.175  13.576   4.003 -0.0621 -0.1265 -0.0270
 4269W        W22473  16.998   4.205  12.978 -0.3432 -0.4655 -0.0987
 4270W        W22474  10.953   8.893   0.712 -0.0393  0.1093  0.0519
 4271W        W22475   4.645  16.007   0.635 -0.1186 -0.1998  0.0295
 4272W        W22476  16.126  10.785   5.305  0.2515 -0.0064 -0.1314
 4273W        W22477  15.447  13.716   4.363 -0.4695  0.0985 -0.0804
 4274W        W22478  11.495   5.413  12.204  0.1178  0.0089 -0.0019
 4275W        W22479   9.730  17.204  14.077  0.1417  0.1508 -0.1847
 4276W        W22480  16.239  12.850  12.890  0.1266  0.0259  0.1017
 4277W        W22481   7.396   3.672   2.916  0.0933 -0.1028  0.1740
 4278W        W22482   7.301   2.890   4.143  0.0493  0.0636  0.1616
 4279W        W22483  13.030  17.698  15.887 -0.0601  0.0813  0.0216
 4280W        W22484  12.759   0.840  15.123  0.1298 -0.1764 -0.3058
 4281W        W22485   3.281  13.563   1.729  0.0550 -0.3611  0.0845
 4282W        W22486   3.921   9.293  14.122  0.0189  0.1934 -0.1145
 4283W        W22487   8.247   4.215   2.839  0.1200  0.1108  0.0146
 4284W        W22488  13.124   7.082  15.384 -0.3776  0.2095 -0.2361
 4285W        W22489   3.576  12.883   4.844 -0.1955  0.0975  0.1631
 4286W        W22490   0.616  15.803   1.194  0.2124 -0.2599 -0.3261
 4287W        W22491  10.639  17.084  12.035  0.4028 -0.1423 -0.1976
 4288W        W22492   0.206   2.541  11.771  0.0027  0.0251  0.0417
 4289W        W22493   0.868   1.967  12.074  0.2464 -0.1256  0.0202
 4290W        W22494   1.401   6.143   0.466  0.1624 -0.1736  0.1923
 4291W        W22495   4.162  13.099   3.668 -0.1739  0.2674 -0.0145
 4292W        W22496   9.259   0.464  15.086 -0.0359  0.2500 -0.2287
 4293W        W22497  17.688  17.944   5.413  0.0423 -0.1900 -0.0832
 4294W        W22498   9.447   3.243   2.248  0.1080 -0.1435 -0.2661
 4295W        W22499  17.250  16.751  14.192 -0.0041 -0.0886 -0.0300
 4296W        W22500   6.669  16.446  12.770 -0.0119  0.1632 -0.1068
 4297W        W22501   1.563  12.602   3.337  0.2495  0.0897  0.0384
 4298W        W22502   0.116   6.776   4.585  0.3370  0.2763  0.0518
 4299W        W22503  12.537   9.282   1.326  0.0460  0.0441  0.0029
 4300W        W22504  16.028   2.048  13.441  0.0970  0.2335  0.1463
 4301W        W22505   8.809   6.520  15.774 -0.0975  0.0927 -0.2299
 4302W        W22506   1.845   7.197  13.078 -0.0771 -0.0883 -0.1861
 4303W        W22507   0.700   0.473   0.593 -0.0214  0.3666 -0.1948
 4304W        W22508  17.559  17.489  11.319  0.0162 -0.0064 -0.0212
 4305W        W22509  11.780  14.097   4.418 -0.1399 -0.2927 -0.2600
 4306W        W22510  10.341  10.128   0.479  0.1257 -0.2450 -0.2110
 4307W        W22511   9.238   1.841   4.149 -0.0514 -0.0163 -0.2333
 4308W        W22512  17.603  14.446  11.031  0.1380  0.1863 -0.1995
 4309W        W22513   8.577   7.746  13.877 -0.4286 -0.0173  0.0046
 4310W        W22514  13.747   4.013   2.640 -0.3224  0.0200 -0.0245
 4311W        W22515   5.010  15.510  11.427 -0.2684 -0.1184  0.0683
 4312W        W22516  17.393   4.711  12.433 -0.0422 -0.2687  0.0554
 4313W        W22517   5.484   6.486  12.642  0.1090  0.0896 -0.1270
 4314W        W22518   7.940  12.116   4.416 -0.1209  0.1737 -0.1893
 4315W        W22519   6.933   8.194   1.271  0.2230 -0.1845  0.0339
 4316W        W22520   7.705  15.052   0.227  0.1045  0.2627 -0.1472
 4317W        W22521  11.087   4.746   5.084 -0.4089  0.0487  0.0834
 4318W        W22522   0.671   0.720   4.326  0.0451  0.0214 -0.2002
 4319W        W22523  17.991   6.400   5.065  0.0982  0.2343  0.3816
 4320W        W22524   1.024   2.251  12.461  0.0126 -0.1066 -0.0911
 4321W        W22525   8.324  13.072  12.069  0.0652  0.1702 -0.0585
 4322W        W22526  16.917   5.863   3.595  0.2186 -0.1619 -0.0897
 4323W        W22527  10.605  13.763   2.840 -0.0283 -0.0974  0.0646
 4324W        W22528  13.412   0.631   4.359 -0.0485  0.1077  0.2596
 4325W        W22529   9.226   6.192   1.140  0.1145 -0.0813  0.1450
 4326W        W22530   3.430  11.734  11.500 -0.3097 -0.0674 -0.0194
 4327W        W22531  11.932   4.467  13.209  0.0844  0.1975 -0.2723
 4328W        W22532   1.771   1.949  12.268  0.0012 -0.0314 -0.0615
 4329W        W22533   0.541   0.538  10.923 -0.1327 -0.0348 -0.2323
 4330W        W22534   2.125  15.642  11.783  0.2789  0.2706 -0.0040
 4331W        W22535   7.817  15.953   0.595 -0.0507  0.4413  0.1711
 4332W        W22536  18.012   5.552   3.322 -0.3017  0.1840 -0.2137
 4333W        W22537   6.589  16.539  14.281 -0.1421 -0.2858 -0.0507
 4334W        W22538  15.728   7.632   3.786 -0.0335 -0.0932  0.0140
 4335W        W22539  16.378   4.823  12.147 -0.2709  0.1677  0.0277
 4336W        W22540  17.449  13.289   3.348  0.1565 -0.1535 -0.0968
 4337W        W22541  12.470  14.522   0.766 -0.0551  0.1856 -0.0922
 4338W        W22542  15.117   0.218  11.794 -0.1118 -0.1836  0.1089
 4339W        W22543   4.359   6.541  14.871  0.3113 -0.2808 -0.4638
 4340W        W22544  13.564  11.712  14.359 -0.2437 -0.4140  0.4853
 4341W        W22545   1.862  14.470   2.355  0.4258 -0.2462 -0.0801
 4342W        W22546  14.708  12.906  15.159  0.3037  0.2627  0.2297
 4343W        W22547   0.715   5.034   1.733 -0.2663  0.2111  0.1902
 4344W        W22548  14.525  15.416  12.049 -0.0302 -0.0595  0.0566
 4345W        W22549   8.710  11.780  12.473 -0.3468 -0.4610  0.0984
 4346W        W22550  10.078   1.899   3.157 -0.0319 -0.1308 -0.3032
 4347W        W22551  15.104   8.834   3.443  0.4278 -0.3176 -0.0100
 4348W        W22552   2.281  11.760  10.778  0.0632  0.3049  0.1682
 4349W        W22553  10.200  15.500   3.118 -0.2124 -0.1949 -0.1244
 4350W        W22554   9.202  13.381  12.385  0.0381  0.0201 -0.3118
 4351W        W22555  11.320  14.951   1.382  0.2173 -0.0848  0.0752
 4352W        W22556   1.558  17.247   3.231 -0.0955 -0.5758  0.0315
 4353W        W22557   3.514   1.931  14.153  0.4022  0.0186 -0.0822
 4354W        W22558   7.377  12.000   0.098 -0.0487  0.2039  0.1255
 4355W        W22559   3.180   9.909   0.490 -0.2275 -0.0951  0.0767
 4356W        W22560  11.502   0.581   4.252 -0.2543 -0.1937  0.1614
 4357W        W22561  14.726   1.003   1.184 -0.0132  0.0855  0.1243
 4358W        W22562   5.584   8.614  15.017 -0.1225 -0.3735 -0.1095
 4359W        W22563  12.148  10.104   0.311  0.2292 -0.1430 -0.0370
 4360W        W22564   6.113   6.189  12.921 -0.1148 -0.2014 -0.0095
 4361W        W22565   3.604   6.817  15.360  0.0534  0.3783  0.2989
 4362W        W22566  16.095  14.739   2.384 -0.0221 -0.0096  0.2904
 4363W        W22567   2.531  11.863   4.432 -0.1744 -0.2044  0.2039
 4364W        W22568  12.070   4.992   0.300  0.0308 -0.0875 -0.2390
 4365W        W22569  17.257  16.493  13.653 -0.0494  0.1344  0.0123
 4366W        W22570   7.986   6.896  13.079 -0.0253 -0.3754  0.1744
 4367W        W22571  10.061  15.424  12.819  0.4365  0.7185  0.1063
 4368W        W22572  16.884   4.262   3.305 -0.2006  0.2182 -0.1969
 4369W        W22573   6.073  13.257  10.784 -0.0656 -0.1014  0.2422
 4370W        W22574   0.850   1.334  15.595 -0.3155  0.1482  0.0864
 4371W        W22575  15.681  11.168  12.320 -0.1318 -0.4173 -0.2303
 4372W        W22576  11.697   8.566  14.801 -0.0042  0.0239  0.0789
 4373W        W22577  14.105   8.632  12.716 -0.0604 -0.2691  0.4000
 4374W        W22578  12.173  12.080   1.967  0.2080 -0.2337 -0.2541
 4375W        W22579   3.862   8.960   4.679  0.0334 -0.2107 -0.0206
 4376W        W22580  10.098   5.706  11.746  0.1377  0.2626 -0.1144
 4377W        W22581  16.802   0.243  14.626 -0.0849  0.1670  0.0989
 4378W        W22582   7.335   2.827   3.188  0.1711  0.1818  0.2800
 4379W        W22583   7.648  12.206  12.678 -0.0663  0.2540 -0.2765
 4380W        W22584  16.387   3.655   2.598  0.0623  0.0526 -0.0256
 4381W        W22585   8.868   4.929  14.726  0.2298 -0.2612  0.1908
 4382W        W22586   4.123  15.387  14.213 -0.0245 -0.0345  0.4240
 4383W        W22587   6.806  15.927   5.628  0.0820 -0.2738  0.2991
 4384W        W22588   8.840   9.034   3.915 -0.0271  0.0518 -0.0440
 4385W        W22589  17.482   0.595   3.275 -0.2107  0.1437  0.2148
 4386W        W22590   2.902   8.562  13.265 -0.2195 -0.0464  0.4255
 4387W        W22591   0.511   3.345   4.422  0.2169  0.0512  0.1759
 4388W        W22592   8.747   3.671   1.094  0.0445  0.1489  0.2762
 4389W        W22593   9.341  16.745  12.156  0.2672 -0.1713  0.0909
 4390W        W22594   9.075  11.403  15.344  0.1106  0.0744  0.0619
 4391W        W22595  11.059  14.069   3.783  0.0770  0.3241 -0.0907
 4392W        W22596   6.344  15.041   3.790 -0.0771 -0.0765  0.1806
 4393W        W22597   6.646  13.325  11.480 -0.0038  0.3671 -0.0846
 4394W        W22598   8.498   9.436   3.327 -0.3994  0.1348 -0.1953
 4395W        W22599   3.892   1.143   0.411 -0.1817  0.1525  0.0979
 4396W        W22600   0.358   0.523   1.418  0.2905 -0.2422 -0.1916
 4397W        W22601  12.947   5.081   2.150 -0.1438 -0.2070  0.1482
 4398W        W22602   5.450  15.040   1.198  0.0949  0.1073 -0.1899
 4399W        W22603  11.820   0.113   3.685 -0.2544  0.1338  0.0755
 4400W        W22604   6.864  17.334   2.413  0.2931 -0.0522  0.1023
 4401W        W22605  18.018   6.773  12.902 -0.0200 -0.0061 -0.0471
 4402W        W22606  10.084  11.370  13.797 -0.1436  0.2828 -0.1522
 4403W        W22607   9.422  14.079   5.517  0.1249 -0.1381  0.0152
 4404W        W22608   6.897   1.826  13.433  0.0034  0.1547 -0.1537
 4405W        W22609  14.152  11.993   3.200 -0.2780  0.0795  0.0414
 4406W        W22610   4.845   2.107  14.422 -0.2319 -0.1160  0.0545
 4407W        W22611  10.696   4.226   4.006 -0.1409 -0.1920  0.2745
 4408W        W22612  17.006  10.432   5.014  0.1256  0.0243 -0.2829
 4409W        W22613   4.098  11.178   0.540  0.0124 -0.0208 -0.0795
 4410W        W22614   2.005  15.723  11.240  0.0499 -0.0198  0.3163
 4411W        W22615  13.802  13.618  12.290 -0.0795  0.0684 -0.0294
 4412W        W22616   2.973  17.769  15.819  0.0482 -0.1663  0.1231
 4413W        W22617  12.532   8.320   3.013 -0.1192 -0.1553  0.1096
 4414W        W22618  16.385   5.606   1.725  0.1148  0.4781  0.6185
 4415W        W22619   7.678   3.998  12.739  0.1176 -0.2995 -0.2144
 4416W        W22620  11.151   2.424   2.025 -0.1615  0.2241 -0.0985
 4417W        W22621  17.134   3.272  14.855 -0.1939  0.0704 -0.1730
 4418W        W22622  16.763  16.968   2.150 -0.0850  0.1468  0.1098
 4419W        W22623  13.326   0.691   2.211 -0.0616  0.4345 -0.4244
 4420W        W22624  17.106  14.133   3.192  0.0490 -0.3642  0.0455
 4421W        W22625   4.643   8.250   1.756 -0.0899 -0.2989  0.0942
 4422W        W22626  16.690  12.286   1.147 -0.3602  0.0753  0.0077
 4423W        W22627   9.266  11.529  14.268  0.0566  0.1367  0.2337
 4424W        W22628   1.879   7.907  15.131  0.2297  0.0258 -0.0766
 4425W        W22629   3.828   7.964  12.568 -0.0167 -0.3026 -0.0800
 4426W        W22630  11.833   1.048   3.366  0.0555  0.0107 -0.0306
 4427W        W22631  11.996  10.080  11.663  0.2658  0.4805 -0.0212
 4428W        W22632   5.613  10.008  13.654 -0.1484 -0.1235 -0.0559
 4429W        W22633   9.666   8.883  12.667  0.1176 -0.0511  0.1128
 4430W        W22634   6.120  12.960   3.447  0.1180  0.1107  0.1907
 4431W        W22635   7.930   7.033   2.653 -0.1776 -0.2403 -0.2539
 4432W        W22636   2.313   6.904  16.143 -0.0651 -0.1250  0.2000
 4433W        W22637  15.576   4.163   4.521  0.0053  0.1480  0.1420
 4434W        W22638   0.760   1.746   2.270 -0.1036 -0.1320 -0.0569
 4435W        W22639   5.024  17.139   1.354  0.0694 -0.0500 -0.0603
 4436W        W22640  16.404   5.903  15.043 -0.0145  0.0463  0.1127
 4437W        W22641  16.028  15.110   5.325  0.1786  0.0910 -0.0963
 4438W        W22642  10.566   2.406  12.560 -0.1352  0.0855  0.0851
 4439W        W22643   5.783  16.206  11.710  0.1732 -0.1283  0.2196
 4440W        W22644   5.686   9.556  15.127  0.1143 -0.0523 -0.0460
 4441W        W22645  16.037  15.521   3.020 -0.1223 -0.0831  0.1621
 4442W        W22646  11.480   7.343   1.558 -0.1232  0.0536 -0.2282
 4443W        W22647   2.772   5.074   3.789  0.3317 -0.1527  0.3396
 4444W        W22648   4.046  14.764   4.739  0.1717  0.2952  0.4240
 4445W        W22649   4.078  11.100   1.248  0.1953 -0.0680 -0.0516
 4446W        W22650  15.056   6.157   0.063  0.0121  0.2624 -0.1143
 4447W        W22651  10.969   4.786   1.195 -0.1046 -0.2536  0.2228
 4448W        W22652  12.373   6.671  11.795  0.3404  0.0231 -0.4074
 4449W        W22653  13.603   4.429  11.400  0.1885  0.2110  0.1692
 4450W        W22654   4.182  13.405   0.154  0.1713 -0.0422  0.0240
 4451W        W22655   5.501  12.088  11.232 -0.1035  0.0266 -0.0055
 4452W        W22656  16.155   6.666   0.873  0.1257 -0.2118  0.4277
 4453W        W22657   9.112  16.023   0.971 -0.3483  0.2192 -0.1797
 4454W        W22658   7.173  15.653   2.591  0.0173  0.0897  0.0296
 4455W        W22659  10.790   8.603  13.390 -0.0077 -0.1983  0.1847
 4456W        W22660   3.017   7.604  12.624  0.0516 -0.0209  0.4209
 4457W        W22661  10.952  13.936  11.427 -0.2304  0.4083  0.0541
 4458W        W22662   7.891   4.676   0.302 -0.0768 -0.0479 -0.1986
 4459W        W22663   7.728   9.072   3.501  0.2251  0.1432 -0.2757
 4460W        W22664  13.425  16.481  14.745 -0.0834  0.4315  0.2420
 4461W        W22665  15.701  14.575   2.039  0.1208  0.1193  0.0236
 4462W        W22666   4.212   1.122  11.868  0.2934 -0.0146 -0.0269
 4463W        W22667  10.231   5.355   1.613  0.2402  0.0182 -0.1075
 4464W        W22668   3.254   3.669  12.768  0.0301  0.3243  0.2443
 4465W        W22669   1.895   8.895  14.216  0.1400  0.0855  0.1791
 4466W        W22670   5.172  12.330   5.040 -0.0573 -0.2186  0.1366
 4467W        W22671  16.543   8.661   2.298 -0.0583  0.2222 -0.0763
 4468W        W22672   4.948  13.847   0.251 -0.0596  0.2318  0.1531
 4469W        W22673  15.530  10.521  15.425  0.0088 -0.0128 -0.2972
 4470W        W22674  13.201  14.707   3.228  0.3065  0.0579 -0.0236
 4471W        W22675   0.355  11.154  12.056 -0.0962  0.2421 -0.0527
 4472W        W22676   9.703   7.564  11.911  0.1213  0.2258 -0.1423
 4473W        W22677  14.880   7.832  15.599  0.0587  0.0417  0.3356
 4474W        W22678   1.422   4.144  12.200 -0.0815  0.2660 -0.0630
 4475W        W22679  16.148  12.047  10.242 -0.1012 -0.0170 -0.1481
 4476W        W22680  11.407  14.873  11.459 -0.1825 -0.0397  0.0926
 4477W        W22681   5.308   5.381  15.235 -0.2281 -0.0823  0.1589
 4478W        W22682  16.430  12.338  11.651  0.0502 -0.1541  0.0138
 4479W        W22683   8.896   3.633   0.489 -0.2273 -0.0073 -0.2306
 4480W        W22684  17.563  18.032   4.421  0.0414  0.0733 -0.0401
 4481W        W22685   6.174  15.869  12.629  0.0541  0.1842  0.1633
 4482W        W22686   5.651  15.609   4.745  0.1084  0.2146 -0.2481
 4483W        W22687   5.686  11.885   1.153 -0.2058 -0.1502 -0.0777
 4484W        W22688   5.760   7.689  16.022  0.2082 -0.0612 -0.0685
 4485W        W22689   2.435   6.196   3.665 -0.1704  0.1972 -0.0341
 4486W        W22690   7.295  10.541   1.077  0.0743 -0.1122  0.2687
 4487W        W22691   5.017   9.186  13.638  0.0714  0.0896 -0.0972
 4488W        W22692   0.141   9.302  11.922 -0.0217 -0.0651  0.0873
 4489W        W22693  15.746   5.012   0.795 -0.2498 -0.0458 -0.0480
 4490W        W22694   7.694   3.432  12.965  0.2927  0.0641  0.2319
 4491W        W22695  11.175   0.188   4.152  0.3147 -0.1932  0.0990
 4492W        W22696  10.731  15.483  13.266  0.0374 -0.2254 -0.0422
 4493W        W22697  16.031   9.423  14.664 -0.1330  0.1084  0.1709
 4494W        W22698  12.290  16.743  12.770 -0.0789 -0.0981 -0.2668
 4495W        W22699   3.166   9.860  12.823  0.1062 -0.0309 -0.1232
 4496W        W22700  14.244  11.247  13.409 -0.0080 -0.0343  0.0421
 4497W        W22701   9.571   6.297   0.651 -0.3371 -0.4334  0.0249
 4498W        W22702  11.070  15.478   0.653 -0.1064  0.0689  0.1047
 4499W        W22703   7.744  14.347  15.709  0.0406  0.1822 -0.1517
 4500W        W22704   8.397   9.383   1.386  0.1396 -0.0785 -0.1044
 4501W        W22705   3.806   4.606  16.068 -0.1009  0.1795 -0.3164
 4502W        W22706  16.887   9.451  11.239  0.1773 -0.1448  0.1054
 4503W        W22707  15.738  14.276  15.367 -0.1373  0.0787  0.2010
 4504W        W22708  17.969   9.165  13.224  0.1184 -0.2475  0.0543
 4505W        W22709  17.171   0.233  11.023  0.2181  0.0676  0.0515
 4506W        W22710   8.790   2.488   3.958 -0.1470  0.1677  0.0911
 4507W        W22711   6.588  13.452   4.782  0.1388  0.0807 -0.0441
 4508W        W22712   3.531   8.865   1.559 -0.0667  0.0725  0.0059
 4509W        W22713   5.877  13.579   2.597 -0.1274 -0.1786 -0.2859
 4510W        W22714  15.064   9.476  12.911 -0.1919  0.1554  0.1891
 4511W        W22715  11.487   8.698   4.273 -0.1926  0.0310  0.0998
 4512W        W22716   6.054  13.145  15.057 -0.2769 -0.2075 -0.1697
 4513W        W22717  16.258   4.622   3.686  0.0670 -0.0857 -0.0242
 4514W        W22718   1.599   4.356  10.443 -0.0186 -0.0093 -0.1172
 4515W        W22719  15.145  12.433   3.615 -0.1535 -0.3752 -0.0155
 4516W        W22720   1.943  14.167  15.991 -0.0319 -0.1989  0.0387
 4517W        W22721  14.652   7.923   0.806  0.1228  0.0131  0.1180
 4518W        W22722   3.366  12.049  13.893 -0.0888 -0.3810 -0.1638
 4519W        W22723  10.323   2.661  15.174 -0.2122  0.0917  0.1552
 4520W        W22724  16.328   7.734  15.712  0.0922  0.3309 -0.0353
 4521W        W22725   3.594  15.224   2.558  0.1788  0.1402 -0.0184
 4522W        W22726   1.351   6.203  13.740  0.2774 -0.2736  0.0006
 4523W        W22727  12.577  17.392  10.144  0.1599 -0.2255 -0.1061
 4524W        W22728  11.608   2.390   3.099  0.1898  0.1719 -0.0417
 4525W        W22729  17.929   4.990  14.111 -0.1115 -0.1146  0.0716
 4526W        W22730   9.328  12.405  13.220  0.1948 -0.2798 -0.2670
 4527W        W22731  17.375   8.480   4.208  0.0259  0.0736  0.1044
 4528W        W22732   7.035   4.442  14.683  0.1797  0.3461  0.2088
 4529W        W22733  11.201  16.953   3.099 -0.0095 -0.2758  0.1637
 4530W        W22734   2.984  17.675   0.674  0.1242  0.1521  0.1993
 4531W        W22735   1.391  10.984   0.243 -0.2719 -0.0333 -0.0176
 4532W        W22736   6.389   8.968   2.284 -0.2441 -0.0861 -0.0574
 4533W        W22737   2.515  13.818   0.341 -0.2623  0.3805  0.1320
 4534W        W22738   1.558  16.449   3.868 -0.0792 -0.1768  0.0058
 4535W        W22739  12.347   1.971  13.297  0.1484 -0.3418 -0.3183
 4536W        W22740   2.018  10.377   3.622 -0.1386  0.2263 -0.0150
 4537W        W22741  11.976   7.825  14.461  0.0006 -0.1783 -0.2043
 4538W        W22742  13.805  12.363   0.115 -0.1639  0.0904 -0.1463
 4539W        W22743   0.489  11.373  16.054 -0.0087  0.0906  0.1915
 4540W        W22744   8.666  17.539   4.545 -0.0240 -0.0344  0.2150
 4541W        W22745   7.310  15.613   0.003 -0.1444  0.2468  0.0550
 4542W        W22746  17.017   6.903   5.225  0.0370 -0.0078 -0.1066
 4543W        W22747   9.236   8.531   4.623  0.1476 -0.0911 -0.1620
 4544W        W22748   1.194   0.611   0.010  0.1781  0.0493 -0.1430
 4545W        W22749   9.338   6.659  13.308 -0.2898  0.0859 -0.0045
 4546W        W22750   2.566  11.023  15.093  0.1487  0.0999 -0.2427
 4547W        W22751  17.445  12.405   0.309  0.1953  0.4513 -0.0536
 4548W        W22752   8.487  16.755  10.822 -0.0737  0.1109 -0.1736
 4549W        W22753   2.196  10.817   3.724  0.1729 -0.0400  0.2071
 4550W        W22754  14.572   2.345  12.827 -0.0381 -0.0713 -0.1404
 4551W        W22755   0.742  15.959  15.724  0.0756 -0.2343  0.0714
 4552W        W22756  14.958  11.763   3.024 -0.0639  0.0227 -0.1790
 4553W        W22757  17.001  15.614  15.641  0.1021  0.2183 -0.0632
 4554W        W22758   0.128  12.806  15.125  0.1518 -0.1849 -0.1093
 4555W        W22759   6.850   5.206  11.540 -0.0433 -0.2211 -0.0474
 4556W        W22760   9.673  15.988   1.640 -0.1862  0.0509 -0.1809
 4557W        W22761   0.321  10.891   3.251  0.2187  0.1716 -0.2810
 4558W        W22762   7.742   8.328   2.912 -0.0525 -0.2192 -0.0246
 4559W        W22763   0.328  16.585   3.193  0.2641 -0.2613  0.3420
 4560W        W22764  15.051   2.971   1.028  0.3609  0.1865 -0.0824
 4561W        W22765   4.918  16.952   4.138 -0.1056  0.1269 -0.0321
 4562W        W22766  16.493  15.388   1.673  0.5510 -0.3949 -0.0911
 4563W        W22767  11.528  14.074   1.986 -0.1106  0.0670 -0.0168
 4564W        W22768  15.852   2.544   1.508 -0.2127  0.2532  0.3439
 4565W        W22769   5.302   6.786   0.473 -0.1219 -0.3660 -0.1014
 4566W        W22770  16.517  15.429  14.915 -0.0955  0.1012  0.3296
 4567W        W22771   8.028   2.530  12.393  0.1274  0.0049  0.0009
 4568W        W22772  17.761   9.897   4.333  0.0550  0.1841 -0.1082
 4569W        W22773  15.306   8.392   3.295 -0.0926  0.0887  0.2103
 4570W        W22774  17.079   4.963   2.735 -0.1653 -0.1266 -0.0833
 4571W        W22775  17.936  15.626   2.637  0.2171 -0.0791 -0.0335
 4572W        W22776   7.869   2.333   0.128 -0.1079 -0.2357  0.0520
 4573W        W22777   8.688   0.182   0.024  0.0186 -0.2163 -0.1702
 4574W        W22778   8.380   2.315   2.375  0.0921 -0.1134 -0.3452
 4575W        W22779  15.788   2.854  13.574  0.2252  0.4166  0.0193
 4576W        W22780  12.145  11.065  15.692  0.1298  0.0653  0.0195
 4577W        W22781  15.447   4.765  15.758 -0.0432 -0.0971  0.1094
 4578W        W22782  12.503   6.753   0.271 -0.1436 -0.0860 -0.2007
 4579W        W22783  10.870  10.844   1.139  0.0290  0.1221 -0.4202
 4580W        W22784  12.146  13.844   3.661  0.3272  0.0402 -0.1498
 4581W        W22785   0.766   7.273  13.101 -0.2011  0.1063 -0.0702
 4582W        W22786   3.280  14.418   0.125 -0.1485  0.0802 -0.1738
 4583W        W22787   0.891  14.000   4.335 -0.0810  0.0416  0.0866
 4584W        W22788   1.155  11.584  12.021 -0.2449 -0.3016 -0.2394
 4585W        W22789   8.439  15.550   1.618 -0.0570 -0.1139  0.2159
 4586W        W22790  12.166  16.720   9.925 -0.0723  0.1121 -0.0636
 4587W        W22791   7.836  16.157  11.170  0.0398 -0.0888  0.3181
 4588W        W22792  11.108  15.704  15.233  0.3257  0.0843  0.2112
 4589W        W22793   8.572  11.451  15.335  0.1892 -0.1023  0.0860
 4590W        W22794   0.215   9.102  15.538  0.1889  0.3062  0.0572
 4591W        W22795  15.310   8.437  14.218  0.1286  0.2001  0.1176
 4592W        W22796   8.015   7.036   1.787 -0.2390 -0.1859 -0.2322
 4593W        W22797   8.443   6.882  14.759 -0.3429 -0.0186 -0.0550
 4594W        W22798  13.732   1.986  13.249  0.1723  0.2075 -0.1221
 4595W        W22799   8.968  17.908   1.329  0.0613  0.0254  0.1943
 4596W        W22800   6.531   9.150   0.700 -0.0588 -0.3532  0.1332
 4597W        W22801   6.520   6.199  11.609 -0.0881  0.0627  0.0256
 4598W        W22802   3.831   4.794  12.898 -0.2026  0.1084  0.0956
 4599W        W22803   7.415   5.618  11.902 -0.2415  0.3653 -0.1031
 4600W        W22804   9.155   8.825   2.475 -0.0308  0.0357 -0.1236
 4601W        W22805   0.848   6.492  14.996  0.0187  0.3066  0.0421
 4602W        W22806  16.387   9.294   3.849 -0.3175  0.0658 -0.0205
 4603W        W22807   0.957  12.970   4.925 -0.0146 -0.2625 -0.0235
 4604W        W22808  13.149  13.174   2.546  0.0528 -0.0166 -0.1638
 4605W        W22809  13.365   4.681  13.872  0.0244 -0.0414 -0.3291
 4606W        W22810  10.147  12.465  14.640  0.0031  0.0418  0.0629
 4607W        W22811   5.077  14.087   0.677 -0.0333 -0.0215 -0.0450
 4608W        W22812  10.606   3.948  11.451  0.1442 -0.0764  0.0731
 4609W        W22813   3.890  10.578   2.020  0.2994 -0.0827 -0.1278
 4610W        W22814  12.990  10.324  15.289 -0.1123  0.1510  0.2975
 4611W        W22815   3.678   7.980   2.828  0.1264 -0.0242  0.0225
 4612W        W22816   3.390  10.871  11.968  0.0155  0.0362  0.1667
 4613W        W22817   2.419   1.068  13.156 -0.0816 -0.2228 -0.2007
 4614W        W22818   0.697   2.319  11.646  0.2145 -0.1887  0.0242
 4615W        W22819   7.156   3.330  12.088 -0.0862  0.4421  0.1000
 4616W        W22820  15.999   2.492   3.713  0.2901  0.1969 -0.2219
 4617W        W22821  15.558  10.080   4.231 -0.0552 -0.2881 -0.1030
 4618W        W22822   3.109  16.043  13.635 -0.1545 -0.1627  0.0003
 4619W        W22823  12.906   6.019   0.723  0.0781 -0.0439 -0.4236
 4620W        W22824   7.271   6.755  12.587 -0.1339 -0.0069  0.2068
 4621W        W22825  14.845   6.554   2.609  0.1670 -0.0991  0.0625
 4622W        W22826  15.959   2.698   1.958 -0.0860  0.2502  0.1583
 4623W        W22827  16.716   0.195  13.889 -0.1799  0.2547  0.0336
 4624W        W22828  13.066   9.867  11.645 -0.0675  0.1168  0.0843
 4625W        W22829   7.237  15.031   0.923  0.1603 -0.1419  0.1472
 4626W        W22830  14.512  13.013   0.326 -0.1342 -0.1527  0.1551
 4627W        W22831  13.621  10.307   0.388  0.2636  0.1413  0.2612
 4628W        W22832  17.748   5.591   3.843 -0.0396 -0.1677 -0.2289
 4629W        W22833  11.815   1.638  15.206 -0.0806 -0.1931  0.0240
 4630W        W22834   9.926   0.752   0.230 -0.0780  0.0683 -0.1725
 4631W        W22835   4.947   6.829  12.681 -0.2530  0.0568  0.4626
 4632W        W22836   3.396   6.302  15.674  0.3030 -0.2226 -0.0460
 4633W        W22837   7.418   2.695   0.377 -0.0810  0.1883 -0.2544
 4634W        W22838   4.678   3.837   1.978 -0.0223 -0.1605 -0.1055
 4635W        W22839  17.402  14.356  11.936  0.0137 -0.4717  0.0233
 4636W        W22840  14.906  13.448  13.628  0.1708  0.1809  0.0045
 4637W        W22841  15.135   9.443   0.218 -0.1178  0.0803  0.2288
 4638W        W22842   9.462  15.278   2.812  0.0175 -0.0696 -0.2418
 4639W        W22843   3.765   1.229   4.126  0.0147 -0.4358 -0.0571
 4640W        W22844  15.401   2.896   4.188 -0.0315 -0.0437  0.1805
 4641W        W22845  11.384   4.837  13.718  0.1609  0.3359  0.1284
 4642W        W22846  11.007   9.554   4.255  0.1781  0.1202  0.0329
 4643W        W22847   3.765   0.089  11.913 -0.1405  0.0767  0.1535
 4644W        W22848   1.740   4.213  13.761  0.0988  0.1830 -0.0617
 4645W        W22849  14.015   8.063   1.607  0.2462 -0.1797 -0.2684
 4646W        W22850   3.375  13.469   0.198 -0.0782  0.0143  0.0957
 4647W        W22851   9.759   6.152  12.131  0.0175 -0.3669  0.1740
 4648W        W22852   8.393   3.556   4.163 -0.1404  0.3172  0.0541
 4649W        W22853  11.598   8.024   2.566  0.2614  0.4931 -0.2537
 4650W        W22854  10.458  11.100  16.132 -0.0767  0.3150  0.0061
 4651W        W22855   0.848   6.009   1.620  0.2101  0.1506 -0.0229
 4652W        W22856  15.579  10.075  13.574 -0.3212  0.1810  0.0767
 4653W        W22857  14.549  11.079  12.530  0.0466  0.5040  0.0100
 4654W        W22858  10.402   8.016  15.540 -0.2830  0.3388 -0.1685
 4655W        W22859  12.744   9.255   3.107  0.1812  0.0226  0.3045
 4656W        W22860   2.109  14.824  11.823 -0.0175  0.2831  0.1726
 4657W        W22861   3.681  16.943  14.727 -0.1025  0.3337 -0.1352
 4658W        W22862  13.121  17.773  12.160 -0.0564 -0.0243 -0.1132
 4659W        W22863   2.295  17.693  13.420 -0.1483  0.0758  0.1426
 4660W        W22864  17.971  13.376  14.335  0.0865 -0.5400 -0.1509
 4661W        W22865   6.242  17.592  13.221  0.1192  0.1898 -0.0413
 4662W        W22866   5.343  15.859   0.508  0.1228 -0.1847 -0.1967
 4663W        W22867   6.506   3.668   4.698 -0.1011  0.0678 -0.2138
 4664W        W22868   2.523  13.421   3.403 -0.3258  0.2848 -0.2250
 4665W        W22869   2.136   3.110  11.068  0.2114  0.1655 -0.0594
 4666W        W22870  12.688  13.646  13.667 -0.0974 -0.3118 -0.0688
 4667W        W22871  17.632  10.072   1.084  0.3209 -0.2964 -0.1668
 4668W        W22872  17.463  16.556   2.569  0.0240  0.1922  0.0357
 4669W        W22873   9.695  10.959  13.428 -0.0538  0.1182  0.1819
 4670W        W22874  13.385  16.174   2.795  0.2634 -0.1198 -0.1395
 4671W        W22875   7.720   2.068  11.026  0.0788  0.4140  0.2874
 4672W        W22876   8.204   2.148  12.743 -0.0447 -0.0812 -0.1760
 4673W        W22877   0.205   0.643   4.485  0.0597 -0.1072  0.0620
 4674W        W22878  16.946  14.635   2.042  0.2009  0.1861 -0.0637
 4675W        W22879  17.419  14.041   2.211 -0.1408  0.1292 -0.0566
 4676W        W22880   7.587   6.533  12.975  0.1652  0.1293 -0.2800
 4677W        W22881  12.538  14.159   3.649 -0.0873 -0.2264 -0.1012
 4678W        W22882   2.391   6.103  12.007  0.0313  0.1321 -0.0473
 4679W        W22883   0.648   9.628  12.150 -0.3637  0.1524  0.1781
 4680W        W22884   5.681   7.037  14.685 -0.0867 -0.0812  0.2857
 4681W        W22885   2.719  11.937   2.371  0.2183 -0.1932  0.0074
 4682W        W22886   9.629   7.872  14.912 -0.0916 -0.2430  0.0092
 4683W        W22887   7.699  17.438   2.708  0.0022 -0.0808  0.2226
 4684W        W22888   4.648  16.800  13.632 -0.0089  0.3462  0.0764
 4685W        W22889  16.495   4.596  15.961  0.2408 -0.0228  0.2731
 4686W        W22890  13.645  14.954   2.885 -0.0494  0.0677 -0.0814
 4687W        W22891   7.003   9.684   4.220 -0.1710  0.1410 -0.1092
 4688W        W22892  11.386  16.540  11.545  0.1011 -0.0597  0.2756
 4689W        W22893   8.831   7.991  12.152  0.0552  0.0668  0.2537
 4690W        W22894   1.294  15.626  14.998  0.2479  0.0558  0.3355
 4691W        W22895  10.229   3.677   2.233 -0.0702 -0.0167  0.0988
 4692W        W22896  10.858   9.429  13.849 -0.3149 -0.0506  0.5276
 4693W        W22897  10.483   9.775  12.231 -0.2406  0.2089  0.0038
 4694W        W22898   4.889   1.880   2.430  0.2389  0.0973 -0.3496
 4695W        W22899  10.601   9.578   1.833  0.0348 -0.1285  0.0951
 4696W        W22900   8.247   7.611   4.212  0.2841  0.2258 -0.2606
 4697W        W22901   9.784  15.683   3.596 -0.0857  0.1632 -0.0997
 4698W        W22902   3.577   7.160   2.997 -0.0991 -0.2487 -0.1296
 4699W        W22903  14.890  15.806  12.143 -0.1503 -0.1663  0.3807
 4700W        W22904   4.090   7.881   2.575  0.3397  0.1551  0.0791
 4701W        W22905  12.586   5.521   2.906 -0.1558 -0.2146  0.0775
 4702W        W22906  12.284   0.368   1.393 -0.0883  0.0411  0.2392
 4703W        W22907  14.989   8.743  13.998  0.0483  0.0021 -0.0018
 4704W        W22908   5.161  16.280  15.582 -0.2959  0.0264 -0.2594
 4705W        W22909  13.918  10.700  15.152 -0.3046  0.1023  0.0119
 4706W        W22910   9.474  10.005  11.350  0.0590  0.1527 -0.3548
 4707W        W22911  14.091   9.952   1.585  0.0245  0.0361  0.1026
 4708W        W22912   8.531   5.244   0.863 -0.0294 -0.3807 -0.1469
 4709W        W22913  17.296  15.377  13.442 -0.0813 -0.0551 -0.2689
 4710W        W22914  10.478   7.124  11.177 -0.2390 -0.1050  0.0941
 4711W        W22915   6.129   9.937   3.174  0.0902  0.1726 -0.0669
 4712W        W22916  18.026  11.251   3.141  0.0228 -0.1819  0.0157
 4713W        W22917   1.275   1.807   1.966  0.0070 -0.1558  0.1300
 4714W        W22918  11.551   0.420   2.755 -0.0859 -0.0835 -0.1569
 4715W        W22919   9.691   1.909   4.252 -0.1757  0.0327  0.2064
 4716W        W22920  10.754  17.683  11.103  0.0052 -0.1219 -0.0780
 4717W        W22921  13.324  10.336   2.522 -0.1293  0.3291 -0.2038
 4718W        W22922   4.371   7.472   2.972 -0.1716  0.0552  0.0739
 4719W        W22923   9.836   7.476   1.133  0.0916  0.0470  0.1589
 4720W        W22924  13.692  11.668   0.166  0.0626 -0.0212  0.0904
 4721W        W22925   8.348   0.521   0.864 -0.0029 -0.0783 -0.1221
 4722W        W22926   6.849   4.136  10.816  0.5130 -0.4700 -0.2774
 4723W        W22927   1.359   3.085   1.097 -0.0329 -0.2956 -0.1496
 4724W        W22928   0.780  13.836  13.683  0.0784  0.4087 -0.1192
 4725W        W22929  14.456   2.341  15.073  0.0783  0.3528 -0.1700
 4726W        W22930  11.758   0.051  15.824 -0.2260  0.4552  0.0144
 4727W        W22931  11.465  17.260   3.441  0.1562 -0.1239 -0.1629
 4728W        W22932   4.724   5.330   3.560  0.0851  0.1915  0.1083
 4729W        W22933  17.902  12.129  12.038  0.1811  0.2156 -0.1070
 4730W        W22934   4.564   3.747  11.087  0.0971  0.1022  0.0330
 4731W        W22935  14.827  11.607  14.945  0.1809 -0.3889 -0.2060
 4732W        W22936  12.062   8.939   3.983 -0.0463 -0.0421 -0.3402
 4733W        W22937   3.707  11.175   2.594  0.4164  0.2349  0.0442
 4734W        W22938  12.391  16.861  15.174 -0.3745 -0.2166 -0.0970
 4735W        W22939  18.017   4.364   4.715 -0.4161  0.0331 -0.0178
 4736W        W22940   5.929   0.500  11.670  0.1160  0.2331  0.0364
 4737W        W22941   8.034   1.841  15.012 -0.1685 -0.0216 -0.0259
 4738W        W22942  10.682   1.421   1.443  0.0434 -0.2535 -0.1334
 4739W        W22943   9.859   1.266  13.399 -0.2434  0.0041 -0.0031
 4740W        W22944  16.788   5.199  11.955  0.0311  0.0038  0.0291
 4741W        W22945  13.189   2.458   2.410  0.1192 -0.0293  0.0766
 4742W        W22946   7.862  16.607  15.560  0.0923  0.0587 -0.2610
 4743W        W22947   5.232   8.046   1.315 -0.2467 -0.0695  0.0083
 4744W        W22948   8.550  11.283   1.303 -0.0464  0.0162  0.0666
 4745W        W22949  12.589  12.396   2.811 -0.0511  0.2348  0.0467
 4746W        W22950  10.867  12.386   2.982  0.0159  0.1452  0.0858
 4747W        W22951  11.321   7.982   1.929 -0.4182  0.0056 -0.0521
 4748W        W22952  12.208   1.502  11.564 -0.0607 -0.1316  0.1618
 4749W        W22953  13.082   7.512  15.250 -0.3750 -0.0708  0.1240
 4750W        W22954   4.312   1.073  15.810  0.0949 -0.1126  0.1153
 4751W        W22955  15.094  14.185  12.381 -0.1779  0.4580 -0.1924
 4752W        W22956  16.199  11.910   5.194  0.3945 -0.3481  0.1116
 4753W        W22957   5.700   1.365  11.685  0.1122 -0.0792  0.0670
 4754W        W22958   6.090   8.182  14.787  0.1049 -0.4519  0.1265
 4755W        W22959  15.663   6.298  16.161 -0.3446 -0.0741  0.2428
 4756W        W22960   2.289   4.762  11.955 -0.0330  0.2377 -0.0739
 4757W        W22961   4.657   7.248   4.809 -0.1665 -0.1687  0.1338
 4758W        W22962   2.723  14.849   1.782  0.1360 -0.3429  0.3948
 4759W        W22963  16.261  12.175   3.514  0.3267  0.0667 -0.0137
 4760W        W22964   6.212  16.707  12.542 -0.3758  0.1128 -0.0782
 4761W        W22965   0.226  14.262   2.319  0.1163  0.2614  0.0099
 4762W        W22966  15.548  12.822   2.479 -0.0459 -0.1154 -0.1874
 4763W        W22967  12.434   1.302   4.129 -0.3700 -0.0820 -0.2243
 4764W        W22968  16.696   8.068  10.984 -0.0638  0.2413  0.2349
 4765W        W22969   9.778   7.570  12.769 -0.1363 -0.1800  0.0932
 4766W        W22970  17.484  13.873  11.163  0.0905 -0.2248 -0.1452
 4767W        W22971  17.820  10.263   4.716  0.1901  0.2633 -0.0886
 4768W        W22972   1.044  16.080  14.825  0.0798  0.1719 -0.2751
 4769W        W22973   5.214  11.256   5.213 -0.2684 -0.0445  0.0861
 4770W        W22974  17.497   3.266   1.496 -0.0686  0.0789  0.0114
 4771W        W22975  14.017  14.418  14.616 -0.0992 -0.0254 -0.1364
 4772W        W22976   8.398  12.035   2.544  0.0021 -0.1666 -0.2992
 4773W        W22977   4.498  11.235  15.793  0.0833 -0.2233 -0.1645
 4774W        W22978  15.441  13.255   0.183 -0.0977  0.0746 -0.1983
 4775W        W22979   1.712   1.065  12.386  0.2509 -0.1790 -0.1065
 4776W        W22980   2.326  10.711  12.178  0.0094  0.2298  0.0091
 4777W        W22981  15.272   4.709  15.249  0.2734 -0.0069  0.1145
 4778W        W22982  16.786   0.043   5.435  0.1900 -0.0467  0.0122
 4779W        W22983  14.316   4.563   2.179  0.1502 -0.1267  0.2291
 4780W        W22984   8.311   0.352   2.242 -0.0353  0.2686 -0.0300
 4781W        W22985   2.482   9.724  16.104  0.1169  0.1975 -0.3449
 4782W        W22986   2.587   3.830  13.412 -0.0471 -0.0867 -0.0063
 4783W        W22987   0.410  11.368   1.983  0.2227 -0.0156  0.0338
 4784W        W22988  17.692   5.882  13.027  0.1251 -0.1907 -0.1336
 4785W        W22989   3.279  15.489   0.566  0.1319  0.0875 -0.1904
 4786W        W22990   2.463   3.551  12.675  0.1890 -0.0436 -0.1124
 4787W        W22991   2.892   0.114  12.821 -0.0948  0.1019 -0.1452
 4788W        W22992  17.034  13.280  13.816 -0.1287  0.2573  0.1124
 4789W        W22993  10.807   3.882  12.185 -0.0319  0.0785  0.0049
 4790W        W22994   5.653   2.384   0.664 -0.0205 -0.0392 -0.1918
 4791W        W22995   6.102  11.613  13.687 -0.0818 -0.1019 -0.0675
 4792W        W22996  10.913   0.531   0.022 -0.0760 -0.0058  0.3237
 4793W        W22997   6.432  13.775  11.586 -0.2125 -0.2181 -0.0698
 4794W        W22998   4.468  11.910   3.385  0.0367  0.0915 -0.0960
 4795W        W22999   3.176  15.954   1.476 -0.0788 -0.1353  0.1175
 4796W        W23000   7.638  14.890  15.531 -0.0940  0.4236 -0.1186
 4797W        W23001  18.027  12.832  14.648  0.2433 -0.0266  0.2299
 4798W        W23002   5.158   6.836  11.719  0.0109 -0.2475  0.4242
 4799W        W23003  16.414  13.249   3.902  0.0889  0.0726  0.3084
 4800W        W23004   2.862  12.140  12.187 -0.1157  0.0209 -0.0640
 4801W        W23005  11.988   6.121   1.820  0.0149 -0.0395  0.0139
 4802W        W23006   7.975  16.951  14.324 -0.3082  0.1856 -0.1903
 4803W        W23007  14.967   4.700  13.272  0.0950 -0.1763  0.2869
 4804W        W23008  10.882   2.722  15.885  0.1482 -0.1662 -0.0718
 4805W        W23009  17.862   8.335   4.894 -0.1907  0.0008  0.2253
 4806W        W23010  10.226   8.826  14.784  0.1979  0.0695  0.0877
 4807W        W23011  16.314   7.574   3.599 -0.0466  0.0556 -0.3794
 4808W        W23012   9.951   8.536   1.062 -0.0378 -0.0292  0.0398
 4809W        W23013  14.205  10.420  12.508  0.0700 -0.1207 -0.0925
 4810W        W23014   8.437   9.781   2.890  0.1304 -0.1216  0.1633
 4811W        W23015   8.059  11.339  13.410 -0.1713 -0.0227  0.4442
 4812W        W23016  17.067   6.738  13.915 -0.0559  0.0948  0.1560
 4813W        W23017  13.564   6.530   5.044  0.0853  0.1545 -0.0755
 4814W        W23018  17.364  14.905   1.949  0.3415 -0.0192  0.0296
 4815W        W23019   6.023  14.431  13.473 -0.1261 -0.3325 -0.2895
 4816W        W23020   9.260   5.185   4.207  0.1624  0.0615 -0.0426
 4817W        W23021   9.033  12.124   1.321 -0.1643  0.0742  0.2317
 4818W        W23022  13.877  12.990   1.224 -0.0287  0.0267 -0.2446
 4819W        W23023   7.134   1.883  12.323  0.2460  0.0129 -0.0812
 4820W        W23024   8.427  17.783   0.022  0.2369 -0.3612 -0.0747
 4821W        W23025   6.296  17.864   4.296  0.0738  0.3805  0.2014
 4822W        W23026  10.248   9.150   4.184  0.1272 -0.2760  0.2539
 4823W        W23027   8.125  15.812  11.410 -0.1132 -0.1731 -0.0041
 4824W        W23028  15.151   6.814  15.164 -0.1066 -0.0455 -0.1505
 4825W        W23029  11.217   4.349  12.843 -0.1558  0.0950  0.0476
 4826W        W23030   4.328   3.550  14.769  0.0673  0.0496  0.1226
 4827W        W23031   8.240  12.764  15.880 -0.1408  0.3731  0.0358
 4828W        W23032  10.378  17.460  14.562  0.0433 -0.1096  0.0157
 4829W        W23033   1.032   4.770  15.709 -0.1125 -0.2576 -0.0729
 4830W        W23034   4.960   6.242  13.743  0.2427 -0.2090 -0.2640
 4831W        W23035   9.462  14.046  14.173 -0.0067  0.1049 -0.1660
 4832W        W23036   0.084   0.632  12.761 -0.1827 -0.0090 -0.3707
 4833W        W23037   1.987  13.273   1.234  0.0286 -0.0147 -0.1806
 4834W        W23038   3.378   4.122  15.188 -0.3158 -0.0251  0.1153
 4835W        W23039   2.948   8.223  15.687  0.1254  0.1246  0.2528
 4836W        W23040  13.878   7.534   3.814 -0.0727  0.0935  0.1627
 4837W        W23041   3.994  11.592   2.480 -0.1608 -0.2247 -0.2732
 4838W        W23042  15.101  12.790   3.227 -0.1807 -0.1764 -0.3530
 4839W        W23043  14.358   3.538   3.671  0.1267 -0.3365 -0.0060
 4840W        W23044   8.105   3.227   0.502  0.0251 -0.0411 -0.1467
 4841W        W23045  10.518   6.532  13.814  0.2877 -0.0111 -0.0389
 4842W        W23046   8.995   7.493  14.322  0.0239  0.0143 -0.1128
 4843W        W23047  12.489   9.047  13.576  0.1770 -0.3324 -0.2479
 4844W        W23048  13.426   6.993   5.062  0.1241  0.1146 -0.0869
 4845W        W23049  14.640   1.514  14.428 -0.0373  0.0300  0.1498
 4846W        W23050  11.401  16.587  11.020  0.1922 -0.0393  0.0861
 4847W        W23051  15.580   6.887  14.960 -0.0112  0.0362  0.1501
 4848W        W23052   5.452  17.622   3.709 -0.1995 -0.1232 -0.1083
 4849W        W23053   7.000   2.476   4.265 -0.0881 -0.1029 -0.0057
 4850W        W23054   5.569   0.304  14.847  0.1303 -0.2198  0.0381
 4851W        W23055  15.699  17.329   0.426  0.1501  0.3028  0.1222
 4852W        W23056   7.038   9.866  12.765  0.0771  0.0032 -0.0902
 4853W        W23057  14.467   8.031  11.865  0.1150 -0.0670 -0.0091
 4854W        W23058   9.780  13.260   3.162 -0.1889 -0.0616 -0.4273
 4855W        W23059  17.250   0.965   2.515 -0.0520  0.1278  0.1948
 4856W        W23060  14.159   8.131  12.882 -0.0990 -0.1263  0.2893
 4857W        W23061  14.798  10.341  11.703  0.3152 -0.1033  0.2756
 4858W        W23062  16.387   1.964  11.293  0.1680 -0.0810 -0.0083
 4859W        W23063   4.381  14.794   1.283  0.0271 -0.1320  0.2385
 4860W        W23064   4.149   8.004  11.688 -0.1037 -0.2468 -0.1306
 4861W        W23065  13.512   3.107   3.342  0.1016  0.1830 -0.3369
 4862W        W23066   3.150   8.510   4.272 -0.1481  0.1397  0.0026
 4863W        W23067   1.493   4.947  11.754 -0.2577  0.0421  0.0789
 4864W        W23068  16.967  10.683   2.101 -0.1671  0.0288 -0.2272
 4865W        W23069   1.846   4.381   1.394 -0.3171 -0.0267 -0.2191
 4866W        W23070  14.686  11.644  12.611 -0.2206 -0.2666 -0.0707
 4867W        W23071  12.938   2.613  16.122  0.1803  0.0203 -0.3025
 4868W        W23072   4.977   8.103   2.982 -0.2600 -0.0262  0.0667
 4869W        W23073  15.247   1.943   4.470  0.1384  0.1996 -0.1885
 4870W        W23074   6.575   1.976  14.857 -0.1457  0.0378  0.5188
 4871W        W23075   0.440   1.716   2.693  0.2323 -0.0299  0.0629
 4872W        W23076   2.013   6.987   4.563 -0.2913  0.2140  0.0044
 4873W        W23077  13.611  12.353  15.782  0.0330 -0.0641 -0.2701
 4874W        W23078  10.350   7.390  11.583 -0.0789  0.0650  0.0688
 4875W        W23079  15.433   4.027   2.523  0.1151 -0.1737 -0.1620
 4876W        W23080  17.482  13.728  10.607 -0.2599 -0.1326 -0.0327
 4877W        W23081   2.788   1.768  14.971 -0.2959 -0.1716  0.0559
 4878W        W23082   9.416  11.736  12.223  0.0979  0.1436 -0.2528
 4879W        W23083   2.719  13.635  13.886 -0.1122 -0.1272 -0.1068
 4880W        W23084   3.736  13.511   2.142  0.1929 -0.0426  0.1130
 4881W        W23085  17.408   6.039   4.394  0.2813  0.1475  0.2127
 4882W        W23086   4.351   5.311   4.733 -0.1365  0.1622  0.1021
 4883W        W23087  14.919  12.103  12.505  0.0693  0.0889 -0.0373
 4884W        W23088   6.062   8.778   4.845 -0.2807 -0.1823  0.1620
 4885W        W23089   1.090  13.226   1.522 -0.0502  0.0976  0.3314
 4886W        W23090   3.568  12.489  13.398 -0.2010 -0.2329 -0.0320
 4887W        W23091   3.943  12.107   1.064 -0.0666 -0.3538  0.2587
 4888W        W23092   4.049   5.618  15.869 -0.1288 -0.1034  0.0927
 4889W        W23093   8.472   9.313   4.166 -0.5613  0.2399  0.0039
 4890W        W23094   5.658  12.608   0.765  0.1544  0.0407 -0.1869
 4891W        W23095  12.033  15.409  13.610 -0.1839  0.1432  0.0470
 4892W        W23096   3.016  13.809  15.096  0.0673  0.0378  0.3273
 4893W        W23097   7.540  14.224  15.149 -0.0193  0.0808 -0.1892
 4894W        W23098  13.427  14.149   1.909 -0.1658 -0.0537  0.0190
 4895W        W23099   1.979   1.238  11.900 -0.2829  0.0175 -0.0801
 4896W        W23100  13.179  16.811  13.931  0.3725  0.2771 -0.0570
 4897W        W23101   0.235   7.593  14.867 -0.2838  0.0965  0.2328
 4898W        W23102  15.089   9.249   4.344  0.1250  0.6575  0.1311
 4899W        W23103  12.809   0.039   2.302  0.1876  0.0306 -0.0849
 4900W        W23104   5.900   7.226   2.675  0.0608 -0.2540  0.0935
 4901W        W23105   5.881   1.040   1.896  0.2614 -0.0584  0.2850
 4902W        W23106   5.916  14.382   0.907  0.1003  0.0921  0.0843
 4903W        W23107  17.363   4.275   1.295  0.4896 -0.0360  0.2358
 4904W        W23108  14.246   7.180   0.690  0.0031  0.2303  0.1875
 4905W        W23109  10.547   6.455   4.309  0.2791 -0.0768 -0.2358
 4906W        W23110  17.209   1.175  14.225 -0.2242  0.0846  0.1260
 4907W        W23111  12.393  16.154   3.207  0.3076  0.1109  0.2252
 4908W        W23112   1.378  17.234   1.511 -0.0374  0.0480  0.1301
 4909W        W23113   2.490   0.275   2.207  0.0336  0.3446 -0.1333
 4910W        W23114  12.875  12.041  14.039 -0.1181 -0.0008 -0.2064
 4911W        W23115   0.779   0.883  11.304  0.1623  0.1735  0.1299
 4912W        W23116  13.802  15.355  15.352 -0.0518  0.0540 -0.0782
 4913W        W23117  15.620   3.945   3.740  0.1724  0.0539  0.0583
 4914W        W23118   3.362  18.015  12.750  0.0527  0.0630  0.0754
 4915W        W23119  13.834  10.201  15.245 -0.0536  0.0198 -0.0918
 4916W        W23120   5.532   9.954  12.561 -0.0433 -0.0806  0.0174
 4917W        W23121  11.997   2.493  13.423  0.0644  0.0723 -0.0103
 4918W        W23122  16.482  10.347  11.216  0.0945 -0.0534 -0.0191
 4919W        W23123  12.277   6.710   4.188 -0.0060  0.2117 -0.0223
 4920W        W23124  12.719   9.034  15.347 -0.0866  0.1588  0.1892
 4921W        W23125   6.907  10.633   2.778 -0.1386 -0.2086 -0.0674
 4922W        W23126  15.839  13.306   2.154  0.2041  0.0337 -0.1665
 4923W        W23127  11.098   9.137  14.215  0.1672 -0.1120  0.2455
 4924W        W23128  10.247   5.994  12.147 -0.3224 -0.0568 -0.2487
 4925W        W23129   1.901   4.587  15.141  0.0914 -0.0003  0.0315
 4926W        W23130  15.884   3.482   3.830  0.0474  0.0810 -0.0063
 4927W        W23131  11.066   3.037   4.359 -0.0704  0.0176  0.2488
 4928W        W23132  15.721  14.861   4.211 -0.2435 -0.3979  0.0844
 4929W        W23133  12.078   2.937   0.990 -0.0764  0.0826  0.0263
 4930W        W23134  12.062  10.983   2.823 -0.1366 -0.0246  0.0509
 4931W        W23135   1.328  12.867  15.436 -0.2675 -0.0992 -0.2019
 4932W        W23136   3.098  17.796   3.610 -0.0806 -0.0707 -0.2350
 4933W        W23137  17.434  16.540  15.577  0.0993  0.1881  0.1337
 4934W        W23138   8.878   8.113   4.607  0.0973  0.0923  0.0584
 4935W        W23139   9.032  16.803  11.045 -0.2541  0.1756  0.1015
 4936W        W23140  10.012   6.161   0.490  0.0200  0.0520 -0.0986
 4937W        W23141   8.202   4.161  13.408  0.0601 -0.0800  0.1008
 4938W        W23142  16.092  16.054  15.623 -0.2217 -0.0248 -0.1162
 4939W        W23143   2.635  14.814  14.632  0.0252  0.0622  0.3301
 4940W        W23144   5.292  13.316   0.182  0.2459 -0.0739 -0.1772
 4941W        W23145   5.558  11.301  12.983 -0.1214  0.1424  0.4066
 4942W        W23146   3.996  12.930  11.894  0.0037 -0.0275 -0.5025
 4943W        W23147  10.024   6.128   2.881 -0.0774 -0.2374 -0.2545
 4944W        W23148  14.908  12.605  13.952  0.1317 -0.1340  0.2279
 4945W        W23149   4.175  14.474  12.725 -0.0265 -0.3324 -0.3845
 4946W        W23150   3.762   3.268   1.876  0.0861  0.0383  0.2299
 4947W        W23151  10.749  16.629   2.420  0.1443  0.0076 -0.1117
 4948W        W23152   1.823   5.382  14.592  0.1317  0.1148  0.3097
 4949W        W23153   6.465  10.432   2.510  0.0665  0.0596 -0.0859
 4950W        W23154   3.214   7.284   2.180  0.0836  0.0344 -0.0843
 4951W        W23155   6.963   0.286   0.563  0.2111  0.0391 -0.4377
 4952W        W23156  15.289   6.175   0.896 -0.0342  0.1505  0.0662
 4953W        W23157   5.612   4.977  12.132  0.1328 -0.0302 -0.0811
 4954W        W23158   6.667  12.038   0.204  0.0955  0.1739 -0.1556
 4955W        W23159  17.808  13.957  16.003  0.0534 -0.2162 -0.0538
 4956W        W23160  13.728  11.127  12.180  0.1341  0.1708 -0.2972
 4957W        W23161   1.724  11.375  13.311 -0.0674 -0.2332  0.0658
 4958W        W23162  10.326   8.993  12.649 -0.0458 -0.1002 -0.0963
 4959W        W23163   1.136   2.733  11.332 -0.1293 -0.4625  0.2179
 4960W        W23164  11.709   1.846   4.461  0.0966 -0.2240  0.1188
 4961W        W23165   5.564   1.724  13.441 -0.3597  0.0107  0.0603
 4962W        W23166   2.508   2.910  15.146 -0.0083 -0.1745  0.0006
 4963W        W23167  10.491  17.013  13.965 -0.0521 -0.0710 -0.0777
 4964W        W23168  11.330  15.339   3.089 -0.3442  0.0273 -0.1935
 4965W        W23169   3.507  14.232  11.381  0.3133  0.0845 -0.0980
 4966W        W23170   6.578  16.603  11.642  0.4625 -0.2406  0.0986
 4967W        W23171   2.495  14.045  11.302 -0.0935  0.3734 -0.0667
 4968W        W23172   2.387   7.567  13.445 -0.0384  0.0003  0.1961
 4969W        W23173  10.016  12.476   5.111 -0.1246 -0.3884  0.1902
 4970W        W23174   0.383  17.147  14.423  0.0592  0.1633  0.0384
 4971W        W23175   7.421   5.580  14.283 -0.0735 -0.1751 -0.1383
 4972W        W23176   1.558  15.413  11.486  0.0102  0.0765  0.1074
 4973W        W23177   8.908   4.845   1.221  0.0716  0.1330 -0.1581
 4974W        W23178  15.989   8.016  15.359 -0.1426 -0.1916  0.0716
 4975W        W23179   5.044   0.054   0.464 -0.2174  0.0900 -0.3441
 4976W        W23180   5.653  10.143   3.305  0.1808 -0.2708 -0.2215
 4977W        W23181  15.165   0.099   2.390 -0.2363  0.1076 -0.0523
 4978W        W23182   8.872  14.865   0.003 -0.0279 -0.3412 -0.0113
 4979W        W23183   0.715  13.389   3.839 -0.0523  0.0024 -0.0488
 4980W        W23184   8.769  16.809   2.824 -0.0717 -0.1338  0.0130
 4981W        W23185  11.128  15.326  12.029 -0.4561  0.0016  0.2650
 4982W        W23186  15.936  11.545   3.039  0.1554 -0.0848  0.0604
 4983W        W23187   0.695   1.255  14.648  0.4172 -0.1677 -0.4260
 4984W        W23188  13.314  11.531   0.852 -0.1890  0.4296  0.3838
 4985W        W23189  12.501   0.504  13.089 -0.0096 -0.0510  0.0086
 4986W        W23190  17.379  11.896  14.960  0.0988 -0.0125  0.1107
 4987W        W23191   4.696   0.052   3.597 -0.0199 -0.0157 -0.2334
 4988W        W23192  17.914  17.844  12.160  0.3539  0.0035 -0.0148
 4989W        W23193   6.028   4.443  14.344 -0.1189 -0.1915  0.0598
 4990W        W23194  16.597   1.018   1.221  0.0128 -0.0034 -0.1464
 4991W        W23195   4.994  14.850  13.152 -0.1044  0.0348  0.0748
 4992W        W23196   4.290  16.030   2.104  0.2199  0.1027  0.0529
 4993W        W23197  13.843   6.722   3.201  0.2692  0.3579  0.1860
 4994W        W23198   2.779   8.849   1.635  0.0530  0.2028  0.1315
 4995W        W23199   8.060   1.025  12.689 -0.1479 -0.1147 -0.0749
 4996W        W23200  10.465  15.932  13.698  0.1034 -0.0113 -0.1186
 4997W        W23201   3.807  17.825   0.620  0.0522  0.2810 -0.0039
 4998W        W23202   4.886   3.708   0.279  0.0987 -0.2073  0.2740
 4999W        W23203   2.455  17.354   3.915 -0.2457 -0.0436  0.2223
 5000W        W23204  12.257   6.808   0.737 -0.1303 -0.1042  0.0666
 5001W        W23205   4.650   2.252  14.866  0.3221  0.1255  0.0530
 5002W        W23206   6.306   3.634   1.685 -0.0711 -0.2304 -0.3972
 5003W        W23207  17.962   0.722   1.147 -0.1706  0.0659  0.3998
 5004W        W23208  15.078  11.072   1.042  0.0079 -0.0571 -0.3044
 5005W        W23209  17.019   8.449  15.868  0.0674  0.1670 -0.2634
 5006W        W23210   3.269   1.679  15.142  0.2170 -0.1434 -0.3208
 5007W        W23211   0.706   5.912   2.106  0.4699 -0.0042  0.0814
 5008W        W23212  13.402  14.522   2.766 -0.0891  0.0369  0.0250
 5009W        W23213   8.496  17.453  13.688  0.2131  0.4956  0.1429
 5010W        W23214  14.819   6.794   5.152 -0.0220  0.3659 -0.2834
 5011W        W23215  17.028   0.171   0.329  0.3647  0.0501 -0.0342
 5012W        W23216  17.820  17.851   4.913  0.2450 -0.0934  0.2640
 5013W        W23217  15.594   0.624  13.071 -0.1199  0.0638 -0.2030
 5014W        W23218   0.334   6.086   2.407 -0.0959 -0.0846 -0.0929
 5015W        W23219  13.201  11.651   3.213 -0.1889  0.2561  0.1850
 5016W        W23220  13.495   7.899  14.928 -0.1700 -0.0228  0.4785
 5017W        W23221   6.220   2.695   2.431  0.3757 -0.1359  0.1241
 5018W        W23222   3.516  10.903  13.029  0.1413  0.0154  0.0741
 5019W        W23223   6.513  15.493  14.277 -0.0641 -0.2707 -0.1475
 5020W        W23224   2.759   3.004   1.369 -0.0684 -0.2652 -0.1476
 5021W        W23225   7.153   5.546  15.452  0.2550 -0.0985  0.5043
 5022W        W23226   3.135   6.354   4.923 -0.0347 -0.1367 -0.1200
 5023W        W23227   5.765   8.701   1.721  0.2645  0.1524  0.0300
 5024W        W23228  13.981   3.600   0.753 -0.1385 -0.1646  0.0044
 5025W        W23229   4.472  11.397  11.165  0.0072 -0.1782 -0.0708
 5026W        W23230  12.886   5.030   0.667 -0.5044 -0.1328  0.0473
 5027W        W23231  11.779  13.511   5.565 -0.2352  0.3420  0.0537
 5028W        W23232  15.530   3.966   2.005  0.0159 -0.2683  0.3072
 5029W        W23233   8.817  12.925   3.682 -0.0436  0.1059  0.2042
 5030W        W23234   3.977  16.026   3.623 -0.1077  0.0548 -0.0237
 5031W        W23235   3.501   9.500   2.654  0.1778 -0.1577  0.3737
 5032W        W23236  14.350  17.426  12.103 -0.0818 -0.1458 -0.1044
 5033W        W23237  16.072  14.319  13.458 -0.0937  0.1541  0.1940
 5034W        W23238   8.949   5.336   3.779  0.4188 -0.0951  0.0470
 5035W        W23239  11.765   2.631  14.845 -0.0602 -0.0788 -0.1005
 5036W        W23240   6.913   1.735  12.946  0.0441  0.0327  0.1133
 5037W        W23241   4.109  13.419  15.801  0.0058  0.0666  0.0399
 5038W        W23242   6.930   0.817   5.657 -0.1565 -0.0449 -0.1230
 5039W        W23243  16.525   8.260  14.874  0.2382 -0.1343  0.3514
 5040W        W23244   7.238   7.412   4.235  0.2048  0.0916 -0.0065
 5041W        W23245  17.892  10.038  12.586  0.0827  0.0678 -0.1441
 5042W        W23246   4.851   1.817   3.583 -0.1700  0.2271 -0.2098
 5043W        W23247  13.696  17.371  14.082  0.0667 -0.1390  0.0100
 5044W        W23248   0.579   9.498   3.377 -0.1159  0.1828 -0.0196
 5045W        W23249   6.286  16.671   0.734 -0.2875  0.0601  0.1488
 5046W        W23250  11.699   9.566  13.473  0.0279  0.0719 -0.5441
 5047W        W23251  14.399  16.949  13.311  0.1599 -0.2328  0.0868
 5048W        W23252   6.227  12.957   0.182 -0.1097 -0.0881 -0.1508
 5049W        W23253  12.137   5.937   3.714  0.0414 -0.1537  0.1471
 5050W        W23254   2.302   1.820   1.886 -0.3162  0.1649  0.0739
 5051W        W23255  12.453  12.384   2.294 -0.0270 -0.1788 -0.1016
 5052W        W23256   3.819  16.093  15.100  0.1141 -0.1139  0.1460
 5053W        W23257  14.921   1.947  15.810  0.0663  0.0260 -0.0094
 5054W        W23258   8.982   3.360   4.134  0.3657  0.1033 -0.1399
 5055W        W23259   0.570  13.899  12.663 -0.2208 -0.0178  0.2131
 5056W        W23260  12.743  13.707   0.251  0.2480  0.0043  0.1433
 5057W        W23261   0.058   9.058   1.312 -0.2344 -0.0245  0.0400
 5058W        W23262   8.589   0.610   4.157  0.0312 -0.0213 -0.0596
 5059W        W23263   9.357   6.319  12.906 -0.0461  0.2245  0.1416
 5060W        W23264   8.432   9.506   2.330 -0.4379  0.1870  0.2118
 5061W        W23265  11.968  13.064   4.861 -0.0674 -0.2656  0.1253
 5062W        W23266   5.166   4.347   3.196  0.0570 -0.0033  0.2441
 5063W        W23267   5.046   1.414   2.473  0.0350  0.1540 -0.0378
 5064W        W23268   6.208   4.546   0.461 -0.1038 -0.0411 -0.0232
 5065W        W23269   3.736   5.387   1.846 -0.0581 -0.1594 -0.0877
 5066W        W23270  15.398  14.674   3.900 -0.0006  0.2497 -0.0906
 5067W        W23271   3.434  15.261  14.213  0.0324 -0.2843 -0.0308
 5068W        W23272  10.866  12.686   1.896  0.1553 -0.0586  0.2294
 5069W        W23273   4.193   8.474   3.345  0.1808 -0.0725 -0.3157
 5070W        W23274  13.264   0.217   2.078 -0.1635 -0.0374 -0.3761
 5071W        W23275   0.710  16.130  12.981  0.1167 -0.1678 -0.0425
 5072W        W23276   7.938   3.773   0.657  0.2792  0.2426 -0.2355
 5073W        W23277   7.480   0.489  14.059 -0.1080  0.0251  0.1651
 5074W        W23278   1.776   7.330   0.276  0.0378 -0.1681 -0.2455
 5075W        W23279   9.293   7.721   1.474 -0.0405 -0.0042 -0.1464
 5076W        W23280  11.511  10.169   3.762  0.2117  0.3138  0.0213
 5077W        W23281  12.115   7.400  13.791  0.3188  0.4192  0.1546
 5078W        W23282  15.837   9.043   1.512 -0.0166  0.1424 -0.0462
 5079W        W23283   0.207   2.174  13.131 -0.2415 -0.3581  0.2084
 5080W        W23284  18.003   8.574  11.444  0.1173 -0.1181  0.0030
 5081W        W23285  16.828   3.483   1.695 -0.3708 -0.0626  0.1524
 5082W        W23286   1.977   7.346  11.579 -0.0169  0.1196 -0.1418
 5083W        W23287   7.676  16.103   4.086  0.1857 -0.0391  0.1265
 5084W        W23288  13.047   0.586  12.193  0.1080 -0.0423  0.0641
 5085W        W23289  10.912  14.651   1.273 -0.1413 -0.1809  0.0331
 5086W        W23290   8.265   1.465  12.465 -0.3493  0.1385  0.2885
 5087W        W23291   7.147  11.496  13.576  0.2214 -0.1506  0.0021
 5088W        W23292  10.235   1.462   1.794 -0.0908 -0.2783  0.0392
 5089W        W23293   5.048   1.622   2.011  0.2094 -0.0813  0.0378
 5090W        W23294   6.982   7.728   5.027 -0.0174  0.2296  0.1365
 5091W        W23295  11.088  14.614  12.521 -0.2428 -0.2496 -0.0087
 5092W        W23296   7.633  15.418   3.997  0.0757  0.2440  0.1164
 5093W        W23297   2.315   8.044  12.144 -0.1448 -0.1250 -0.1128
 5094W        W23298  11.275  12.233   4.346  0.1332  0.0826  0.1341
 5095W        W23299  17.639  15.762  13.463 -0.0451  0.0363 -0.0380
 5096W        W23300   6.527   0.201  14.494  0.1124 -0.3371 -0.0819
 5097W        W23301   2.688   6.793  12.891 -0.1258 -0.0450  0.0293
 5098W        W23302  17.335   4.079  10.150  0.0275  0.1220 -0.2147
 5099W        W23303  13.130   5.491   3.029 -0.0379 -0.4452 -0.1422
 5100W        W23304  10.625  11.120  13.081  0.0671  0.2153 -0.1142
 5101W        W23305   7.434  16.326  15.522  0.3827  0.1298  0.1958
 5102W        W23306   2.683   7.181   4.414 -0.0390 -0.1498 -0.1917
 5103W        W23307  14.784   4.439  12.838 -0.3072 -0.1626  0.0355
 5104W        W23308  15.598   2.954   1.673  0.1684 -0.0085 -0.0962
 5105W        W23309  17.718   9.295  14.924 -0.0526  0.2775 -0.2273
 5106W        W23310  12.337  15.444  14.055 -0.2485  0.1176  0.0682
 5107W        W23311   5.594   5.164  14.865  0.2626  0.1227  0.2089
 5108W        W23312  17.266   0.442  14.802  0.0150  0.0476 -0.0665
 5109W        W23313   5.310   7.304  15.950  0.0327  0.0611  0.0484
 5110W        W23314   3.959  17.211   3.053 -0.1081 -0.2032 -0.1427
 5111W        W23315   9.965   6.727   0.725  0.0967 -0.0309  0.1623
 5112W        W23316  12.141   3.185  11.968 -0.0996  0.2202  0.0874
 5113W        W23317   1.982  14.445   0.561  0.1156  0.0789 -0.1669
 5114W        W23318   0.826   8.678  11.995 -0.0526  0.1265 -0.0263
 5115W        W23319   9.000  15.403   2.595  0.1754 -0.0662  0.0560
 5116W        W23320   2.633   8.033  14.332 -0.0519  0.1688  0.0207
 5117W        W23321   0.528  13.334   0.572  0.0256  0.0927 -0.0902
 5118W        W23322  11.240  13.488  12.208 -0.3414 -0.0667  0.3601
 5119W        W23323   3.752   6.199  10.380 -0.1062  0.0082  0.2690
 5120W        W23324  13.849   4.351   1.550  0.2817  0.0765 -0.1892
 5121W        W23325   5.005   3.636  11.667 -0.1262  0.0588 -0.0623
 5122W        W23326   9.968   8.959   1.396  0.1712  0.2303 -0.0801
 5123W        W23327   7.597  13.544   4.518 -0.3123  0.1601 -0.2704
 5124W        W23328   5.348  14.196   2.912  0.0370  0.1234 -0.1102
 5125W        W23329  16.089  10.763  14.560 -0.0234  0.0189 -0.1275
 5126W        W23330  15.584  16.215   2.525  0.1113 -0.1069 -0.0857
 5127W        W23331  14.936   8.584  12.334 -0.1983  0.0222 -0.1046
 5128W        W23332  11.395  13.714  15.283 -0.1096 -0.0745 -0.2254
 5129W        W23333   3.083  16.877  15.621 -0.1416  0.1228  0.3192
 5130W        W23334  16.093  11.238   2.631 -0.1221 -0.1473  0.2285
 5131W        W23335  13.877  10.762  14.359 -0.0075  0.1530 -0.1760
 5132W        W23336  14.119   1.732   0.573  0.2830  0.1556  0.2060
 5133W        W23337  14.433   5.148  15.258 -0.1857 -0.0271  0.0366
 5134W        W23338   5.636  13.278  14.185 -0.0178  0.1746 -0.0349
 5135W        W23339  11.560   0.632  12.066 -0.1188  0.1156  0.1291
 5136W        W23340   5.841  16.242  12.583  0.0148 -0.1564 -0.0507
 5137W        W23341  16.977  11.162  12.764  0.0694  0.1937 -0.4296
 5138W        W23342  10.770  11.337  12.087  0.1581 -0.0753 -0.0228
 5139W        W23343   3.025   5.121  15.714 -0.2694  0.0758  0.1824
 5140W        W23344   7.017   7.687  11.483 -0.1351 -0.1852  0.1850
 5141W        W23345  11.353   9.258   4.243 -0.0674  0.1131 -0.1487
 5142W        W23346   8.400   6.311   3.699 -0.1002  0.2716 -0.0385
 5143W        W23347  10.514  16.354   3.001 -0.0493 -0.0983 -0.2111
 5144W        W23348   7.369   5.126   5.934  0.0019  0.1754  0.4154
 5145W        W23349  13.039   1.830   3.627  0.1553  0.2447 -0.0799
 5146W        W23350  17.737   4.384   2.161  0.0618 -0.1451 -0.1111
 5147W        W23351  12.907   9.205  12.731 -0.3578 -0.0563  0.0160
 5148W        W23352   1.759   5.119  15.222 -0.0907  0.1505 -0.1735
 5149W        W23353  17.816   5.384  13.552 -0.1459  0.1014  0.0193
 5150W        W23354   3.979  15.783   3.135 -0.0558  0.0480 -0.0559
 5151W        W23355   9.764   7.529  13.264  0.2416  0.0339  0.0221
 5152W        W23356  15.187   4.418   5.197 -0.0888  0.2543  0.1909
 5153W        W23357   1.029   1.485   3.188  0.0764 -0.2805  0.1007
 5154W        W23358  10.451  12.174  15.887  0.0261 -0.1319 -0.3422
 5155W        W23359   5.296   6.483   4.907  0.0528 -0.2603  0.0669
 5156W        W23360  17.278  17.734  13.069 -0.1438  0.0817  0.2311
 5157W        W23361  16.325  14.894   4.541  0.1546  0.2548 -0.3180
 5158W        W23362  14.127   6.339   3.358  0.2349 -0.0591 -0.1590
 5159W        W23363   3.416   0.374  11.673 -0.2904 -0.2496 -0.1667
 5160W        W23364  16.007   9.920  11.987 -0.0952 -0.4121 -0.4987
 5161W        W23365   0.317  14.437   3.860 -0.1539  0.0005 -0.0844
 5162W        W23366  14.656   0.064  12.694 -0.0526  0.0326  0.1282
 5163W        W23367   0.891  15.435   3.000  0.0594  0.0744 -0.1272
 5164W        W23368  15.878   6.076  12.722  0.0246  0.1539  0.0147
 5165W        W23369   6.346   5.561  11.130 -0.2727 -0.0064  0.0415
 5166W        W23370   4.947  17.639   3.725  0.1309 -0.0952 -0.0265
 5167W        W23371   5.467   7.864   2.239 -0.0171 -0.2155 -0.0350
 5168W        W23372   6.899   6.441  15.844 -0.1164 -0.0356  0.0757
 5169W        W23373   0.924   6.249  14.061  0.2149 -0.0897  0.0968
 5170W        W23374  14.167   8.067   1.079  0.1045  0.0093  0.2322
 5171W        W23375   7.628   2.504  12.713 -0.0466 -0.1091 -0.0913
 5172W        W23376   7.193   1.551   0.409 -0.3211  0.0658  0.0283
 5173W        W23377  14.834  17.730  14.127  0.0795  0.2862 -0.3144
 5174W        W23378  15.313  13.333  14.484 -0.0709 -0.0268 -0.1506
 5175W        W23379   8.425   1.105  15.902  0.0100 -0.2825  0.0096
 5176W        W23380   6.071   9.029   3.348 -0.3203  0.0703  0.0620
 5177W        W23381   9.941  14.192   5.430 -0.2114  0.5051  0.0272
 5178W        W23382  15.175   9.754   3.460 -0.1595  0.0292 -0.0627
 5179W        W23383   7.828   7.532  10.993  0.4620 -0.1434 -0.2451
 5180W        W23384  15.773  14.264   4.887  0.0034  0.5644 -0.1739
 5181W        W23385  16.456  10.341  13.399  0.0026  0.4447  0.1338
 5182W        W23386  10.108  10.318   1.700 -0.2517 -0.0469  0.0850
 5183W        W23387   9.512   1.044   2.906  0.1407 -0.2579 -0.0021
 5184W        W23388   5.861   4.514   0.114 -0.1868  0.2682  0.0831
 5185W        W23389  12.015   1.343   0.776 -0.2624 -0.0267 -0.1933
 5186W        W23390   5.580   1.591  14.724  0.1966  0.1869  0.1586
 5187W        W23391   7.983  17.570  14.862 -0.1288  0.0263 -0.0348
 5188W        W23392   7.455  10.117  12.937  0.0505  0.0132  0.4696
 5189W        W23393   1.016  15.311   1.918  0.1643 -0.0063 -0.0524
 5190W        W23394  10.212   7.807  11.871 -0.0402 -0.0440 -0.0852
 5191W        W23395   2.185  12.738   2.547 -0.1325 -0.0252 -0.1543
 5192W        W23396   3.383   1.544   4.317  0.1709 -0.0534 -0.0736
 5193W        W23397  12.006   4.233  16.005  0.0173 -0.0194 -0.0126
 5194W        W23398   7.179  14.625   4.834 -0.1574  0.0083 -0.0186
 5195W        W23399  13.735  12.468   1.351  0.0486  0.1604  0.0198
 5196W        W23400  14.038   1.411  15.990  0.0328 -0.1621  0.0425
 5197W        W23401  10.370  12.832   5.457  0.1933 -0.0949  0.2580
 5198W        W23402  15.063  15.783  12.935  0.0074 -0.3571  0.0044
 5199W        W23403   8.558   1.010   0.240  0.0467  0.0390  0.1282
 5200W        W23404   2.443  12.949  15.803  0.1876 -0.1754  0.1027
 5201W        W23405  10.821   2.929   0.638  0.2528  0.0531 -0.1785
 5202W        W23406   2.430   3.157  15.661  0.2449 -0.1927  0.0350
 5203W        W23407  11.956  13.225  13.871 -0.2528 -0.2351 -0.0158
 5204W        W23408  14.922  14.667   3.961  0.2330  0.3904 -0.1252
 5205W        W23409  10.044  12.572  12.093  0.1316  0.0433  0.0927
 5206W        W23410  17.228  14.679  12.270 -0.3572 -0.0129 -0.0280
 5207W        W23411   7.692   4.432  12.467 -0.0914  0.0506 -0.1102
 5208W        W23412  16.493  15.949  14.840  0.3297  0.1682 -0.2710
 5209W        W23413   1.653   1.995  15.490  0.1160  0.2441  0.1989
 5210W        W23414   9.397  17.724  12.002  0.0437  0.2279  0.0344
 5211W        W23415  17.462  15.866   3.830  0.4312  0.0476 -0.3166
 5212W        W23416  16.275   0.784   0.478  0.4461  0.1561  0.1765
 5213W        W23417   5.426   9.993  15.310  0.0166  0.0548 -0.1074
 5214W        W23418   4.081   8.705   0.120  0.2860  0.0525 -0.1149
 5215W        W23419   5.113  17.362  14.734 -0.1282 -0.0038  0.1030
 5216W        W23420   7.486  14.825   2.521  0.0414  0.3391 -0.1614
 5217W        W23421   8.273  14.213  15.653  0.1081 -0.1698  0.0115
 5218W        W23422   8.420  13.235  13.518 -0.2166  0.3284  0.2926
 5219W        W23423  11.850  11.980   0.928  0.2530 -0.1848  0.2983
 5220W        W23424  15.116  14.304  13.874  0.0971  0.1345 -0.0954
 5221W        W23425  16.886   2.344   0.064  0.1402 -0.0510 -0.3313
 5222W        W23426   1.040  13.507   0.458  0.3079 -0.2290 -0.5242
 5223W        W23427   5.491   4.957   5.605 -0.0189 -0.2171  0.0375
 5224W        W23428  16.794   0.166   2.813 -0.2015 -0.0728 -0.0284
 5225W        W23429  11.790   7.675  15.335  0.2545 -0.2225  0.0947
 5226W        W23430   5.782   6.063   0.288 -0.3758 -0.0416  0.1300
 5227W        W23431   6.710   5.336  15.367  0.0319 -0.0387  0.0189
 5228W        W23432   9.032   3.833   1.767 -0.2232 -0.3103  0.1910
 5229W        W23433   3.807  16.290  16.135 -0.0111  0.2384 -0.0915
 5230W        W23434   5.094  12.594  12.359 -0.0378  0.0190 -0.4616
 5231W        W23435   5.014   2.975   1.901 -0.1477 -0.1181 -0.1715
 5232W        W23436   6.574   9.657   3.184 -0.3916 -0.2831 -0.1478
 5233W        W23437  10.314  11.027   0.450  0.1870  0.0656  0.2659
 5234W        W23438   0.738   8.342   3.852 -0.0471  0.3207  0.1254
 5235W        W23439   8.843  15.034  10.804 -0.0578 -0.0812  0.1613
 5236W        W23440  11.963  10.737   2.067 -0.0600 -0.0477 -0.0651
 5237W        W23441  15.852  14.236  11.728 -0.0095 -0.2096  0.1746
 5238W        W23442   0.752  10.907   2.783  0.0104  0.2781  0.0942
 5239W        W23443   4.756  11.276  11.967 -0.0594  0.0632 -0.1384
 5240W        W23444   0.350  10.828   1.073  0.0738 -0.1735  0.1390
 5241W        W23445   5.213   6.384  15.754  0.0836  0.0128  0.0370
 5242W        W23446  17.005  15.345   1.289  0.4485  0.1418 -0.1670
 5243W        W23447   9.602   4.509   4.837  0.0865 -0.0483  0.1795
 5244W        W23448   3.965   8.158  14.085  0.2481 -0.0034  0.3183
 5245W        W23449  12.289   9.104  11.693  0.2257 -0.2548  0.1616
 5246W        W23450  13.734   8.486   3.433  0.3442  0.0756 -0.2203
 5247W        W23451   8.857  17.436  11.601  0.2411 -0.3286 -0.1447
 5248W        W23452  11.232   4.550   1.598 -0.0868 -0.0293  0.3333
 5249W        W23453   1.957   1.137   3.023  0.1759 -0.0756 -0.0259
 5250W        W23454   9.856   7.202   3.362  0.2723  0.0104 -0.0048
 5251W        W23455   5.139   5.178   4.737  0.0542 -0.1582 -0.1360
 5252W        W23456  17.400   6.544  11.778  0.0692 -0.0678  0.0239
 5253W        W23457   8.943  16.974   1.319  0.0128 -0.2084  0.2011
 5254W        W23458  13.084   8.354  13.163 -0.1782  0.2229  0.4568
 5255W        W23459   4.609  17.531   2.927 -0.1619 -0.1694  0.2176
 5256W        W23460   2.188  18.034   4.669 -0.0319 -0.0900  0.1840
 5257W        W23461  17.444   8.427   4.686  0.0998  0.0746  0.1598
 5258W        W23462   3.387  10.535   1.757 -0.0418  0.2528 -0.0109
 5259W        W23463   3.196  11.158   4.368 -0.0333  0.0488  0.3503
 5260W        W23464  15.402   9.661  13.733 -0.1044 -0.4087  0.0725
 5261W        W23465  15.503  15.467   0.196 -0.0480 -0.1883 -0.1081
 5262W        W23466  13.930   9.471   2.922 -0.0978 -0.0007 -0.3755
 5263W        W23467  11.825   0.547  15.801 -0.0519  0.1454  0.1457
 5264W        W23468   0.959   5.791  14.436  0.1594  0.4351  0.1877
 5265W        W23469   9.556  14.044   4.151 -0.1138  0.0668 -0.0068
 5266W        W23470  15.388   5.661   0.774  0.0777 -0.1558  0.0003
 5267W        W23471  15.960   1.579   4.100  0.2486  0.1445  0.0459
 5268W        W23472  10.201  16.798   3.114 -0.0266 -0.0096  0.2741
 5269W        W23473   1.205  17.786   2.273 -0.2256 -0.1366  0.2709
 5270W        W23474   8.541  16.794  12.289 -0.0697  0.0178 -0.1921
 5271W        W23475   5.439   0.580   3.213  0.2765 -0.3104 -0.0927
 5272W        W23476   9.270   3.700   4.005 -0.0904  0.0089 -0.2601
 5273W        W23477   2.001  14.105  13.736 -0.0557  0.3317 -0.2813
 5274W        W23478  13.558  16.302   0.476 -0.0322  0.2444 -0.0783
 5275W        W23479   0.390   5.079  14.298  0.0063 -0.0769  0.2162
 5276W        W23480   5.528  11.065   2.869  0.1541 -0.1214  0.0893
 5277W        W23481   4.653  14.502  15.553 -0.2937  0.1433  0.0091
 5278W        W23482  17.881  14.201  11.447  0.1327  0.1885  0.2738
 5279W        W23483  17.282   9.860  11.389  0.0273 -0.1264 -0.1447
 5280W        W23484  13.042  11.200   3.990  0.1819  0.2653  0.2043
 5281W        W23485  14.982   8.253   4.477 -0.3381 -0.1634  0.1080
 5282W        W23486  13.979  14.194   0.795 -0.1001  0.1430 -0.1577
 5283W        W23487  17.036  17.822  14.023  0.0081  0.1185 -0.1882
 5284W        W23488  17.937   9.442  15.407  0.0940 -0.0641  0.1274
 5285W        W23489   3.362   4.764  12.695  0.3368 -0.1848  0.3375
 5286W        W23490   5.750   0.898   4.522 -0.1617  0.1328 -0.0200
 5287W        W23491   4.366   0.380   3.486 -0.0086 -0.0378 -0.1183
 5288W        W23492  10.958  16.180  15.476 -0.0653  0.1689  0.1830
 5289W        W23493   3.790   6.071  13.049  0.0361  0.1048  0.1444
 5290W        W23494   5.051   5.325  15.956  0.0574  0.0797 -0.4812
 5291W        W23495   4.044   5.714  12.752 -0.0641 -0.0036  0.4196
 5292W        W23496   4.279   2.619  15.596  0.0030 -0.0281 -0.3654
 5293W        W23497   5.558   3.776  15.139 -0.0659 -0.1290  0.1833
 5294W        W23498  17.064   1.004  15.492  0.1350 -0.0867 -0.0179
 5295W        W23499  16.291   9.346  15.668  0.0557 -0.0754  0.0534
 5296W        W23500  12.949  15.914   0.098  0.3306  0.0563 -0.0547
 5297W        W23501  16.347  16.227  11.297 -0.2615  0.0827  0.1655
 5298W        W23502   0.864  11.132  13.562  0.0715 -0.0710 -0.0937
 5299W        W23503   0.099   7.184   4.224 -0.4188 -0.2101 -0.3582
 5300W        W23504   7.962  11.748   3.415 -0.0327  0.1785  0.1680
 5301W        W23505   2.280  12.732  14.278  0.0577 -0.1348  0.1760
 5302W        W23506  16.723  17.291   2.493 -0.0653  0.0128  0.2221
 5303W        W23507  17.247  12.218  15.975  0.0830  0.2649  0.2012
 5304W        W23508  10.238  16.150  14.234 -0.3392 -0.0231 -0.0637
 5305W        W23509   1.598   1.276   0.678 -0.0582  0.1505 -0.0462
 5306W        W23510  11.606  17.820   3.370  0.0242 -0.0762 -0.2871
 5307W        W23511   0.835   0.213  12.932  0.1556  0.1097 -0.0174
 5308W        W23512   9.771  16.884   1.585 -0.1126  0.2833  0.1832
 5309W        W23513  16.728  14.710   2.535 -0.2963 -0.2661 -0.1844
 5310W        W23514  13.434  13.297   2.056  0.0004  0.0097 -0.0613
 5311W        W23515   7.797   7.518   1.642 -0.0039 -0.1508  0.0391
 5312W        W23516   1.498   3.416  13.985  0.0805 -0.2493 -0.1868
 5313W        W23517   5.317  15.984  16.173 -0.1072 -0.2951  0.2341
 5314W        W23518   0.935  17.839  16.001  0.1911  0.1463  0.1151
 5315W        W23519   4.107   0.195   0.146 -0.0032 -0.1215 -0.0141
 5316W        W23520  14.221   7.830   0.132 -0.0262 -0.1251  0.1086
 5317W        W23521  11.634   7.582  14.857 -0.0606 -0.1253 -0.1558
 5318W        W23522   1.841  13.520  13.014 -0.5235 -0.0212  0.0374
 5319W        W23523   4.564  12.673   0.526 -0.2198  0.1026  0.0808
 5320W        W23524   1.940  12.228   2.552 -0.1351 -0.0789 -0.1626
 5321W        W23525  11.362   9.812  14.705  0.3633  0.1529  0.0098
 5322W        W23526  16.303   1.124  14.403 -0.1209  0.0803 -0.1518
 5323W        W23527  13.628  10.090   4.109  0.3930 -0.0870  0.1765
 5324W        W23528   3.563   5.389   3.479  0.0496 -0.1441 -0.0004
 5325W        W23529   9.470   3.552   0.380 -0.2763 -0.0155 -0.0727
 5326W        W23530  16.447   3.596  13.356  0.2961 -0.1978 -0.1404
 5327W        W23531   6.842  16.918  11.343 -0.1283 -0.2051  0.0561
 5328W        W23532  11.244  11.853   3.795  0.1623 -0.1777 -0.1608
 5329W        W23533  11.236  17.343  15.058 -0.1072  0.1799 -0.0899
 5330W        W23534  13.245   7.325   2.177 -0.0593 -0.0194  0.0364
 5331W        W23535  17.412  12.040   5.367 -0.0676  0.0014 -0.3764
 5332W        W23536  10.808   2.890   4.844 -0.1405 -0.1648 -0.0116
 5333W        W23537  11.583   2.563   4.157 -0.1217 -0.0480 -0.2020
 5334W        W23538  15.653  16.922   4.748 -0.1092  0.0263  0.3168
 5335W        W23539  12.855  16.998   2.703 -0.0259 -0.0085  0.0192
 5336W        W23540  11.115   0.190  15.158 -0.0272  0.0272  0.4031
 5337W        W23541   6.403   1.694   2.320 -0.0047  0.1626  0.1676
 5338W        W23542  11.663   5.930  15.188  0.0587  0.0784  0.0233
 5339W        W23543   0.552   1.275   2.926  0.1203 -0.1109 -0.1151
 5340W        W23544  10.537  10.474  11.651 -0.1521  0.1234 -0.0420
 5341W        W23545   7.783   5.315   3.787 -0.2801 -0.0941  0.3486
 5342W        W23546   8.299  14.938  13.646  0.0046  0.0861 -0.1121
 5343W        W23547  11.539   4.576   2.615 -0.0035  0.0588 -0.0074
 5344W        W23548   6.807   9.928  12.283  0.1761 -0.0155  0.2369
 5345W        W23549   0.107   2.146   1.263 -0.0396 -0.0856 -0.1273
 5346W        W23550   5.179   0.160   2.973  0.2159  0.0521 -0.0459
 5347W        W23551   3.251  17.344   3.472  0.0868  0.1400  0.0060
 5348W        W23552  17.985   7.301  14.474 -0.0099 -0.0256  0.0615
 5349W        W23553  10.650  11.985   0.441 -0.0636  0.1446  0.2555
 5350W        W23554  16.342  14.737   4.046  0.0649  0.0188 -0.1815
 5351W        W23555   0.139  16.042   2.059  0.0577  0.1994 -0.0897
 5352W        W23556   2.951  10.644   4.193  0.1673 -0.0321 -0.0521
 5353W        W23557   8.376   4.554   5.244  0.2772 -0.1155 -0.0700
 5354W        W23558  11.979  18.012  12.967 -0.1546 -0.2201 -0.2296
 5355W        W23559  14.339   1.768   0.117  0.2581  0.0197  0.1462
 5356W        W23560  12.989  11.853  13.579  0.0704  0.0866  0.2026
 5357W        W23561  14.182   5.544  11.917 -0.1274  0.0192  0.1194
 5358W        W23562   8.046  16.909  11.640  0.0111  0.1386  0.1746
 5359W        W23563   5.520  14.420   0.589 -0.0306  0.1521 -0.2408
 5360W        W23564   6.244   7.407   0.522  0.0493 -0.0304  0.1503
 5361W        W23565  11.031   8.812  13.832  0.0435 -0.1410  0.1714
 5362W        W23566  17.906  15.589   4.008  0.2792 -0.1349  0.0614
 5363W        W23567   4.276   1.470  12.796  0.0467 -0.0037 -0.1155
 5364W        W23568  11.881   6.033   5.833 -0.2026 -0.2577  0.1359
 5365W        W23569   4.931   6.433   0.630 -0.0795 -0.2136  0.0430
 5366W        W23570   5.274   1.619  13.823  0.0051 -0.0167 -0.2116
 5367W        W23571  17.887   6.030  15.405  0.1926 -0.1174  0.1814
 5368W        W23572  13.940  12.732   5.232  0.1929  0.0341  0.0969
 5369W        W23573   1.791   4.232   0.470  0.0544  0.2236 -0.2548
 5370W        W23574   1.282   9.025  11.184 -0.0457  0.1839 -0.1801
 5371W        W23575   6.789  15.466  15.257  0.1087 -0.1391 -0.2433
 5372W        W23576   6.735  16.978  10.804 -0.1379 -0.0778 -0.0389
 5373W        W23577   2.768   0.746   1.985  0.4263 -0.1219  0.0484
 5374W        W23578   7.491   4.719   2.047  0.0991 -0.1535  0.0128
 5375W        W23579   6.781   2.747   3.865 -0.1613  0.1043 -0.0038
 5376W        W23580  17.924  12.323  12.612 -0.4050  0.2001 -0.0064
 5377W        W23581   4.979  16.841   3.029 -0.0592 -0.3060 -0.1989
 5378W        W23582  11.318   7.420  15.267  0.0577  0.0497 -0.1034
 5379W        W23583   1.862   9.189   0.681  0.0064 -0.1430 -0.3418
 5380W        W23584  14.248   6.233   0.921  0.2636 -0.3174  0.1407
 5381W        W23585   6.642  12.378  14.139 -0.0774 -0.0737  0.0845
 5382W        W23586   3.725   8.514   4.285 -0.3082 -0.0180  0.1165
 5383W        W23587  13.995  12.943   0.115  0.3447 -0.1875 -0.2028
 5384W        W23588  14.083   8.918   3.569 -0.0289  0.3091  0.0173
 5385W        W23589   5.624   0.515   2.791 -0.4628 -0.0651  0.1266
 5386W        W23590  17.252   3.687   1.312  0.2197 -0.1259  0.0119
 5387W        W23591   8.647  16.418   5.477 -0.1767  0.2256  0.0962
 5388W        W23592  17.595   4.920  13.768  0.0444 -0.1574  0.1456
 5389W        W23593  10.074   4.236   0.757  0.0559  0.1825 -0.1025
 5390W        W23594  10.508  10.488  12.790  0.2638 -0.2211 -0.1897
 5391W        W23595  11.264  14.758  15.364 -0.1234  0.0302 -0.1927
 5392W        W23596   7.808  16.998  13.141  0.0709 -0.2145  0.0120
 5393W        W23597   3.249   1.920   3.579  0.3586 -0.0743  0.1577
 5394W        W23598   4.666   9.373  15.357 -0.1978 -0.2746 -0.0604
 5395W        W23599  12.566   9.371  13.094 -0.0330 -0.3932 -0.0279
 5396W        W23600   1.431  14.183   2.226  0.2764  0.1721 -0.0245
 5397W        W23601   7.013   9.465   3.099 -0.0038  0.0503 -0.1954
 5398W        W23602  14.301   4.812   0.779  0.0249 -0.1020 -0.1218
 5399W        W23603  11.292   8.581  12.340 -0.1238 -0.1301 -0.1391
 5400W        W23604  15.460  17.320  16.151 -0.2209  0.2050 -0.2209
 5401W        W23605   4.681   5.125  12.977  0.1712  0.1344 -0.0531
 5402W        W23606  10.916  16.218  13.683  0.4319  0.0583 -0.0228
 5403W        W23607   6.995  15.518   6.272  0.2598 -0.4324 -0.2212
 5404W        W23608  16.337  13.579   3.505 -0.0166 -0.0346  0.1016
 5405W        W23609  12.966   9.802   0.871  0.0631  0.2544  0.0765
 5406W        W23610  17.647   0.829  10.852  0.1175 -0.1188  0.0481
 5407W        W23611   6.380  15.490   1.291 -0.2540 -0.0462  0.1045
 5408W        W23612   0.876  10.335   1.502  0.0499  0.1249 -0.0203
 5409W        W23613   3.442  10.489  12.720 -0.1617 -0.1275  0.0970
 5410W        W23614  16.114   8.082   3.461 -0.1891  0.2250  0.0616
 5411W        W23615  10.810  10.779  12.532 -0.1829  0.0475  0.1764
 5412W        W23616   9.291   6.379   2.500 -0.1878 -0.0022 -0.0929
 5413W        W23617   4.116   7.555   3.476  0.0411  0.0372  0.0494
 5414W        W23618   6.131   6.359  15.210 -0.0269  0.1138 -0.0366
 5415W        W23619  13.290   8.167  14.165  0.0690  0.0608 -0.0716
 5416W        W23620  15.151  15.911   1.117 -0.2769 -0.1823  0.0524
 5417W        W23621  11.787   2.814  13.076  0.0933 -0.0287 -0.1447
 5418W        W23622   7.506  11.610  15.394 -0.1587 -0.0801  0.3496
 5419W        W23623  10.489  15.878  11.545  0.1304 -0.0490 -0.2874
 5420W        W23624   1.571  15.425   3.843  0.0282  0.0415 -0.0028
 5421W        W23625   6.611   9.454  11.960  0.0173  0.3349 -0.0464
 5422W        W23626  14.894  14.834   3.478 -0.0141  0.1847  0.0885
 5423W        W23627   8.882   9.001   4.440  0.1158 -0.0414 -0.1465
 5424W        W23628   9.314  14.734   4.501  0.2985 -0.1042 -0.2508
 5425W        W23629   0.977   9.364   3.117  0.0027  0.0836 -0.0923
 5426W        W23630   8.187   2.262   1.157 -0.0386  0.0059  0.2820
 5427W        W23631  10.950   0.643   3.446 -0.0058 -0.0713 -0.0564
 5428W        W23632   0.188   9.103  13.681 -0.0820 -0.1730 -0.0273
 5429W        W23633  13.148   8.040   1.511 -0.1127  0.0101  0.0608
 5430W        W23634  13.153  14.478  11.007  0.0842 -0.0750 -0.0762
 5431W        W23635   8.713   6.128   2.382 -0.1058 -0.0574  0.0352
 5432W        W23636  11.943  16.106  14.902 -0.1634  0.1959 -0.4944
 5433W        W23637   8.152  12.465   2.657  0.2149  0.3808  0.0120
 5434W        W23638  16.203  13.031  12.310 -0.1534  0.0569 -0.2095
 5435W        W23639  16.295   3.579   2.139  0.0100  0.0156  0.1215
 5436W        W23640   7.566   3.222   2.026 -0.0463 -0.0417  0.2113
 5437W        W23641   4.918   2.483   1.874 -0.1698 -0.1382 -0.0383
 5438W        W23642   7.718  12.170   3.553  0.0110  0.4060  0.1054
 5439W        W23643   4.245   5.897  12.311  0.1949 -0.3238 -0.1209
 5440W        W23644   1.346   8.792   2.550  0.3099 -0.1027 -0.0105
 5441W        W23645  16.307  11.037  14.197 -0.1376 -0.1272 -0.1631
 5442W        W23646  14.293   8.056   3.988 -0.1208 -0.1299  0.0289
 5443W        W23647   1.728   8.995   4.236  0.2537  0.0199 -0.0544
 5444W        W23648  13.287  13.768  11.640 -0.3509 -0.0122 -0.0725
 5445W        W23649   7.428   9.272   1.194 -0.0196  0.3805  0.0187
 5446W        W23650   8.068  10.188   3.316 -0.0788  0.2102  0.1178
 5447W        W23651   3.237   3.690   0.504  0.1654  0.0585  0.0502
 5448W        W23652  10.666   6.579  12.683  0.1514  0.1484 -0.1776
 5449W        W23653  11.748  11.043  14.480 -0.1572 -0.0712  0.2504
 5450W        W23654   2.132  17.931   2.746 -0.2068 -0.0020 -0.1238
 5451W        W23655  12.256   1.695  12.762 -0.1323  0.2923  0.1488
 5452W        W23656   3.420   5.621   3.936 -0.1746  0.0506  0.0996
 5453W        W23657  17.071  14.566   0.925 -0.1537 -0.1226 -0.2842
 5454W        W23658   2.904   6.501   2.030 -0.0034  0.0373 -0.2996
 5455W        W23659  12.964   9.153  14.896  0.2264 -0.0017 -0.1267
 5456W        W23660  17.930   7.262   0.140  0.2170  0.0453 -0.1414
 5457W        W23661  14.886   4.698   1.536  0.4488 -0.2807 -0.4869
 5458W        W23662   5.105  12.725   3.430 -0.1356  0.0304 -0.0650
 5459W        W23663  11.315   1.153   2.166  0.0358 -0.0554 -0.1940
 5460W        W23664   6.054   8.958   0.691 -0.0616 -0.0960  0.2910
 5461W        W23665  15.934  10.940  13.712  0.1084  0.2685 -0.1211
 5462W        W23666  11.022  16.477  13.159  0.1060  0.1891  0.0565
 5463W        W23667  11.286  15.954  12.778 -0.0432  0.1370  0.0049
 5464W        W23668  12.781   3.501  14.914  0.4065  0.2264 -0.0651
 5465W        W23669  16.060  10.177  15.078  0.2788 -0.2277 -0.1685
 5466W        W23670  14.487   1.224  15.952 -0.3374  0.0291 -0.1599
 5467W        W23671  12.720  15.006   3.208 -0.0350 -0.1650  0.0865
 5468W        W23672   0.221  13.459   3.196 -0.1751  0.0488 -0.3526
 5469W        W23673   9.385  15.068  12.093  0.0028  0.0589 -0.2222
 5470W        W23674   7.745   4.308  14.092  0.2889 -0.4600  0.0224
 5471W        W23675   8.299   9.306  12.470  0.1713 -0.0123 -0.1407
 5472W        W23676  13.050  15.599   3.845  0.4408  0.3626 -0.1719
 5473W        W23677  17.561   2.770  13.509 -0.1088 -0.0582 -0.1243
 5474W        W23678   8.814   7.772   0.315  0.1729 -0.0095 -0.0019
 5475W        W23679  12.645   6.499   4.872 -0.1508 -0.0033 -0.2140
 5476W        W23680   0.008  13.815   1.943  0.1597 -0.1237  0.2092
 5477W        W23681  13.426   5.886  14.706  0.0722 -0.0375 -0.0398
 5478W        W23682   4.186  13.007   0.471  0.2920  0.2742  0.1664
 5479W        W23683  14.108   4.299   4.359  0.1122 -0.1580  0.2019
 5480W        W23684   9.881  12.829   4.692  0.2699  0.0017  0.1772
 5481W        W23685  16.662  17.116   3.504 -0.1672  0.2533  0.1208
 5482W        W23686   8.527  10.807   1.163  0.0829 -0.0397  0.1260
 5483W        W23687  16.000   3.546  14.582 -0.2557  0.2380  0.2233
 5484W        W23688  12.372   0.390  15.040  0.2535  0.1799 -0.2154
 5485W        W23689   6.494   2.728  14.158 -0.2052  0.4129  0.2135
 5486W        W23690  14.156   4.557  12.218  0.1194 -0.0181  0.0719
 5487W        W23691  14.031  10.627   2.006 -0.1101  0.0068 -0.0481
 5488W        W23692   8.118   0.951   4.549 -0.2418 -0.0419  0.2142
 5489W        W23693  15.020  12.127  15.265 -0.1574  0.1144 -0.0046
 5490W        W23694  13.155   6.052   1.739 -0.2123  0.0494 -0.1264
 5491W        W23695   6.507  16.308   1.012  0.0872  0.2667  0.1568
 5492W        W23696  11.443  15.966   2.366 -0.0463  0.1875  0.0915
 5493W        W23697  12.299   7.000  14.614 -0.2267 -0.0420  0.1139
 5494W        W23698   7.322  14.352   4.427  0.1394  0.1731  0.0421
 5495W        W23699  17.197   9.865   4.032 -0.1383 -0.0469  0.2174
 5496W        W23700  10.512  11.013   4.460  0.1044  0.0536  0.0036
 5497W        W23701   7.808   7.267   2.188 -0.0789 -0.2561  0.0835
 5498W        W23702  15.568  12.379   4.625 -0.0510  0.2136  0.1043
 5499W        W23703   8.572   1.388   1.093  0.2928 -0.0086 -0.1559
 5500W        W23704   0.960   7.497  14.352  0.0245  0.0409  0.1737
 5501W        W23705  17.225  17.509   0.201  0.1131 -0.4168 -0.2441
 5502W        W23706   8.090   2.431   4.719 -0.0585 -0.0257  0.1797
 5503W        W23707  12.256  15.295  14.755 -0.1783 -0.2638 -0.3510
 5504W        W23708   4.855   4.476   1.009  0.1097  0.0858 -0.2316
 5505W        W23709  14.847   9.385  15.318 -0.2903  0.1114  0.2942
 5506W        W23710  15.123  12.650   2.644  0.1767 -0.3486  0.0036
 5507W        W23711   9.209   5.203   4.703  0.5167  0.1643 -0.0300
 5508W        W23712   7.916   8.577  13.718 -0.0978 -0.1533  0.3982
 5509W        W23713   6.931   8.676  12.275 -0.0683  0.4198  0.1867
 5510W        W23714   9.031  10.571   3.028  0.2427  0.0103  0.2399
 5511W        W23715  14.964   5.925  12.276 -0.1127  0.1280  0.0808
 5512W        W23716   8.881  17.372   3.660 -0.0264  0.1478  0.3122
 5513W        W23717   5.773  17.485  15.551  0.0305 -0.0036 -0.4038
 5514W        W23718  17.353   2.303  13.341  0.3002 -0.1598  0.1740
 5515W        W23719  17.931  10.245  15.083  0.0642  0.0496  0.0784
 5516W        W23720   0.091  13.023   4.842  0.0790  0.2568 -0.1137
 5517W        W23721  13.251  11.587  10.868 -0.1409  0.2086  0.0092
 5518W        W23722   2.117   8.251   0.192  0.0915 -0.1924 -0.0313
 5519W        W23723  13.915  10.608  12.145 -0.0223  0.0769  0.0947
 5520W        W23724   9.599   1.373   5.446 -0.0995  0.2132  0.0213
 5521W        W23725   8.002  17.163  15.203 -0.1205  0.0921 -0.2495
 5522W        W23726  13.649  15.648  14.899  0.0611 -0.0410 -0.2648
 5523W        W23727  15.148   1.831   2.155 -0.0928 -0.1142  0.2016
 5524W        W23728  11.982   1.532   3.422 -0.0669 -0.0044  0.3735
 5525W        W23729   0.694   5.926  12.147 -0.2359 -0.0305 -0.1147
 5526W        W23730   6.920   2.259  13.205  0.1396 -0.0696  0.0977
 5527W        W23731  13.484  17.241  15.128  0.1744  0.1819 -0.3184
 5528W        W23732  11.376   1.440  13.709 -0.0830 -0.1044 -0.1118
 5529W        W23733   9.495   0.504  12.075 -0.1375 -0.1219 -0.0833
 5530W        W23734  17.636  14.685  13.262 -0.2375  0.4215 -0.1423
 5531W        W23735   5.503   4.088  12.159  0.0344  0.1650  0.0564
 5532W        W23736   2.260   6.611   4.801  0.1503  0.1456  0.0778
 5533W        W23737   8.255   3.376  15.339 -0.0219  0.1866  0.1422
 5534W        W23738  11.236   2.644   4.588  0.2673  0.0677  0.1262
 5535W        W23739  14.397   4.741  15.697  0.2717 -0.1517  0.1567
 5536W        W23740  15.103  12.337   3.080  0.1219 -0.0530 -0.0393
 5537W        W23741  12.395  11.998  13.656  0.1093  0.0228  0.1196
 5538W        W23742   5.309  13.871  12.375  0.1906  0.2556 -0.0548
 5539W        W23743  12.996   7.242  13.507  0.1165 -0.3013  0.1353
 5540W        W23744   4.743  16.184  14.451 -0.1720  0.0013 -0.2381
 5541W        W23745  12.395   9.296   0.476  0.0184 -0.1212  0.1551
 5542W        W23746   8.894  15.961  11.682 -0.3515 -0.3405  0.0320
 5543W        W23747   7.882  12.711   6.296 -0.0520 -0.1839 -0.3714
 5544W        W23748   9.002   3.496  11.926  0.3015  0.0448  0.1860
 5545W        W23749  10.934   2.800   1.490  0.1964  0.4537  0.0757
 5546W        W23750   2.755  14.142  10.837  0.2881 -0.1118 -0.2053
 5547W        W23751  14.413  15.201  14.461  0.0002 -0.1200  0.0015
 5548W        W23752  12.632   3.015  14.890 -0.3199  0.0296  0.2506
 5549W        W23753  11.986  16.637   2.741  0.0382  0.1493 -0.1671
 5550W        W23754  10.465   8.385  13.027  0.1175  0.2414  0.0230
 5551W        W23755   1.684   4.353  16.041  0.1475 -0.0696 -0.2425
 5552W        W23756   3.794  10.521   3.767  0.0994 -0.0687  0.3497
 5553W        W23757  13.335  10.165   1.639  0.0296  0.1668 -0.1431
 5554W        W23758   4.436   1.918  13.044  0.1034  0.1310 -0.3684
 5555W        W23759   0.432  13.093   2.882  0.2209  0.2381  0.0435
 5556W        W23760   2.182  11.686  11.839 -0.1232 -0.1646 -0.0648
 5557W        W23761   8.925  12.088   2.685  0.0762 -0.0173 -0.2902
 5558W        W23762  17.801  14.317   2.487 -0.0969  0.3626  0.2760
 5559W        W23763   7.874   6.795   0.923  0.2316  0.0474  0.0804
 5560W        W23764  12.374  10.056   2.619 -0.1545 -0.4087  0.0599
 5561W        W23765   1.474  15.473  12.426  0.2947 -0.0453  0.0990
 5562W        W23766  14.125   4.008   0.464 -0.2440 -0.1215 -0.2933
 5563W        W23767   9.149   3.579  14.567 -0.2763  0.1489 -0.1315
 5564W        W23768  15.492   9.084   4.017 -0.3409 -0.0343 -0.2424
 5565W        W23769   4.249   7.670  12.448  0.1810  0.2210 -0.2617
 5566W        W23770  15.857   1.024  14.128 -0.3445 -0.0260 -0.0139
 5567W        W23771   2.460  14.849   2.723  0.1370  0.0004 -0.1152
 5568W        W23772   6.083   0.551  10.823 -0.1018 -0.1131 -0.0388
 5569W        W23773   1.174   9.416  11.890  0.1874 -0.3856 -0.0213
 5570W        W23774  16.750   9.106  11.825 -0.0953 -0.0485  0.2284
 5571W        W23775   1.003   0.940   4.605 -0.0399 -0.0887 -0.0134
 5572W        W23776   0.606  15.984  12.495  0.1616  0.2428 -0.0203
 5573W        W23777  10.803   9.379   0.499 -0.2313  0.1394 -0.0653
 5574W        W23778   2.968  17.698   2.199  0.2345  0.3775  0.1091
 5575W        W23779   0.106  12.014  14.391 -0.1219 -0.0784  0.3743
 5576W        W23780  13.931   4.471   2.510 -0.0970 -0.0486 -0.3691
 5577W        W23781   3.216  12.185  11.434  0.0613 -0.3003  0.1720
 5578W        W23782   0.812  17.789  15.533  0.1024  0.0638  0.0811
 5579W        W23783  10.497   6.422  12.193 -0.2611  0.1078 -0.0526
 5580W        W23784  14.473   7.467  16.101  0.1911  0.0065 -0.1193
 5581W        W23785   8.072   7.172   0.255  0.2379 -0.0724  0.0039
 5582W        W23786  17.913   6.944  13.727  0.1092 -0.2056  0.0927
 5583W        W23787  12.783  14.570  11.375 -0.2884  0.1366 -0.3003
 5584W        W23788  15.232   1.097  15.543 -0.1387  0.0974 -0.2410
 5585W        W23789   5.077  11.715  12.036  0.0869  0.3178 -0.0439
 5586W        W23790  17.274  15.628  11.369  0.0786 -0.2636 -0.2580
 5587W        W23791   6.236  16.748   4.248  0.1880  0.1020 -0.0139
 5588W        W23792  12.860   5.975  13.953 -0.1553  0.1515 -0.0049
 5589W        W23793   6.135   1.521  15.468 -0.0067 -0.1628 -0.1602
 5590W        W23794   4.961   9.552  14.865 -0.1769 -0.0039 -0.3127
 5591W        W23795   7.035  10.898   3.854 -0.1410 -0.2185  0.1758
 5592W        W23796   0.822  16.930  14.443 -0.1792 -0.1347  0.2651
 5593W        W23797  16.162  12.897  14.260  0.0009 -0.0674 -0.0950
 5594W        W23798   5.598   8.686   4.021 -0.1243 -0.1860  0.0299
 5595W        W23799   2.161   3.476   1.948 -0.0253 -0.0808 -0.0202
 5596W        W23800  14.895  15.844   4.360  0.1505  0.1647  0.1257
 5597W        W23801   6.519   6.436   0.890 -0.0648 -0.1088  0.2565
 5598W        W23802   5.309  16.386  11.647  0.0414 -0.1569 -0.1114
 5599W        W23803   3.622  14.598   0.451 -0.1126  0.2075  0.0945
 5600W        W23804   1.150  15.960  13.145 -0.3276  0.0321 -0.1355
 5601W        W23805   0.032   4.835  11.494 -0.3743 -0.2580  0.4047
 5602W        W23806  15.491  14.431   4.368 -0.2933  0.2384  0.1645
 5603W        W23807  14.186  16.148  14.417 -0.3937 -0.3067 -0.0076
 5604W        W23808   8.263  12.200   3.476 -0.1638 -0.0461  0.4649
 5605W        W23809   0.803   5.171   2.723 -0.1514  0.3763 -0.3466
 5606W        W23810  13.046  17.963   1.060 -0.3435 -0.0369  0.1361
 5607W        W23811  11.328   5.377   2.268 -0.0132 -0.0002  0.0977
 5608W        W23812   8.483  11.758   3.357  0.1011  0.2704 -0.3643
 5609W        W23813  17.464   4.605   1.759 -0.0999 -0.0785  0.1370
 5610W        W23814   7.974   7.447   4.609 -0.0468  0.1424 -0.0015
 5611W        W23815  16.780   6.034   0.911 -0.3298 -0.2849  0.2303
 5612W        W23816  13.650   8.972   0.338 -0.0243  0.3839 -0.1694
 5613W        W23817  15.746  17.316   5.087 -0.4275  0.2409  0.0226
 5614W        W23818  17.408   1.620  14.233 -0.1449  0.0800  0.0761
 5615W        W23819   5.511   0.367  11.986 -0.0969  0.2153 -0.3780
 5616W        W23820   0.372   0.128  14.517 -0.1899  0.0882  0.2345
 5617W        W23821   4.349   8.547  12.854  0.1581 -0.0505 -0.0505
 5618W        W23822  15.635  13.161   4.973  0.0583 -0.1501  0.0983
 5619W        W23823   9.397  15.130   4.167  0.0259  0.2167 -0.1121
 5620W        W23824  17.542  14.792   2.720 -0.2018 -0.2087  0.2034
 5621W        W23825  10.115   6.048   4.440  0.1110 -0.1068 -0.0747
 5622W        W23826  16.962  15.011   2.899  0.1499 -0.0999  0.3113
 5623W        W23827  14.884   6.794  12.939 -0.0411 -0.2921  0.0153
 5624W        W23828   4.788  11.739  10.921  0.2978  0.3363  0.0198
 5625W        W23829   1.808  14.897   2.718 -0.0271 -0.0568  0.0165
 5626W        W23830   9.873   9.208   4.512  0.1482  0.2168  0.0174
 5627W        W23831  12.156   9.090  15.282  0.0241 -0.0645  0.1221
 5628W        W23832  18.010   6.568  13.404  0.3833  0.0308  0.2418
 5629W        W23833  13.000   2.894   3.237  0.1460 -0.0026 -0.0979
 5630W        W23834  11.975   9.270   4.872  0.0262  0.3161 -0.1229
 5631W        W23835  12.678  13.676   3.538  0.0049  0.0346  0.2518
 5632W        W23836   1.975  15.141  13.489  0.1044 -0.1337 -0.0535
 5633W        W23837  11.865  16.479   1.813  0.1578  0.0825 -0.1282
 5634W        W23838   0.429   5.507  14.736 -0.0410 -0.0039  0.1577
 5635W        W23839   9.511  10.371   4.458  0.2185  0.4291 -0.0117
 5636W        W23840  17.752   4.741  12.081 -0.1206 -0.0581 -0.2583
 5637W        W23841   0.498  10.011  14.010  0.1800 -0.2345  0.2372
 5638W        W23842  13.447  16.161  12.834  0.0206  0.1282 -0.4596
 5639W        W23843  12.034   9.707   1.040  0.1858 -0.1098 -0.2010
 5640W        W23844  16.115   6.799   6.114 -0.1122  0.1233 -0.0221
 5641W        W23845  16.917   5.654  15.060 -0.1556 -0.0893  0.2164
 5642W        W23846  11.393  16.150  13.327 -0.0514  0.0983  0.0246
 5643W        W23847   6.206  14.957   1.278  0.1112 -0.1870 -0.3372
 5644W        W23848  15.679   7.982   1.198 -0.1344 -0.2120  0.0382
 5645W        W23849  12.101  15.643  12.275  0.0949 -0.1008  0.1484
 5646W        W23850   5.777  12.818  10.676  0.4154  0.0811  0.2327
 5647W        W23851   0.306  15.236  11.555  0.0411  0.1503 -0.1277
 5648W        W23852  13.186   9.034  14.403 -0.0207 -0.0232  0.3749
 5649W        W23853  14.807  17.282  12.247  0.5752  0.1458  0.2995
 5650W        W23854   1.932   4.194  15.471 -0.2422  0.1360  0.1055
 5651W        W23855  14.333  14.161  14.337  0.2210  0.3626  0.2365
 5652W        W23856   3.618   7.763  15.450 -0.0187 -0.0410  0.2684
 5653W        W23857   4.069  16.881   5.164  0.0395  0.1167  0.0658
 5654W        W23858   3.766   0.661   0.851 -0.0069 -0.0433  0.1026
 5655W        W23859   3.400   8.534  13.782  0.2609  0.4437 -0.3478
 5656W        W23860   6.335  11.745   2.925 -0.1086 -0.1366 -0.1232
 5657W        W23861   7.112  10.025   0.461 -0.3170  0.1727  0.0432
 5658W        W23862   7.619  13.975  16.037  0.1424  0.0107  0.1857
 5659W        W23863   9.982   4.482  13.143  0.0107 -0.1509 -0.2288
 5660W        W23864  15.834  10.554  13.362  0.1543  0.0394  0.2818
 5661W        W23865   2.961   9.043   0.283 -0.2159  0.3608 -0.1353
 5662W        W23866   4.139  14.362   4.137  0.0815  0.1910 -0.2764
 5663W        W23867   3.120   3.748   4.365 -0.0396  0.2595  0.0939
 5664W        W23868  12.087  12.418  12.132 -0.1205  0.2310 -0.0346
 5665W        W23869   1.864  11.781  13.564 -0.0628  0.0667 -0.1958
 5666W        W23870   6.083   3.094  15.784 -0.0901  0.1451 -0.0874
 5667W        W23871   1.688  11.893   4.848  0.0237  0.2100  0.0961
 5668W        W23872   9.098   1.417   4.456 -0.0146  0.1336  0.1049
 5669W        W23873  10.583   3.632  16.023 -0.0150 -0.1665 -0.1603
 5670W        W23874   2.701   9.636   4.080  0.1502 -0.4227  0.0626
 5671W        W23875   6.462   7.487   1.774 -0.1435 -0.0777  0.0162
 5672W        W23876   0.187  11.891  12.446 -0.2075 -0.1584  0.3841
 5673W        W23877   1.269   2.285  14.769  0.1042  0.0209  0.0689
 5674W        W23878   9.726  14.278   2.892 -0.2019 -0.1304  0.0505
 5675W        W23879  16.968  15.531   2.532 -0.1028 -0.0109 -0.1087
 5676W        W23880   3.039  12.998  11.558 -0.0513  0.1214  0.0719
 5677W        W23881  13.699   4.544   3.061 -0.1929 -0.0169  0.2597
 5678W        W23882   5.683   2.363   4.752  0.0502 -0.1553  0.2829
 5679W        W23883   2.317   4.061   3.965 -0.0322 -0.1883  0.3148
 5680W        W23884   9.942   4.190   0.262  0.0148  0.1498 -0.0299
 5681W        W23885  16.572   3.092  11.675  0.0823 -0.1437 -0.2387
 5682W        W23886  11.127   6.049   3.720  0.0641 -0.0925  0.0961
 5683W        W23887  11.587   4.674   3.442 -0.0827  0.0443  0.0096
 5684W        W23888  13.895   4.496   0.619 -0.0083 -0.5476 -0.0096
 5685W        W23889   0.874   8.868  15.126 -0.0722  0.1791  0.1989
 5686W        W23890   9.307  16.973   3.499  0.1590  0.1128 -0.1919
 5687W        W23891  17.648  11.935  15.789 -0.0587  0.0784  0.2768
 5688W        W23892   3.272  10.833  13.827  0.1039  0.2179 -0.0251
 5689W        W23893  13.923  12.590   2.509  0.2337 -0.1787  0.1325
 5690W        W23894   9.492   7.104   3.765 -0.2262 -0.1560 -0.0906
 5691W        W23895  13.661  17.039  13.126 -0.2415  0.1861  0.0767
 5692W        W23896   9.879  17.473  13.178  0.1173 -0.2005  0.0138
 5693W        W23897  17.647  17.119   3.315  0.1767  0.0769 -0.0852
 5694W        W23898   5.307  17.666   3.169 -0.0298  0.3113 -0.1601
 5695W        W23899  13.115  11.104   0.158 -0.0704 -0.1193 -0.3494
 5696W        W23900   5.187  12.003  10.781 -0.1698 -0.0122 -0.1667
 5697W        W23901   1.117  13.247  14.526 -0.1413  0.1259  0.1321
 5698W        W23902   9.822   6.397   2.477 -0.0583 -0.0903  0.0328
 5699W        W23903   6.312   9.387  11.233 -0.0050 -0.2538 -0.0465
 5700W        W23904  15.168  17.618   2.536 -0.1408 -0.0177  0.3208
 5701W        W23905   6.962   1.800   2.316  0.0261  0.2869  0.1002
 5702W        W23906   5.669   5.987   3.614 -0.0632 -0.1299  0.1852
 5703W        W23907   9.247   1.670   3.627  0.1258 -0.1187  0.0891
 5704W        W23908  15.921   0.312  12.555  0.2737  0.1583 -0.0907
 5705W        W23909   3.023   1.983   4.541  0.1662 -0.1158  0.2343
 5706W        W23910  14.221   6.821  13.260  0.0228  0.1362 -0.0607
 5707W        W23911   2.018  15.500  15.612  0.2621 -0.1732  0.1734
 5708W        W23912   6.803   8.223  14.060  0.1150 -0.1159 -0.4449
 5709W        W23913   7.743   5.933  14.193 -0.2084  0.4319  0.3423
 5710W        W23914  10.654   2.150  11.797 -0.1035  0.0965 -0.1374
 5711W        W23915   3.867  13.002   2.091 -0.1962 -0.1978  0.0467
 5712W        W23916  15.675   2.640  11.402 -0.1407 -0.0909  0.1376
 5713W        W23917   9.804   4.538  15.317 -0.0381  0.2180 -0.0039
 5714W        W23918   0.633  15.660  14.258 -0.4400 -0.0936  0.0715
 5715W        W23919  17.141   5.684   3.152  0.2867 -0.2091  0.1594
 5716W        W23920   4.378  12.618  14.637  0.0389 -0.1279 -0.1284
 5717W        W23921   3.277  11.579  15.591  0.0363  0.2570  0.1164
 5718W        W23922   5.370  10.151  12.075 -0.2366 -0.3387  0.2630
 5719W        W23923   8.612   0.641  12.568 -0.0183  0.4025  0.1925
 5720W        W23924  10.065   3.971   1.700 -0.2451 -0.0575  0.0249
 5721W        W23925  14.064  17.344  13.162 -0.0282  0.1969 -0.1623
 5722W        W23926  11.597  13.903   2.948 -0.4312 -0.4700  0.0617
 5723W        W23927  13.744   7.172   0.844 -0.1821 -0.0088 -0.0625
 5724W        W23928   2.538  13.570  14.977 -0.1412 -0.3885 -0.0679
 5725W        W23929   2.601   0.859  15.308  0.2436 -0.2008 -0.2016
 5726W        W23930  15.398   4.410   2.161  0.1034 -0.0260 -0.0631
 5727W        W23931   8.260   6.045   5.744  0.1755  0.1791 -0.2969
 5728W        W23932   2.831  15.143  15.088 -0.0200 -0.0541 -0.0788
 5729W        W23933   5.690   5.671  14.860  0.0061  0.2556  0.2950
 5730W        W23934  13.273   6.136  12.560 -0.0395 -0.0419  0.0299
 5731W        W23935   8.755  15.804   1.256  0.0359  0.0052  0.0892
 5732W        W23936   9.992   1.981  16.078  0.1633  0.2544 -0.1791
 5733W        W23937  13.185   3.805  12.163  0.2226  0.0860  0.1270
 5734W        W23938   7.623   7.812  14.257 -0.2034  0.0115 -0.0679
 5735W        W23939   1.803  14.512  13.495  0.1644 -0.0576 -0.1264
 5736W        W23940  11.597  15.214   3.574 -0.1822  0.0156 -0.1437
 5737W        W23941   3.312   4.854  13.305  0.1392  0.0054 -0.1612
 5738W        W23942   0.895  11.635   0.101 -0.1000  0.1050 -0.1045
 5739W        W23943  10.308  15.149   1.526  0.1410  0.0299  0.1415
 5740W        W23944   9.414   0.516  13.001 -0.1768 -0.1772  0.1044
 5741W        W23945   0.130   8.912   1.803 -0.0816  0.3199 -0.0810
 5742W        W23946  10.637   3.426   0.872 -0.0868  0.1433 -0.0859
 5743W        W23947  11.501  16.590   2.913  0.0767  0.1852 -0.0634
 5744W        W23948   7.811   2.912  14.019 -0.2725  0.4457  0.3497
 5745W        W23949   9.213   8.346  13.199 -0.1718 -0.1015 -0.3240
 5746W        W23950  17.879   9.750  14.987  0.2808  0.1861  0.0749
 5747W        W23951   0.719  15.331   4.241 -0.0916 -0.0965 -0.0413
 5748W        W23952   3.409   7.509   2.555 -0.1859  0.2498 -0.2896
 5749W        W23953  12.167  10.906   5.375  0.2092  0.1025  0.1107
 5750W        W23954   2.753   5.365   2.396 -0.0915  0.0789 -0.0706
 5751W        W23955   6.939   1.479  10.221  0.3000  0.1597  0.2866
 5752W        W23956   7.194  15.338  12.191  0.1042 -0.1598 -0.1007
 5753W        W23957   0.050   6.865  15.511  0.0260  0.1810  0.2850
 5754W        W23958   9.287   3.738   0.833  0.3479 -0.2100  0.0530
 5755W        W23959   2.837  14.256  11.732  0.0870 -0.2052  0.3289
 5756W        W23960   9.894   3.227   0.472 -0.0926 -0.1864 -0.4315
 5757W        W23961   6.680   6.497   6.092  0.1137 -0.1792 -0.0338
 5758W        W23962   4.101  10.768   0.846 -0.4133 -0.0905  0.1747
 5759W        W23963  10.486  12.499  15.499 -0.2671 -0.0152  0.0108
 5760W        W23964  10.974   3.480  14.322  0.0951  0.0182  0.0472
 5761W        W23965   0.299  17.149  15.628  0.4751 -0.1927  0.2934
 5762W        W23966  15.856   7.058  10.780  0.1023 -0.0721 -0.4446
 5763W        W23967   3.461   8.776   3.892  0.0610  0.1584 -0.2108
 5764W        W23968  17.966   9.499  12.838 -0.0317  0.2535 -0.0561
 5765W        W23969   8.188  12.023   3.019 -0.0681  0.0914  0.0421
 5766W        W23970   5.719   0.486  11.175  0.1346 -0.1836 -0.1728
 5767W        W23971   0.378  14.277   1.068 -0.1992  0.0373  0.3210
 5768W        W23972   8.854  13.566  14.522  0.1994 -0.0421  0.1164
 5769W        W23973   8.317   2.444   2.903 -0.0608  0.2763 -0.2080
 5770W        W23974  10.254   1.590   3.518  0.2669  0.1156 -0.0925
 5771W        W23975  15.930   5.812  13.119  0.0713  0.0375 -0.2218
 5772W        W23976   7.732  15.515   0.264 -0.2704 -0.0182 -0.1155
 5773W        W23977   8.758   5.226   2.939  0.0154  0.2000  0.2218
 5774W        W23978  11.126   9.740   0.961 -0.1465 -0.2012  0.0267
 5775W        W23979   7.787   8.850  11.018  0.0318 -0.0704  0.0029
 5776W        W23980  15.826  16.371  16.109  0.1442  0.0037  0.2302
 5777W        W23981  12.567  15.326  13.476  0.0318 -0.1034 -0.1105
 5778W        W23982   3.073   2.711  13.273 -0.0138 -0.0268 -0.1871
 5779W        W23983  10.210   2.775  14.736 -0.1986  0.1231  0.0563
 5780W        W23984   9.548   2.043   3.040  0.1813  0.2941 -0.1617
 5781W        W23985  13.173  17.376   2.854 -0.1154 -0.0854  0.0181
 5782W        W23986   8.206  16.465   1.317  0.2144  0.0224 -0.1215
 5783W        W23987  13.649   9.905  13.439  0.2147 -0.0410  0.0141
 5784W        W23988   1.957   9.909  12.213  0.0742 -0.3404 -0.2327
 5785W        W23989  13.838   2.644  12.956 -0.0646  0.1089 -0.1375
 5786W        W23990   0.110  11.081   0.658  0.3082  0.2158  0.0640
 5787W        W23991   0.101   3.918   1.032  0.1959 -0.0746 -0.1349
 5788W        W23992   8.110   5.906   3.736  0.3431  0.1487  0.0346
 5789W        W23993   6.775   0.376  15.768  0.1976 -0.0128 -0.1022
 5790W        W23994  15.110   9.949   2.457 -0.3792 -0.1438  0.2129
 5791W        W23995   4.387   9.219   4.018  0.0013 -0.2257  0.2489
 5792W        W23996   9.771  11.428  12.029 -0.0539  0.0198 -0.2499
 5793W        W23997   6.887   9.612  15.723  0.4963  0.1485  0.1315
 5794W        W23998   1.586  14.475  11.172  0.0887 -0.0550  0.0943
 5795W        W23999  14.689  17.827  15.117  0.1837  0.0496 -0.0672
 5796W        W24000   5.453   5.120  11.247 -0.0003 -0.2668 -0.0034
 5797W        W24001  17.228  13.678  14.176 -0.3006  0.0196 -0.0652
 5798W        W24002  11.295   8.496  13.567  0.0697 -0.0509 -0.0537
 5799W        W24003   7.189   2.911   3.648  0.0451 -0.0988 -0.1230
 5800W        W24004   5.275  16.877  11.543  0.0522 -0.0685  0.0890
 5801W        W24005   3.351  12.520   1.470  0.0219  0.1090 -0.4263
 5802W        W24006  16.881   5.852  14.484 -0.1952 -0.1563 -0.1376
 5803W        W24007   2.161   3.099  14.714  0.1150 -0.4398  0.0329
 5804W        W24008  17.012   2.243  12.352  0.0255  0.0423  0.2083
 5805W        W24009  10.851   6.029  14.959  0.0561  0.1849 -0.0783
 5806W        W24010   2.469   1.238  11.014 -0.1013  0.0693  0.2010
 5807W        W24011  11.347   2.141   4.342 -0.1818 -0.1367 -0.2175
 5808W        W24012   2.332   2.181  11.722  0.2314  0.0558 -0.4360
 5809W        W24013  10.426  14.072  12.352 -0.1636  0.1984 -0.0614
 5810W        W24014  15.716   4.705  12.731 -0.0968 -0.3413  0.0263
 5811W        W24015   2.002   2.584   0.865  0.2137  0.1768  0.1224
 5812W        W24016  12.758  16.385  12.450  0.1338  0.0616 -0.1988
 5813W        W24017   9.654   3.443  13.163  0.1779  0.2510  0.0367
 5814W        W24018   3.432   6.268   1.312 -0.0853  0.0383  0.1475
 5815W        W24019  17.249   2.798  13.968 -0.1629  0.0869 -0.4401
 5816W        W24020  14.925  14.124   5.516  0.1171  0.2348  0.1010
 5817W        W24021  17.160   5.074  12.773 -0.0236 -0.1314 -0.1106
 5818W        W24022   3.518   6.996   4.241  0.0803  0.1761 -0.1482
 5819W        W24023  10.574  13.199  12.156 -0.2322  0.0456  0.0031
 5820W        W24024  11.784   0.782  14.046 -0.1765 -0.1667 -0.1126
 5821W        W24025   8.772   8.581   4.759 -0.0635 -0.2619  0.1805
 5822W        W24026  14.159   2.969  12.567 -0.0739  0.0913  0.0103
 5823W        W24027   4.366   2.931   4.308  0.2764  0.0726  0.0794
 5824W        W24028  11.366   7.578   2.769 -0.0761 -0.2686 -0.0140
 5825W        W24029   3.666   1.047   1.237 -0.0813  0.2319  0.0985
 5826W        W24030  11.159   7.957   4.859  0.2795  0.0110  0.0805
 5827W        W24031   2.980  11.851   1.149  0.2201  0.2998 -0.0203
 5828W        W24032  17.740   9.744   1.430  0.1182  0.2694  0.4783
 5829W        W24033   0.586   7.991   5.035 -0.1561 -0.1513 -0.2699
 5830W        W24034   3.542   3.881  11.844 -0.1353  0.1849 -0.0175
 5831W        W24035   5.764   9.500  13.472  0.1373 -0.1469 -0.2883
 5832W        W24036   3.477   7.975   0.505  0.0111 -0.4511 -0.0270
 5833W        W24037   9.340  17.666   1.861 -0.2976 -0.2086  0.0002
 5834W        W24038   0.192   9.754   1.651  0.1063  0.1681 -0.1265
 5835W        W24039   4.134  13.435  15.325  0.1279 -0.0312  0.0919
 5836W        W24040  15.789  11.912   0.669 -0.2038 -0.1614 -0.1880
 5837W        W24041  12.095   6.198  12.689  0.1046  0.1189  0.0995
 5838W        W24042   4.447  13.791   0.336 -0.0949 -0.2539 -0.0280
 5839W        W24043  11.661  17.124   2.920  0.1108  0.2802 -0.0197
 5840W        W24044   0.303  13.918   0.701 -0.3262 -0.0943 -0.1404
 5841W        W24045  15.515   2.006  15.084 -0.0692 -0.3594 -0.2301
 5842W        W24046   1.983   9.739  13.874  0.0180 -0.5048  0.0953
 5843W        W24047  12.598   8.820   5.158 -0.1017 -0.2830 -0.1949
 5844W        W24048  17.769   5.616  15.069 -0.1562  0.0267 -0.0958
 5845W        W24049   5.481  12.674  11.977  0.0829 -0.1573 -0.2739
 5846W        W24050  16.031   5.001   2.853  0.1975 -0.1193 -0.2006
 5847W        W24051   6.500  12.282  13.369  0.1510 -0.1008  0.3170
 5848W        W24052   5.961  13.548   0.737  0.0939 -0.2591  0.2367
 5849W        W24053  16.092   5.503  15.810  0.1658 -0.4115  0.2848
 5850W        W24054   8.186  15.346   0.081 -0.1623 -0.0464  0.1222
 5851W        W24055   4.113   3.285  12.454  0.1119  0.1561  0.2491
 5852W        W24056  16.986   9.394   1.858 -0.0951  0.1180 -0.1916
 5853W        W24057   8.817  13.245  15.492 -0.2635 -0.0049  0.1752
 5854W        W24058  17.879  13.050   3.151 -0.2072  0.0245 -0.1259
 5855W        W24059  14.363  17.771   0.597 -0.2209  0.0311 -0.0642
 5856W        W24060   7.194  12.797   1.861  0.2035 -0.4847 -0.1409
 5857W        W24061  10.733   5.291  13.749  0.3555  0.1575  0.2347
 5858W        W24062   6.138  13.890  13.194  0.3286  0.0421 -0.1240
 5859W        W24063   1.581  12.190   5.588  0.1155  0.0682 -0.0964
 5860W        W24064  11.493  13.156  14.171 -0.1423 -0.2140 -0.0029
 5861W        W24065  12.169   5.099   1.434 -0.0194 -0.1166 -0.0388
 5862W        W24066   7.771   9.346  11.564  0.1240 -0.0078  0.2013
 5863W        W24067  15.347  11.684   0.478 -0.3372  0.1307  0.1691
 5864W        W24068   7.700   7.453  12.334  0.0289 -0.0486  0.0268
 5865W        W24069  12.813   6.137   3.576  0.0157  0.1072 -0.0477
 5866W        W24070   7.213   7.259   2.212  0.0070 -0.0439  0.2572
 5867W        W24071  11.850  13.688  13.585 -0.0515 -0.2149  0.1560
 5868W        W24072  15.519   4.254  11.754 -0.1144 -0.1128 -0.1098
 5869W        W24073  12.851   4.112  13.147  0.0742  0.1591 -0.2023
 5870W        W24074   1.710  10.759   3.423  0.1965  0.1103  0.1440
 5871W        W24075  13.355   9.810   1.183 -0.1276  0.0357  0.0857
 5872W        W24076  12.221   8.609  13.499  0.2088  0.1743 -0.2608
 5873W        W24077   7.957   8.742   4.775 -0.2521  0.0201 -0.2659
 5874W        W24078   0.813   6.747  13.021  0.2170  0.3590  0.0469
 5875W        W24079   5.878   7.001   0.580 -0.0947  0.1182 -0.2897
 5876W        W24080   5.269   9.605  12.217  0.2836  0.2568  0.0183
 5877W        W24081   1.958  14.327  14.201  0.0069 -0.0687  0.0737
 5878W        W24082  13.599  13.731  14.033  0.0143  0.1616 -0.0204
 5879W        W24083   5.319   0.074  12.445  0.1494  0.2070  0.4178
 5880W        W24084  13.119   1.220  15.889 -0.0547 -0.2097  0.0695
 5881W        W24085  16.403   2.982  15.670  0.3167 -0.1927  0.1877
 5882W        W24086  11.278  10.702   4.973  0.1195  0.0923  0.0231
 5883W        W24087   1.726   5.530   0.879  0.1743  0.0138 -0.2080
 5884W        W24088   6.283   5.325  11.595  0.1027 -0.0554 -0.3127
 5885W        W24089  14.157  15.958   3.618 -0.3095 -0.1426 -0.1324
 5886W        W24090  16.423  12.408  12.988  0.0910 -0.0421  0.0416
 5887W        W24091   9.506  10.514  15.522  0.0468 -0.0465 -0.0729
 5888W        W24092  16.035   7.032  13.684  0.0156  0.1962  0.0742
 5889W        W24093   9.339  10.620  16.003 -0.2808  0.0928 -0.0839
 5890W        W24094   6.706  10.586  12.592 -0.0294  0.0628 -0.0929
 5891W        W24095  15.039  16.421   3.517 -0.0406  0.0933 -0.1245
 5892W        W24096  13.393   2.928  11.598 -0.0863 -0.1819  0.1152
 5893W        W24097   2.823   4.115   0.775 -0.2817  0.0367 -0.4325
 5894W        W24098  12.947   9.753  12.173  0.2837  0.1553 -0.0620
 5895W        W24099  14.580  14.776   0.181  0.0205 -0.2201  0.0052
 5896W        W24100   8.556  16.121   0.111 -0.2721  0.0767 -0.1100
 5897W        W24101   0.244   3.236   3.435 -0.4051 -0.0767 -0.2149
 5898W        W24102   9.218   5.831   5.301 -0.1676  0.3479 -0.0493
 5899W        W24103  17.252   4.650   4.201  0.1733  0.0873 -0.0438
 5900W        W24104   6.479   8.809   2.979 -0.1494 -0.2638 -0.1663
 5901W        W24105  10.374   9.432  13.534 -0.4723 -0.2115  0.1094
 5902W        W24106   7.197   3.712   1.210 -0.2145  0.2022 -0.0778
 5903W        W24107  12.534  16.198   4.034  0.0629  0.0061 -0.1521
 5904W        W24108   1.697   6.130  11.096  0.1337 -0.1366 -0.1356
 5905W        W24109  10.722   2.333  15.158  0.1022 -0.1252 -0.3903
 5906W        W24110  14.244   9.601   2.469 -0.2606 -0.1012 -0.3386
 5907W        W24111  11.556   3.478   1.211 -0.0362 -0.1102  0.3124
 5908W        W24112   1.917  12.173  12.138  0.0748  0.1043  0.2179
 5909W        W24113   7.856  12.751   3.421 -0.0955 -0.1248  0.0993
 5910W        W24114   7.096   2.045   1.871 -0.0324 -0.4068 -0.2111
 5911W        W24115  11.900  15.889   0.142  0.0999  0.2168 -0.3329
 5912W        W24116  15.111   8.398   0.273  0.0248 -0.0320 -0.1592
 5913W        W24117   4.248  13.789   3.228 -0.0851 -0.0576 -0.0430
 5914W        W24118   5.105  14.515  12.306 -0.0400 -0.0644 -0.1924
 5915W        W24119   0.946  14.631  12.841  0.0489 -0.1276  0.0609
 5916W        W24120  17.445   1.679   4.299 -0.4126 -0.0617 -0.1579
 5917W        W24121   1.270  12.902   1.106 -0.3951  0.1325 -0.0872
 5918W        W24122   6.681  16.850  12.498  0.2025 -0.3513 -0.0018
 5919W        W24123  15.053  11.137  14.754 -0.0393 -0.2045 -0.1490
 5920W        W24124   1.867   5.160   0.412  0.0842  0.0840  0.1279
 5921W        W24125  11.936  11.597   1.796  0.1930  0.0104 -0.0390
 5922W        W24126  10.133   8.785   4.440 -0.0199  0.1129 -0.3107
 5923W        W24127  17.747   7.248  15.464 -0.1867  0.2615  0.0820
 5924W        W24128   8.951  11.502   4.737 -0.3175  0.1236  0.1756
 5925W        W24129  10.886   2.135  10.516  0.1417  0.0857 -0.0308
 5926W        W24130  14.562   4.322   0.331 -0.1004 -0.1924  0.2829
 5927W        W24131  14.689  17.974   1.806 -0.0179 -0.0436 -0.1567
 5928W        W24132  15.369  11.639  13.872  0.0669  0.0840 -0.3397
 5929W        W24133   1.106   9.913   1.336 -0.0786 -0.0567 -0.0345
 5930W        W24134  14.717   9.152  14.196 -0.1177  0.3822 -0.0901
 5931W        W24135   7.875  10.848  12.909  0.1716 -0.2512  0.3570
 5932W        W24136  15.026   6.578   0.804  0.1054  0.0987  0.2379
 5933W        W24137   3.262  17.311   2.410  0.1078 -0.2335  0.1364
 5934W        W24138   0.615   1.060  11.825  0.3050  0.2576 -0.0141
 5935W        W24139  15.240  15.841  13.688 -0.3440 -0.0868 -0.2276
 5936W        W24140   7.090   6.481   4.814 -0.2213 -0.1447  0.1315
 5937W        W24141   7.094  17.804  11.616 -0.1964  0.0542  0.2721
 5938W        W24142   2.709   1.963  14.539 -0.1757 -0.1720 -0.1188
 5939W        W24143  16.606   6.976   2.154  0.2332  0.3635  0.1600
 5940W        W24144   0.532   4.055  12.164 -0.0707  0.1190  0.3214
 5941W        W24145  12.730  15.449  11.022 -0.2154  0.1541  0.0777
 5942W        W24146   5.105  13.874   1.118 -0.0018  0.0465 -0.0798
 5943W        W24147   8.082  14.741   4.214 -0.3818 -0.2701 -0.0411
 5944W        W24148   9.617   3.630   3.632  0.3561  0.0608 -0.0157
 5945W        W24149  15.248   7.596  15.791 -0.0183  0.1268 -0.2304
 5946W        W24150   9.964  12.954   0.185  0.1067 -0.2831 -0.0633
 5947W        W24151   6.138  15.556   3.798 -0.1470  0.2802 -0.1612
 5948W        W24152  15.006  10.378   3.326 -0.0062 -0.0058  0.2113
 5949W        W24153  11.217  14.474  15.789 -0.2048 -0.1625  0.0008
 5950W        W24154  10.015   2.404   3.782 -0.0791 -0.2092  0.0869
 5951W        W24155  11.479  15.713  11.906 -0.0280 -0.0537 -0.1150
 5952W        W24156   1.369   4.629  13.852 -0.1275  0.0009  0.3319
 5953W        W24157   3.197  10.403   4.973  0.1148  0.0163 -0.2608
 5954W        W24158   4.703  14.117  11.831 -0.0380  0.0609 -0.0622
 5955W        W24159   7.979   9.740  11.190  0.1674 -0.1857  0.2779
 5956W        W24160   8.619   1.603  15.663  0.4000 -0.1051 -0.0600
 5957W        W24161  11.699   3.058  15.789 -0.1008 -0.0400 -0.1772
 5958W        W24162  12.909   7.237  11.740 -0.0590  0.1423 -0.2881
 5959W        W24163   4.872  11.857   4.176 -0.1799  0.3969  0.0066
 5960W        W24164  12.229  13.912  13.396 -0.0195 -0.1860 -0.2464
 5961W        W24165  15.399  13.154   2.886 -0.1049 -0.0968  0.1115
 5962W        W24166  13.450   9.329   2.909 -0.3467  0.3114  0.2954
 5963W        W24167   5.462   4.553   2.265  0.3103  0.1176 -0.1590
 5964W        W24168   5.435  12.131   0.780  0.1103  0.1703  0.0711
 5965W        W24169   2.134  10.137  15.963 -0.2113  0.0457  0.1561
 5966W        W24170   5.453   3.695  11.841  0.0677 -0.0695  0.0884
 5967W        W24171  16.494   2.384   2.463 -0.0190 -0.0602  0.1880
 5968W        W24172   2.574  14.695   4.020 -0.0884  0.0130  0.0995
 5969W        W24173   9.251   2.132  15.659  0.0365  0.0448  0.0451
 5970W        W24174   3.502  12.114  15.647 -0.2757  0.0780  0.3395
 5971W        W24175   4.629  13.438   4.940  0.1663  0.3015  0.0103
 5972W        W24176   8.841  14.335  13.127 -0.1220 -0.0956  0.0783
 5973W        W24177  11.182   9.682  14.216  0.3626  0.4705  0.0829
 5974W        W24178   1.355   1.301  10.228  0.4159  0.3468 -0.2414
 5975W        W24179  11.344   9.052  13.477 -0.1301 -0.0431  0.0623
 5976W        W24180  10.836   2.916   3.914 -0.0917  0.0912 -0.1176
 5977W        W24181  16.463  10.121   2.669 -0.0726 -0.2099  0.2267
 5978W        W24182  15.063  12.729  15.505  0.4304  0.0577 -0.2477
 5979W        W24183  17.503   7.106   5.377 -0.1472  0.0636 -0.0909
 5980W        W24184   2.217   4.247   3.037  0.0450  0.0128 -0.3168
 5981W        W24185  16.675  12.321   0.645  0.0905 -0.0968 -0.1326
 5982W        W24186   4.822  10.815   0.438  0.2068  0.1250  0.1333
 5983W        W24187  16.959   8.012   2.974 -0.2098 -0.2954  0.2060
 5984W        W24188  16.043   4.511   0.696 -0.0134 -0.0829  0.0086
 5985W        W24189  11.130  17.399   3.911  0.0188  0.0239  0.1056
 5986W        W24190   1.127   7.748   1.709 -0.0848 -0.1464  0.0402
 5987W        W24191  10.679  14.262  11.269  0.2388 -0.3043 -0.0757
 5988W        W24192   0.026  17.513  11.456 -0.1112 -0.2115  0.0285
 5989W        W24193   8.676   7.594   5.107  0.0067 -0.1871  0.1963
 5990W        W24194  11.412  16.812  13.275 -0.0893 -0.0715 -0.3113
 5991W        W24195   2.299  16.356  14.923  0.1773  0.0071  0.0464
 5992W        W24196   6.555   7.806  16.011  0.4256  0.1101  0.2359
 5993W        W24197  13.764  10.500   2.398 -0.1450  0.0778 -0.1783
 5994W        W24198  11.262   4.729   3.818  0.2543  0.1343 -0.0427
 5995W        W24199  13.793   1.282   0.249  0.0067 -0.0030  0.2332
 5996W        W24200   6.825  13.436   0.584 -0.0679 -0.0415  0.0634
 5997W        W24201   8.176   8.458  13.190 -0.0948  0.3714  0.3557
 5998W        W24202   6.949   1.800  13.972 -0.1539 -0.0470 -0.1031
 5999W        W24203   7.739  15.207   4.487  0.0946 -0.0934  0.0010
 6000W        W24204   7.594  14.547  10.434 -0.0750 -0.0585 -0.1292
 6001W        W24205   9.467  15.543   1.546  0.0467 -0.0943 -0.2211
 6002W        W24206  10.193   2.576   1.087  0.0655 -0.1766  0.2265
 6003W        W24207   5.844  11.742   2.790 -0.2635 -0.3253  0.1106
 6004W        W24208  13.105   1.080  15.408 -0.0307  0.1799  0.1591
 6005W        W24209  12.731   7.464  13.154  0.1122  0.1021  0.1511
 6006W        W24210   3.257  15.934  14.104  0.0448 -0.0137  0.0833
 6007W        W24211   9.383   7.437  14.878 -0.2434  0.2489 -0.3186
 6008W        W24212   7.808   7.303  15.298 -0.1754  0.2633 -0.0866
 6009W        W24213  13.542   4.072   3.665  0.2379 -0.3073 -0.1494
 6010W        W24214  16.616   0.466   0.482 -0.1684 -0.2514 -0.1913
 6011W        W24215  17.912  15.541   1.543  0.0489  0.2215  0.0406
 6012W        W24216   0.934   2.700  14.640  0.1125 -0.1091 -0.1895
 6013W        W24217   4.444  14.539  13.991  0.0190 -0.0033  0.1191
 6014W        W24218   9.690   5.066   2.591  0.1525  0.1106 -0.0585
 6015W        W24219   9.688   7.930  16.153  0.0737 -0.0350 -0.0585
 6016W        W24220   4.777   0.547   2.199 -0.1299  0.0047  0.0582
 6017W        W24221  12.488   6.589  14.966  0.2651  0.2148 -0.2303
 6018W        W24222   9.150  16.703   2.162  0.0273 -0.0905  0.0223
 6019W        W24223  10.067  14.023   1.214  0.0137 -0.0548  0.1156
 6020W        W24224   5.068  16.579  12.468 -0.2280  0.2707 -0.3531
 6021W        W24225   9.278   5.034  13.990  0.1106 -0.3297  0.0697
 6022W        W24226  12.677  12.403  15.001 -0.0401 -0.0945  0.0567
 6023W        W24227   7.604   1.000   3.744  0.2620 -0.3427 -0.1972
 6024W        W24228  18.036  14.233   4.821 -0.1091  0.0722  0.1978
 6025W        W24229   2.428  15.255  11.795  0.0261  0.1599 -0.3000
 6026W        W24230  13.361  12.629   1.785 -0.2176 -0.3210  0.1243
 6027W        W24231   0.570   8.326  15.664 -0.0077 -0.2065  0.1883
 6028W        W24232   5.255  10.869   3.829 -0.4317  0.0749  0.1344
 6029W        W24233  15.182  12.307  15.686  0.2326 -0.0411 -0.0728
 6030W        W24234   9.723  15.067   0.233  0.1546  0.0600 -0.2937
 6031W        W24235  16.485   6.976  14.734  0.2694 -0.4147 -0.3086
 6032W        W24236   5.608  10.388   0.162 -0.1185  0.4041  0.1080
 6033W        W24237   4.481  10.466   0.837  0.0486 -0.3982 -0.2636
 6034W        W24238  16.550   6.741   5.183  0.1285 -0.1305 -0.0821
 6035W        W24239   9.364  17.226   1.645  0.0432  0.2694  0.1772
 6036W        W24240   7.178   5.659   0.852  0.0089 -0.1302 -0.1335
 6037W        W24241  16.022  13.790  11.500  0.0038 -0.0825 -0.0075
 6038W        W24242   2.767   3.147   3.505  0.2402 -0.3197 -0.0541
 6039W        W24243  15.224  14.423   2.711  0.1475 -0.1645 -0.0480
 6040W        W24244   0.400   5.060   4.557 -0.1409 -0.1251  0.1519
 6041W        W24245   6.411  13.504  15.012 -0.3105  0.1151  0.1090
 6042W        W24246  14.742   7.270  13.776 -0.0613  0.4523  0.3507
 6043W        W24247  16.589  10.879  14.737 -0.0833 -0.1851 -0.0097
 6044W        W24248  10.533   2.494   0.669 -0.2252  0.4461 -0.3057
 6045W        W24249  17.606   5.147  12.461 -0.1098  0.2164 -0.1286
 6046W        W24250   2.713   7.227   2.461 -0.3765  0.0588  0.1837
 6047W        W24251  11.658  12.926   0.235 -0.2388 -0.0551 -0.1690
 6048W        W24252   8.358   9.208  14.468  0.0680  0.2684 -0.0428
 6049W        W24253   6.950  11.346  14.083 -0.0999  0.0001  0.2699
 6050W        W24254   1.574  13.427  15.476  0.1038  0.1116 -0.0890
 6051W        W24255   8.468  13.775   1.193  0.0089 -0.0490 -0.0387
 6052W        W24256   4.260  10.753  11.593  0.2211  0.0525  0.1271
 6053W        W24257   9.209   3.009   1.868 -0.0034  0.2835 -0.0176
 6054W        W24258   6.698   3.607  12.796 -0.0123  0.2874 -0.0857
 6055W        W24259   3.769   6.234  14.495  0.0912  0.0678  0.0233
 6056W        W24260   8.743   4.935   5.060  0.3600 -0.2671 -0.2109
 6057W        W24261   6.449  11.968  15.934  0.0200 -0.2299 -0.0021
 6058W        W24262  14.314  16.085  12.316  0.1032  0.1953 -0.0227
 6059W        W24263   2.634   8.244  12.815 -0.0037  0.0148 -0.1083
 6060W        W24264   3.571   5.074  11.490 -0.1472  0.2539 -0.1309
 6061W        W24265  10.041  16.200  13.798  0.2758 -0.3313  0.2420
 6062W        W24266   8.949   8.388  12.466 -0.0040 -0.0828 -0.0471
 6063W        W24267   5.172  12.724  15.094  0.0292 -0.2760 -0.1838
 6064W        W24268  15.821   7.017   1.294 -0.0568 -0.0003  0.1701
 6065W        W24269  11.388   0.617  15.027  0.0914  0.2688  0.1691
 6066W        W24270   7.866   1.281   2.512 -0.0877  0.1755  0.0374
 6067W        W24271  16.532   2.439  15.405  0.1538 -0.0579 -0.0435
 6068W        W24272  10.183   2.882   2.972  0.0519 -0.1696  0.0083
 6069W        W24273   0.246   6.362   2.765 -0.2354 -0.2669 -0.4155
 6070W        W24274   7.793  17.031  10.722  0.1414 -0.0115  0.1315
 6071W        W24275  13.098   4.244  13.644  0.1826  0.1332  0.0322
 6072W        W24276  11.698   6.403  15.306 -0.2745  0.5303 -0.0829
 6073W        W24277  15.954   5.330  12.830  0.2791  0.2089  0.1399
 6074W        W24278   1.006  13.101  10.580 -0.1106 -0.1414  0.2725
 6075W        W24279   9.000  14.045  14.510 -0.1709  0.0483 -0.0441
 6076W        W24280   7.343   0.166   1.960  0.0869 -0.1051 -0.1198
 6077W        W24281   5.070  13.033   0.642  0.1514 -0.0657 -0.1021
 6078W        W24282  11.346   6.350   4.130 -0.2233 -0.2115  0.1526
 6079W        W24283  14.051   9.230   1.101  0.4397 -0.2754 -0.0882
 6080W        W24284   1.253   0.386   0.524  0.0098  0.0568  0.3675
 6081W        W24285  13.259  12.613  12.336  0.0901 -0.2020 -0.0213
 6082W        W24286  17.708  11.687  11.686  0.0271 -0.3297 -0.0532
 6083W        W24287   4.861   5.193   0.665  0.1984 -0.0064  0.1843
 6084W        W24288  11.945   6.826  13.670 -0.1297  0.1694 -0.0508
 6085W        W24289   0.164   3.376   0.463  0.2263  0.1328 -0.1503
 6086W        W24290  17.728   4.572  14.707  0.2918  0.1615 -0.1321
 6087W        W24291   6.757   7.017   3.529  0.1018 -0.1627 -0.0443
 6088W        W24292   6.916   7.606  14.853 -0.1604 -0.1282 -0.0567
 6089W        W24293   4.558   9.983  14.759  0.0188  0.3579 -0.1505
 6090W        W24294  14.163   7.335   2.606  0.1533 -0.3539 -0.0688
 6091W        W24295   8.114  17.409   4.575  0.0478 -0.1584 -0.2423
 6092W        W24296   2.937  15.653  14.976  0.1406 -0.0866  0.1346
 6093W        W24297   5.983   6.243  14.677  0.2662 -0.2731 -0.2064
 6094W        W24298  13.115   9.658  13.000 -0.0437 -0.1765  0.1181
 6095W        W24299   1.189   3.242   3.832  0.2536 -0.1248 -0.0633
 6096W        W24300  10.173  10.929  13.527 -0.1572  0.0540 -0.0060
 6097W        W24301  14.870  16.167   3.104  0.2066 -0.0083 -0.4873
 6098W        W24302   7.251  12.626   0.911 -0.2810  0.1022 -0.2744
 6099W        W24303   6.434   6.873   0.616  0.3572  0.1621  0.1268
 6100W        W24304   9.850   5.420  11.432 -0.3117  0.2858  0.0489
 6101W        W24305  11.427  10.249   2.863 -0.2727 -0.0478 -0.3083
 6102W        W24306   5.222  15.539  15.981  0.2071  0.1228 -0.0666
 6103W        W24307   0.589  15.526  13.745 -0.2203 -0.1586  0.0284
 6104W        W24308   7.863   9.737  15.737 -0.0413  0.5148  0.0414
 6105W        W24309   9.587   4.664  13.981  0.4409  0.2034 -0.0256
 6106W        W24310   0.860  11.045   0.094 -0.1990  0.0145 -0.0036
 6107W        W24311   9.783   8.086  12.033 -0.1773 -0.0946  0.0247
 6108W        W24312   4.567  16.559  14.967  0.3683 -0.4106  0.2060
 6109W        W24313  11.217  10.634  16.164 -0.0501  0.0966  0.2267
 6110W        W24314   7.682  11.929  15.049  0.5183 -0.0831  0.2250
 6111W        W24315   8.170   3.205   1.433  0.1709 -0.2643 -0.1381
 6112W        W24316   9.554   2.039  14.309 -0.0333 -0.0135  0.2866
 6113W        W24317  11.571   0.287   2.044 -0.0074  0.1542  0.0435
 6114W        W24318   6.772   7.112   4.484 -0.1490  0.1815 -0.0869
 6115W        W24319   4.059  11.474  15.655  0.0061 -0.1917  0.0221
 6116W        W24320   6.520   7.500  11.342  0.2799  0.1111 -0.3335
 6117W        W24321   4.028  13.840  11.929  0.0585  0.2303 -0.1441
 6118W        W24322  12.229   9.205   0.962 -0.0140  0.2230 -0.0753
 6119W        W24323   3.457  15.714   2.212  0.2819 -0.0249  0.0517
 6120W        W24324  17.614  17.822   2.788 -0.0702 -0.2150  0.1603
 6121W        W24325   5.071  12.351   2.548 -0.1689  0.1886  0.2132
 6122W        W24326   5.028  17.238   0.798  0.0474  0.1909 -0.2425
 6123W        W24327   7.979  16.365   4.435 -0.3026 -0.1074 -0.0227
 6124W        W24328   9.707  12.674  13.020 -0.2782  0.4691  0.0482
 6125W        W24329  12.948  14.474   2.485  0.4346  0.2260  0.1393
 6126W        W24330   6.042   6.639  14.310  0.0640  0.0038 -0.1179
 6127W        W24331   3.929  16.288   5.197  0.0222 -0.3157 -0.3006
 6128W        W24332   4.980   5.668  15.474  0.0603 -0.2403  0.1562
 6129W        W24333   7.401   3.265  14.077 -0.1121  0.2226  0.0310
 6130W        W24334   4.804  15.856   3.510  0.1198  0.0244  0.0405
 6131W        W24335  15.657  16.804  11.466  0.1655  0.2344  0.0968
 6132W        W24336  15.653  15.841  12.758 -0.2118 -0.2778 -0.0490
 6133W        W24337   2.868   7.728  16.038  0.1246  0.0965 -0.0812
 6134W        W24338  16.189   3.167  13.500  0.2132  0.0989  0.4998
 6135W        W24339  15.897   2.614   0.975  0.1077  0.0084 -0.2377
 6136W        W24340  11.774  16.321   4.519  0.0694 -0.1181  0.3863
 6137W        W24341  14.801   0.419   1.784  0.0484 -0.1105 -0.4327
 6138W        W24342  17.939   0.383  11.747  0.2327  0.0910 -0.3318
 6139W        W24343  14.010  15.794  15.265 -0.0064 -0.0114  0.1643
 6140W        W24344   9.829   5.097   0.547 -0.0960  0.1043 -0.0557
 6141W        W24345   0.944   0.401  11.202  0.1520 -0.0058 -0.0173
 6142W        W24346   1.530   9.555   2.443  0.2013  0.3340  0.0365
 6143W        W24347  17.150   1.775   3.289  0.3413 -0.1013  0.2310
 6144W        W24348  11.032  17.244  11.164  0.2770 -0.1077 -0.2978
 6145W        W24349   1.059   2.415   0.622  0.0153 -0.1497  0.1183
 6146W        W24350   3.338   0.385  14.635 -0.0532  0.4286  0.0708
 6147W        W24351   5.235   1.393   0.344  0.1059  0.0522  0.0911
 6148W        W24352  17.252  16.459   3.475  0.3175 -0.1290  0.0563
 6149W        W24353   7.467   3.662   0.479  0.1112  0.1035 -0.1088
 6150W        W24354  15.857  10.355   2.449  0.0137 -0.1524  0.5280
 6151W        W24355   5.680   4.514  11.887  0.0727  0.0905 -0.0933
 6152W        W24356  10.220  16.084  12.986 -0.1463 -0.1511  0.0133
 6153W        W24357   3.943   3.403   4.129  0.1422 -0.3357 -0.0325
 6154W        W24358   7.197   0.965  12.261 -0.0331 -0.1881 -0.0468
 6155W        W24359   2.805  15.133   4.408  0.0414  0.0554  0.1131
 6156W        W24360   8.613   9.775  14.279  0.0167  0.3182 -0.2108
 6157W        W24361   7.008  17.832   1.852 -0.1758  0.1229  0.3701
 6158W        W24362  13.512  11.393   2.804  0.0370  0.1537  0.2729
 6159W        W24363  12.725  11.363  16.143 -0.0191 -0.0142  0.4956
 6160W        W24364  11.472   2.772   1.810  0.1489 -0.0982  0.2536
 6161W        W24365   5.587  16.575   2.478  0.0117 -0.0069 -0.1438
 6162W        W24366  15.147  14.009   3.156 -0.3419  0.1198  0.3613
 6163W        W24367  17.722   8.902   3.976  0.0031 -0.1424 -0.0066
 6164W        W24368   0.109   1.081  12.155 -0.1705  0.0162  0.1243
 6165W        W24369   1.024   4.884  14.691 -0.0211 -0.1482  0.2528
 6166W        W24370   7.351   4.479  12.867  0.1503 -0.0523  0.0411
 6167W        W24371   0.715  16.221   3.312  0.1449 -0.2424  0.1270
 6168W        W24372   5.804   8.770   2.223  0.2035 -0.2633  0.0594
 6169W        W24373   8.859  17.067   4.594 -0.0052 -0.2114 -0.1025
 6170W        W24374  13.112   2.837  15.543 -0.1247  0.2177 -0.4100
 6171W        W24375   6.841   9.212   2.314  0.0990  0.0058 -0.0751
 6172W        W24376  11.393   5.658  12.903  0.0648  0.2685  0.1526
 6173W        W24377   6.736   5.626  13.179  0.0719  0.0917 -0.1272
 6174W        W24378   5.583   1.359   4.580 -0.1577 -0.0069 -0.2602
 6175W        W24379  12.113   3.567   1.218 -0.0110 -0.0032  0.2763
 6176W        W24380   8.955  12.747   1.485 -0.0284 -0.1864  0.2410
 6177W        W24381  17.815  16.190   3.403  0.0503  0.4477  0.3115
 6178W        W24382  10.563  14.506  13.609  0.0431 -0.0562 -0.0216
 6179W        W24383  14.561  16.102  11.269 -0.0857  0.0867  0.1116
 6180W        W24384  16.478   6.315   0.661  0.1728 -0.1308  0.3692
 6181W        W24385   5.354  16.786   4.538  0.2766 -0.0409 -0.0793
 6182W        W24386   8.600   8.477  12.810 -0.1524 -0.0071  0.0060
 6183W        W24387  10.121   5.132   4.850 -0.2252 -0.2391 -0.0650
 6184W        W24388  15.566  14.542  12.694 -0.0923  0.1548  0.1536
 6185W        W24389  14.173   9.784  16.065 -0.1128 -0.3815  0.1609
 6186W        W24390  10.977   7.222   1.543 -0.2011  0.2221  0.0594
 6187W        W24391  14.959   3.542  15.328  0.0412  0.2799  0.0165
 6188W        W24392   5.286   7.159   1.296  0.2249 -0.2110 -0.1647
 6189W        W24393  15.008   8.181  14.697  0.1314  0.0899 -0.1460
 6190W        W24394   5.547   5.342  16.130 -0.1403  0.1015 -0.2695
 6191W        W24395   7.697  15.337  15.205  0.0010 -0.0419  0.1909
 6192W        W24396   3.978  11.751   4.117  0.1114 -0.0053  0.2536
 6193W        W24397  16.136  10.491  12.940 -0.1739 -0.1412  0.0300
 6194W        W24398   3.128   0.212   3.838  0.2296 -0.0565 -0.2275
 6195W        W24399   0.910  12.257   2.517 -0.0428  0.2961 -0.1370
 6196W        W24400  15.542  10.564   4.147  0.3004  0.0842 -0.3356
 6197W        W24401  17.983   6.513  14.110 -0.1548 -0.4019  0.0644
 6198W        W24402  14.420  13.268  13.289 -0.1876 -0.0419 -0.0737
 6199W        W24403  14.589   0.302  12.062 -0.2436 -0.2174  0.2837
 6200W        W24404  11.087   8.914  11.564 -0.2531  0.3221 -0.0939
 6201W        W24405   7.395  13.053   2.289 -0.1243 -0.3307 -0.3473
 6202W        W24406   7.339   0.111  15.292  0.2293 -0.2706 -0.2331
 6203W        W24407  16.298  15.861   4.255 -0.0310  0.0018  0.1621
 6204W        W24408   8.131  15.608  14.459  0.0641 -0.0403  0.1988
 6205W        W24409   7.286  15.034  14.066  0.1705 -0.1739 -0.2499
 6206W        W24410  12.915  15.931  12.084 -0.3225 -0.1359 -0.2183
 6207W        W24411   0.226  16.886   2.147 -0.0380  0.0799  0.1814
 6208W        W24412   9.492  11.804   2.991 -0.0485 -0.0999  0.1107
 6209W        W24413  10.854   6.764   1.710 -0.0562 -0.0765 -0.0347
 6210W        W24414   0.716  10.760   2.141 -0.2492 -0.1644  0.0652
 6211W        W24415  14.070   9.852  13.151 -0.0226 -0.1224 -0.1055
 6212W        W24416  11.437  12.860   3.678 -0.3374 -0.0448  0.0862
 6213W        W24417  10.686  16.050  15.101 -0.2768  0.2178  0.0328
 6214W        W24418  13.350   5.578   0.978  0.1679  0.2036  0.0277
 6215W        W24419   0.010  17.886  11.026  0.0667 -0.1260 -0.1651
 6216W        W24420  12.169   8.172   2.620  0.5833  0.1017  0.3664
 6217W        W24421   3.498  13.405   3.073 -0.3146 -0.2388  0.0099
 6218W        W24422  14.111   6.588  14.980 -0.1137  0.1338  0.2172
 6219W        W24423   0.536   6.094  12.812 -0.0587 -0.0331  0.1234
 6220W        W24424   3.983  10.932  15.641  0.0562 -0.2548  0.3673
 6221W        W24425  11.691   1.319  14.075  0.1835 -0.0633 -0.2727
 6222W        W24426   1.437  13.805   2.584 -0.0293  0.2053  0.1737
 6223W        W24427   6.363   0.620   4.901 -0.2104 -0.0512 -0.1097
 6224W        W24428   2.121  16.715  13.512 -0.0149  0.0110  0.3191
 6225W        W24429   0.060  11.538  14.616  0.0212 -0.0130  0.0777
 6226W        W24430   9.680  12.544  14.733  0.0031  0.0822 -0.1246
 6227W        W24431  16.356  16.928   3.133 -0.0125 -0.1782 -0.0447
 6228W        W24432  13.487   2.495   3.391  0.0216  0.2965  0.0623
 6229W        W24433  10.958  12.208  14.249  0.1744  0.2320 -0.0728
 6230W        W24434  17.509   6.585  16.080  0.1914  0.1108  0.0536
 6231W        W24435   3.217   9.734   3.755  0.0820  0.0397  0.1247
 6232W        W24436  17.522  12.990  13.680 -0.0920  0.1662 -0.0681
 6233W        W24437  11.810  12.655  15.354  0.1794  0.0863  0.0032
 6234W        W24438  17.457   7.786   3.339 -0.0598  0.3329  0.2206
 6235W        W24439   4.561  13.620  16.082  0.0397  0.0806 -0.2083
 6236W        W24440   7.024  16.551   3.793 -0.3391  0.0012  0.0877
 6237W        W24441  11.597  17.598  16.047 -0.0730  0.0441 -0.1946
 6238W        W24442  14.622  17.341   0.814 -0.0251  0.0119  0.0467
 6239W        W24443   0.602   5.227  12.870  0.2272 -0.0681  0.0325
 6240W        W24444   0.165  10.766   1.903 -0.0851 -0.0412 -0.0354
 6241W        W24445   6.119  15.819   0.226 -0.2043  0.1122  0.2633
 6242W        W24446   8.259  11.056   0.570 -0.0654  0.0935 -0.3146
 6243W        W24447   7.593   1.977   3.750 -0.1353 -0.2067 -0.1749
 6244W        W24448   5.237  14.946  14.963 -0.1194  0.1560  0.0687
 6245W        W24449   1.208   5.078   5.993  0.0035 -0.0572 -0.1122
 6246W        W24450   9.689   5.124   3.231  0.0580 -0.1352  0.0384
 6247W        W24451   4.363   0.452  13.126 -0.1124 -0.0770 -0.1250
 6248W        W24452  10.246  11.528   0.342 -0.0882  0.1102  0.0822
 6249W        W24453  11.489  14.427  12.923 -0.2299 -0.1482  0.1520
 6250W        W24454   1.888   7.080  12.583 -0.0526  0.1392 -0.1074
 6251W        W24455   9.540   7.586   2.015  0.2927  0.0228  0.1218
 6252W        W24456  12.332   3.513   2.698  0.1674 -0.4080  0.0472
 6253W        W24457  15.501   2.019  13.548  0.2515 -0.2996  0.1262
 6254W        W24458   1.372  14.888   1.809  0.1297  0.0768 -0.1311
 6255W        W24459   8.733  16.394  11.104 -0.1585 -0.0898  0.1162
 6256W        W24460   0.698  16.636   1.830  0.1111 -0.0563  0.4657
 6257W        W24461  17.316   1.485  14.694 -0.1421  0.1439  0.1419
 6258W        W24462   7.126  14.547  12.423  0.2182  0.3078 -0.0801
 6259W        W24463   9.632   3.972   4.820 -0.1839 -0.0486 -0.0211
 6260W        W24464  17.395   5.935   3.873 -0.0823 -0.1347 -0.2933
 6261W        W24465  16.714  13.690   1.291 -0.0371  0.0948  0.1317
 6262W        W24466   0.775   1.522  12.689  0.1727  0.1001  0.0058
 6263W        W24467   6.027   3.577   4.674 -0.1842 -0.0306 -0.0074
 6264W        W24468   0.533   8.069   3.350 -0.2733 -0.3117 -0.0232
 6265W        W24469  12.757   7.898   1.175 -0.0081 -0.1846 -0.0970
 6266W        W24470  17.427  17.115   4.504 -0.0383  0.1183  0.1452
 6267W        W24471   7.262  17.071  13.299  0.0185  0.1257 -0.2560
 6268W        W24472   9.720   7.881   0.494 -0.0339  0.2264 -0.0075
 6269W        W24473  12.788   9.866  14.550  0.0233 -0.1472  0.1659
 6270W        W24474  13.890   6.985  15.792  0.1539  0.0107 -0.0269
 6271W        W24475  13.370   1.024   3.644  0.2673  0.2671  0.0695
 6272W        W24476   3.828   6.484  13.498 -0.2470  0.2332 -0.1710
 6273W        W24477   9.579   6.582   2.085 -0.1366  0.3217  0.0705
 6274W        W24478   6.839   5.049  14.923 -0.0192 -0.1859 -0.0947
 6275W        W24479   2.951   8.980   2.084 -0.1139  0.1757 -0.0354
 6276W        W24480   5.284   7.765  12.174  0.1528  0.2087  0.1443
 6277W        W24481  14.359   4.876   2.581 -0.1186  0.3859  0.0547
 6278W        W24482  10.600   7.501   1.760 -0.0476  0.2708  0.0073
 6279W        W24483  11.515   9.658  12.136 -0.3381 -0.1707 -0.2562
 6280W        W24484   5.783   7.295   1.716  0.0513 -0.0737  0.0549
 6281W        W24485   9.060  14.709  12.396  0.1823  0.0827  0.2627
 6282W        W24486   1.584  16.598  11.397 -0.0056 -0.0382 -0.1307
 6283W        W24487  11.866  14.748   3.297 -0.1658 -0.0904 -0.0263
 6284W        W24488   2.939  15.655   0.155 -0.1833 -0.0793 -0.3043
 6285W        W24489   3.035  13.897   0.185  0.0931  0.1153 -0.0070
 6286W        W24490   3.387   7.234   3.798 -0.1040  0.0688 -0.3384
 6287W        W24491   7.108   6.485  13.245 -0.3223 -0.0776  0.0949
 6288W        W24492   7.338   6.964  15.188  0.5596 -0.0872  0.3083
 6289W        W24493  14.031  10.471  15.639 -0.1624  0.0324  0.0360
 6290W        W24494   9.837  18.003   5.038 -0.0360  0.2119 -0.0253
 6291W        W24495   6.131   0.124   3.393 -0.0874 -0.0453  0.1316
 6292W        W24496  10.461   5.160   0.344  0.1661  0.0463 -0.2067
 6293W        W24497  11.655   7.917   3.066 -0.0129 -0.3417 -0.0707
 6294W        W24498   8.880   3.837  14.034 -0.0815  0.1716 -0.0724
 6295W        W24499  17.287   9.411   3.825  0.0309  0.0123  0.1559
 6296W        W24500   8.763   4.157   2.751  0.0894  0.2385 -0.0488
 6297W        W24501  12.970  16.531  11.998 -0.0583  0.2525  0.3008
 6298W        W24502   6.419  15.120  16.129  0.2951  0.2755  0.1842
 6299W        W24503   7.655   1.979   1.229  0.0883 -0.3731 -0.1347
 6300W        W24504   8.418   4.318  15.348  0.0098  0.1548 -0.1198
 6301W        W24505  12.062  14.474   4.274 -0.1294  0.0999 -0.2068
 6302W        W24506   5.801   4.583   4.334 -0.2248 -0.2559 -0.0407
 6303W        W24507  13.528  14.791   0.117  0.0488 -0.2055  0.1638
 6304W        W24508   5.949   4.178  13.871  0.0507 -0.0734 -0.1455
 6305W        W24509   2.064   2.143  15.896  0.3116 -0.1572 -0.0158
 6306W        W24510   5.727  12.392  15.833 -0.0028 -0.3942 -0.0076
 6307W        W24511   5.979  13.925   1.045  0.1665 -0.2082  0.0824
 6308W        W24512  12.283   2.334   2.136 -0.0289 -0.0316 -0.0073
 6309W        W24513   4.679   5.978   1.244 -0.2832  0.3740 -0.0679
 6310W        W24514  16.818  17.962  11.238 -0.0240  0.2309 -0.2730
 6311W        W24515  16.242   1.103   0.873  0.1255 -0.2275 -0.3856
 6312W        W24516   8.675  11.323   3.117  0.0071  0.1168 -0.0970
 6313W        W24517  11.930  13.228  12.272 -0.0261  0.3075 -0.1353
 6314W        W24518   6.767   6.024  13.635 -0.2238  0.0493  0.0410
 6315W        W24519   0.486   6.335   5.839 -0.0988  0.0209 -0.1439
 6316W        W24520   0.419   6.908  14.494 -0.0022  0.3605 -0.1674
 6317W        W24521  13.198   0.718  14.376  0.2494 -0.2106  0.2368
 6318W        W24522   5.729   2.938  13.944 -0.0581 -0.1207  0.0089
 6319W        W24523   4.353   6.735  11.838 -0.0812 -0.0938  0.0317
 6320W        W24524  15.067   5.684   1.156  0.0025  0.0573 -0.4602
 6321W        W24525   6.273   6.879   4.519  0.0671 -0.0507  0.1409
 6322W        W24526   2.554  12.684   3.521  0.3445  0.0553 -0.2829
 6323W        W24527   9.998  13.485   4.556  0.0530 -0.2122  0.3234
 6324W        W24528  17.854  17.661  13.886  0.1367 -0.1215 -0.0544
 6325W        W24529   9.849   0.531  14.292  0.0551 -0.1846 -0.1523
 6326W        W24530   3.687   9.688   2.218 -0.1803 -0.0425 -0.0485
 6327W        W24531   6.501  15.406   4.866 -0.1163  0.3273 -0.1366
 6328W        W24532   8.711   9.474   4.611  0.2962 -0.2809 -0.0804
 6329W        W24533  10.243   7.788  14.146  0.3197  0.0289  0.0978
 6330W        W24534   0.078  16.978  15.206 -0.0294 -0.5232 -0.1463
 6331W        W24535   1.741  17.158   1.871  0.1778  0.1984 -0.0459
 6332W        W24536  14.161  13.651  11.123 -0.0403 -0.1659  0.0509
 6333W        W24537  12.453  15.537   3.274  0.0877  0.1441 -0.1220
 6334W        W24538   1.231   2.804  16.084  0.1523  0.1040 -0.0627
 6335W        W24539  11.460   9.457  15.094  0.2536 -0.0223  0.0270
 6336W        W24540  17.237   1.294  11.218  0.0161 -0.0844  0.0639
 6337W        W24541   6.118   0.908  10.462  0.2034  0.0038 -0.1364
 6338W        W24542  16.526   2.756   3.081  0.1347 -0.0746 -0.1671
 6339W        W24543  13.508  14.382   4.227  0.0059 -0.2090 -0.1335
 6340W        W24544   1.171  17.487  14.452  0.0647 -0.1281 -0.4686
 6341W        W24545  12.968  10.964   1.497  0.1302 -0.1949 -0.0519
 6342W        W24546   6.245  11.173  15.978  0.0393 -0.0466 -0.1011
 6343W        W24547  11.472   7.589  15.715  0.0472 -0.0435  0.0373
 6344W        W24548   0.059   0.943   2.847 -0.2555 -0.3719 -0.0134
 6345W        W24549   9.387   3.260   3.131  0.0276 -0.0382  0.1388
 6346W        W24550  15.835  14.714  14.163 -0.0118 -0.2646 -0.4480
 6347W        W24551   6.602   7.438   3.141  0.1225 -0.1653 -0.1039
 6348W        W24552  16.565   2.505  14.523 -0.0867  0.1058  0.0642
 6349W        W24553  14.864   8.887  15.567  0.1207 -0.4908 -0.0545
 6350W        W24554   9.997   7.131  15.995 -0.1709  0.3729 -0.1058
 6351W        W24555  11.985  12.659  12.990 -0.2758  0.0869  0.1563
 6352W        W24556   8.673   9.124  11.993  0.1277 -0.1516  0.3022
 6353W        W24557   1.279   1.785   2.465  0.2997  0.1599  0.1923
 6354W        W24558  11.016  14.899   1.781  0.1370  0.0023  0.0145
 6355W        W24559  10.065   5.854  13.374  0.0944 -0.0105  0.0596
 6356W        W24560  14.152  12.232   1.687 -0.3268  0.0083 -0.3809
 6357W        W24561  10.621  14.561  14.880 -0.0598 -0.3148  0.0330
 6358W        W24562   8.068  11.660  14.181 -0.2068  0.0191 -0.1204
 6359W        W24563  18.038  11.435   2.709 -0.1002  0.1486  0.1771
 6360W        W24564  10.163   6.787   1.223 -0.1053 -0.0630 -0.1345
 6361W        W24565  12.429   7.305   5.190 -0.1845  0.0450 -0.2962
 6362W        W24566   0.681   2.190   0.824  0.0195  0.0905 -0.0523
 6363W        W24567   1.430   9.966   2.139  0.0237 -0.0169 -0.2388
 6364W        W24568  14.287   2.257  13.962 -0.1612 -0.0239  0.2808
 6365W        W24569  10.062   8.020   2.777  0.0285  0.3842  0.0213
 6366W        W24570   2.664   6.050   2.901  0.0786 -0.3731 -0.0777
 6367W        W24571   1.071  17.557  13.343  0.1777  0.1529  0.0463
 6368W        W24572  17.500  11.006  14.699  0.2630 -0.0647  0.1092
 6369W        W24573  14.534  17.865  13.772 -0.0601  0.0252 -0.1031
 6370W        W24574   1.509  17.873   0.614 -0.1085  0.0924 -0.2245
 6371W        W24575   5.855   3.918  12.583  0.0140  0.3178  0.1728
 6372W        W24576  11.540   7.042  12.050 -0.1563  0.0790 -0.0393
 6373W        W24577  12.689   0.398   3.363 -0.0721  0.0228  0.2871
 6374W        W24578  11.383   1.404  15.296  0.3953  0.1580 -0.1986
 6375W        W24579   7.917  11.953  13.748  0.0189  0.0102  0.0402
 6376W        W24580   5.364   9.127  11.023 -0.1341 -0.0098 -0.0867
 6377W        W24581   5.536   5.987  14.524  0.1062 -0.3694 -0.1504
 6378W        W24582  15.911   7.894  15.967  0.0073 -0.0752  0.0164
 6379W        W24583  12.549  11.036   0.420 -0.1322  0.0061  0.0270
 6380W        W24584   3.622  11.052   1.395  0.1499  0.2871  0.2062
 6381W        W24585  17.001   1.906   0.311  0.2493  0.0755 -0.1294
 6382W        W24586  11.668   0.273   3.209 -0.0120 -0.0783 -0.1238
 6383W        W24587   2.378   4.435  15.133  0.0217  0.1799  0.2171
 6384W        W24588  13.564   3.317   2.485  0.3842  0.1457 -0.2256
 6385W        W24589   4.374   1.740   4.954 -0.1536 -0.1151  0.2624
 6386W        W24590   3.927  16.185  11.655  0.1975 -0.0138 -0.1888
 6387W        W24591  13.332   3.465  13.518  0.0590  0.1050 -0.0945
 6388W        W24592  10.002  16.137  15.720  0.0447  0.0069 -0.0336
 6389W        W24593  14.806   1.588  16.150  0.4269  0.0431  0.1071
 6390W        W24594   0.618  13.051   1.858 -0.0273  0.0565  0.1130
 6391W        W24595   7.111   4.871  13.566 -0.0015  0.0454  0.1161
 6392W        W24596   9.295   2.850  12.938 -0.0917  0.1465  0.0255
 6393W        W24597  10.623  15.145  12.857  0.0474  0.2323 -0.2859
 6394W        W24598   8.786  12.976  13.636  0.0048 -0.4851  0.2387
 6395W        W24599  13.445   5.286   4.232  0.0810 -0.1005  0.2472
 6396W        W24600   1.646   7.849   0.909  0.0059 -0.0946 -0.0078
 6397W        W24601   8.561   0.682  15.045  0.2292  0.0884 -0.0807
 6398W        W24602  17.775  15.186   1.919  0.0497  0.0147 -0.2745
 6399W        W24603   7.438   5.736  15.106 -0.1276  0.0496  0.2283
 6400W        W24604   2.459   6.479   2.737  0.0158 -0.0114 -0.2978
 6401W        W24605  10.116   8.837  11.774  0.4513  0.2412 -0.0575
 6402W        W24606  13.243  14.621   3.847  0.3471  0.0411 -0.0134
 6403W        W24607   8.732   7.248   0.707 -0.0378 -0.2361  0.0547
 6404W        W24608   1.060   1.627   1.518  0.3613  0.1358 -0.0571
 6405W        W24609  16.908  15.535  13.142  0.2496  0.1193 -0.0726
 6406W        W24610   2.800  16.206   3.386  0.2594 -0.1573  0.1279
 6407W        W24611   0.692   3.884  11.681  0.0837 -0.1100 -0.1368
 6408W        W24612   2.947  17.636   2.707 -0.1344  0.1425 -0.0526
 6409W        W24613   7.129   6.854  11.347  0.1324 -0.1249  0.0357
 6410W        W24614  17.500   3.419  15.696 -0.0888  0.0436 -0.4311
 6411W        W24615   1.802  15.140   3.490 -0.3236 -0.1930  0.0854
 6412W        W24616   9.095   8.771  13.526 -0.3905  0.0438  0.1773
 6413W        W24617  13.044  17.930  10.945 -0.3794 -0.2961 -0.0142
 6414W        W24618  16.026  13.603   3.894 -0.2405  0.1076 -0.0937
 6415W        W24619   5.982   7.747   4.126  0.1850  0.2000  0.1038
 6416W        W24620  17.094   3.101  11.700 -0.0937  0.0633 -0.0313
 6417W        W24621  10.656   6.113   4.644  0.0571  0.2277 -0.1201
 6418W        W24622   7.840   9.734   3.041 -0.3874 -0.2606 -0.1846
 6419W        W24623  13.136  10.104  14.854  0.0738  0.1270  0.1883
 6420W        W24624   5.638  15.456   3.778 -0.1252  0.0283  0.1417
 6421W        W24625  16.891  15.945  11.384 -0.0248 -0.0447  0.0749
 6422W        W24626  16.191  13.338  12.849 -0.0142 -0.0888  0.2931
 6423W        W24627  16.257   4.582   3.110  0.3129  0.0811  0.0311
 6424W        W24628   7.347  12.536  12.977  0.1335  0.2013  0.1413
 6425W        W24629   0.170   9.511  13.390  0.1583 -0.3081 -0.3449
 6426W        W24630   2.740   9.761   4.644  0.1362 -0.0874  0.1515
 6427W        W24631  12.777  12.867   0.222 -0.3358 -0.1211 -0.0530
 6428W        W24632  10.264   0.142   1.480 -0.1305  0.2063 -0.0240
 6429W        W24633   2.746   5.923   3.386 -0.1706 -0.0592  0.0401
 6430W        W24634   5.667   1.264  13.730 -0.0610  0.0027 -0.1330
 6431W        W24635   0.387  13.121   0.101 -0.1379  0.0945  0.2396
 6432W        W24636   0.849  12.745  11.403 -0.2100  0.1169  0.3457
 6433W        W24637   9.460  17.739  14.671  0.2636  0.0564 -0.1410
 6434W        W24638   0.094   6.182  13.703 -0.0605 -0.2185  0.1362
 6435W        W24639   6.120   8.261   1.626 -0.1849  0.0440 -0.0131
 6436W        W24640  10.179  10.289  13.895  0.3467 -0.4665 -0.1833
 6437W        W24641  14.750   8.594   1.227  0.0664 -0.1327  0.2648
 6438W        W24642  14.460  17.638   1.529  0.0623  0.0986 -0.2003
 6439W        W24643   9.149  17.839   3.626 -0.0729  0.1638  0.1259
 6440W        W24644  17.394   6.072  15.704 -0.2697  0.1740 -0.3283
 6441W        W24645   9.691  17.335   4.296  0.3267 -0.1122 -0.3573
 6442W        W24646   2.061  16.994  15.952 -0.0885 -0.1136  0.1927
 6443W        W24647   2.021   3.296  14.092  0.1759 -0.0037 -0.1361
 6444W        W24648  12.967   8.480   0.760  0.1922  0.0458 -0.1464
 6445W        W24649   0.483   1.845  12.944 -0.0491 -0.2730 -0.1427
 6446W        W24650   6.228  15.522  11.912  0.2522  0.1143  0.0220
 6447W        W24651  15.399   7.105   1.559 -0.1733 -0.1444  0.0014
 6448W        W24652  14.093   2.560   0.877  0.0282 -0.0674  0.1024
 6449W        W24653   1.970  10.047   4.500  0.2114  0.0021 -0.1157
 6450W        W24654   0.896   8.524   4.322  0.1413 -0.0361  0.1103
 6451W        W24655  11.798  10.615   0.788 -0.0602 -0.1209  0.0746
 6452W        W24656  10.144   3.643  14.534 -0.1392  0.1630  0.1194
 6453W        W24657   3.763   7.319   2.064 -0.0567  0.0943 -0.0379
 6454W        W24658  10.040  10.083  14.904 -0.0670 -0.1520 -0.0801
 6455W        W24659  16.129   8.230   0.905  0.2303 -0.0754  0.0597
 6456W        W24660   9.334   4.879   0.404  0.0155  0.1033 -0.0602
 6457W        W24661  14.787  11.384  13.081  0.0339  0.0550 -0.4216
 6458W        W24662   9.415   8.982   1.652  0.1024  0.4591 -0.0145
 6459W        W24663  10.152   8.263  15.992  0.1479  0.2024 -0.0659
 6460W        W24664  10.079  10.503   4.858 -0.1706 -0.1235 -0.2056
 6461W        W24665  16.461   5.617   0.104 -0.0328  0.3528 -0.3256
 6462W        W24666  12.374   9.141  14.108  0.0153  0.2993  0.0120
 6463W        W24667   9.543  12.788   0.497  0.2197 -0.3711  0.1232
 6464W        W24668  12.519  12.749   0.649  0.1176  0.1494  0.2493
 6465W        W24669  16.342   4.063   2.178  0.1250 -0.1143  0.2699
 6466W        W24670  15.905   8.164  14.018  0.0929  0.1367  0.3766
 6467W        W24671   4.754   3.684  13.006 -0.1378 -0.1299 -0.0462
 6468W        W24672   3.692  12.955   1.229  0.0022 -0.0142  0.1231
 6469W        W24673   2.309   5.868   0.264 -0.4241 -0.0293 -0.1320
 6470W        W24674   8.442  16.061   3.765  0.0416  0.0736 -0.2590
 6471W        W24675   7.387   1.067  11.240 -0.4026 -0.2015 -0.2012
 6472W        W24676   8.941   0.224   5.219  0.2426  0.1580 -0.0375
 6473W        W24677  15.465  12.937  11.471 -0.0940  0.0112 -0.0769
 6474W        W24678  11.023  16.887  12.334 -0.0117  0.0730  0.2611
 6475W        W24679  16.019  14.270  13.977  0.1607 -0.0592 -0.0085
 6476W        W24680  15.185  17.967   1.776 -0.1952  0.3484  0.0132
 6477W        W24681   3.781   1.751  15.873  0.1087 -0.1652  0.0107
 6478W        W24682  10.775   0.967  13.701 -0.0564 -0.1384  0.2567
 6479W        W24683  17.546   5.017  14.965  0.4679 -0.0473  0.0261
 6480W        W24684  14.258   3.240  11.920 -0.3627 -0.0861  0.0343
 6481W        W24685   0.572  16.878  15.296 -0.0947  0.0149  0.2838
 6482W        W24686   6.083   1.772   3.304  0.0981 -0.0154 -0.1469
 6483W        W24687  10.345   3.352   3.261  0.0146  0.1303  0.3907
 6484W        W24688   1.233   5.163  13.938 -0.1151  0.2349  0.1797
 6485W        W24689   6.965   7.907   3.328  0.1419 -0.1115 -0.2917
 6486W        W24690  12.690   2.483  12.166  0.0009  0.1745 -0.1546
 6487W        W24691  16.251  17.376   0.604 -0.0339  0.0985 -0.2064
 6488W        W24692   5.650   9.895   6.075  0.0317 -0.2479  0.3008
 6489W        W24693   1.069  18.026   3.456 -0.0195 -0.0581 -0.3381
 6490W        W24694  16.013   2.693   0.399 -0.0956 -0.0051 -0.0500
 6491W        W24695   1.507   3.885  15.700  0.0984  0.0975  0.2005
 6492W        W24696   1.363  17.552   2.723  0.1066 -0.0198  0.0248
 6493W        W24697   1.140  15.613   0.035 -0.1092  0.0852 -0.0802
 6494W        W24698  10.850   1.171  12.678  0.0523 -0.2652  0.0290
 6495W        W24699   1.778  13.995   3.004 -0.1293  0.1095  0.1775
 6496W        W24700  14.866   6.103  14.141 -0.1250 -0.3498  0.0245
 6497W        W24701   1.938   2.921  15.372 -0.4308 -0.0556  0.0225
 6498W        W24702   2.369  12.451   2.881 -0.0964  0.0270  0.0770
 6499W        W24703  15.246   5.543  15.183 -0.2711  0.2717 -0.3560
 6500W        W24704   7.412   3.094  15.789 -0.0100  0.3848 -0.3738
 6501W        W24705   9.557  16.284   5.532 -0.0906  0.0315  0.3021
 6502W        W24706  15.125  11.328   2.226  0.0679 -0.0585  0.0522
 6503W        W24707  13.546  11.534  13.848 -0.5385  0.0113 -0.2556
 6504W        W24708  13.166   6.274   2.196 -0.1067  0.0648 -0.2596
 6505W        W24709   2.324   4.474   2.185 -0.1119 -0.1902 -0.2002
 6506W        W24710   3.623  15.890  10.528  0.2240  0.1055 -0.4204
 6507W        W24711   8.287  10.896  12.621 -0.2446  0.1676  0.1350
 6508W        W24712  17.245   0.327   4.653 -0.1080 -0.0617  0.2881
 6509W        W24713   8.708  13.945  14.079  0.0522  0.4337  0.0653
 6510W        W24714   8.609   2.273   5.966 -0.1100 -0.1772  0.1004
 6511W        W24715  13.644  13.915  12.883  0.0116  0.0868 -0.0796
 6512W        W24716  13.595  14.736   5.124  0.4190 -0.0379 -0.1101
 6513W        W24717   4.276   2.025  13.735  0.0263  0.4372 -0.2284
 6514W        W24718   2.456  16.455  15.969 -0.0933 -0.2586  0.0984
 6515W        W24719   7.045   0.694   0.858  0.0765  0.3478  0.1273
 6516W        W24720   4.007  12.048  15.579 -0.3959 -0.0918 -0.2288
 6517W        W24721   1.781   9.417   3.896  0.3193 -0.1070  0.1276
 6518W        W24722   7.706   1.454  12.426  0.1417  0.3551 -0.3847
 6519W        W24723   7.435  10.652  15.051 -0.2620 -0.0961 -0.1709
 6520W        W24724   0.938   6.491   0.284  0.0233  0.1807  0.0722
 6521W        W24725   9.700  16.407  10.264 -0.0933 -0.0989  0.0860
 6522W        W24726   8.220  10.222   1.292 -0.4457 -0.0773  0.1548
 6523W        W24727   6.765   1.480  11.558  0.1052 -0.0899 -0.1537
 6524W        W24728   9.474   0.718  13.979  0.0143 -0.0120  0.1436
 6525W        W24729   2.352   6.856  11.576 -0.0370 -0.0193  0.0404
 6526W        W24730  13.433   2.527  10.993 -0.1816 -0.1326 -0.0787
 6527W        W24731  17.840   7.824   3.835 -0.0862 -0.1885 -0.0692
 6528W        W24732  12.323   1.670  15.365 -0.0858  0.0549 -0.2562
 6529W        W24733   4.293  16.441  12.663 -0.0231  0.1430 -0.2165
 6530W        W24734  11.717   4.221   0.308 -0.2261  0.0938  0.0398
 6531W        W24735  15.303  11.690   4.604  0.1067 -0.2474  0.0916
 6532W        W24736  14.232   4.101   3.039  0.1100  0.0683 -0.0032
 6533W        W24737  17.890   6.825  14.531 -0.0725 -0.3423  0.1157
 6534W        W24738  10.796   0.207  11.862 -0.0228 -0.0808  0.2367
 6535W        W24739   5.544  14.314   5.408  0.0277 -0.0945  0.2685
 6536W        W24740   8.171  12.773   2.218  0.0067 -0.0407  0.1099
 6537W        W24741   6.216   4.149   4.862 -0.2130 -0.3195  0.0380
 6538W        W24742   1.112   3.206   0.131  0.2288 -0.0485 -0.0355
 6539W        W24743   6.448  15.249  11.511 -0.1194 -0.0812 -0.0770
 6540W        W24744   7.590  16.204   3.171 -0.2420 -0.1575 -0.3145
 6541W        W24745   7.295  16.235  12.085 -0.1629 -0.1200 -0.0669
 6542W        W24746   0.063   6.980   0.623  0.1332  0.1516  0.1077
 6543W        W24747   6.252  15.184   1.737 -0.0556 -0.2847  0.1117
 6544W        W24748  10.129  14.374   4.998 -0.1125  0.1027  0.0387
 6545W        W24749   5.117   2.360  15.110 -0.1359 -0.0053  0.3529
 6546W        W24750   8.606   1.578   4.591 -0.0077  0.1470 -0.0574
 6547W        W24751   7.283   3.260  14.586  0.1792 -0.2353  0.0314
 6548W        W24752  13.991  11.237  14.498  0.0329  0.0965 -0.0444
 6549W        W24753   0.293  16.320   3.637  0.1635 -0.1405  0.1831
 6550W        W24754  16.803   5.229   2.417  0.0333 -0.1686  0.0436
 6551W        W24755   5.421  10.515   1.112 -0.1161  0.0344 -0.1145
 6552W        W24756   8.058   9.694   1.574  0.0542 -0.1162  0.1870
 6553W        W24757   0.424  11.260   4.578  0.2000 -0.1239 -0.1243
 6554W        W24758  16.681   7.463  11.802  0.0586  0.1043  0.3112
 6555W        W24759   3.137   9.889   2.830  0.0884  0.1242  0.0704
 6556W        W24760   6.225   4.901  14.752 -0.3469  0.2535 -0.1324
 6557W        W24761  17.396  11.202  14.045 -0.1619  0.0445 -0.2106
 6558W        W24762   6.433   5.244   2.136 -0.0598  0.1430 -0.0107
 6559W        W24763   1.234   4.494  14.465  0.0398  0.1549 -0.2072
 6560W        W24764   3.192   5.901   0.988 -0.1657 -0.1863  0.2442
 6561W        W24765  17.875   4.354  12.568 -0.1695 -0.2732 -0.1269
 6562W        W24766  11.883  10.771  13.944 -0.0849 -0.0094 -0.0833
 6563W        W24767  13.153   7.636  15.712 -0.1255 -0.1608  0.0475
 6564W        W24768   4.493   3.439   1.022  0.1129 -0.1223  0.1490
 6565W        W24769  16.091  17.754   3.410 -0.0452 -0.3330 -0.0578
 6566W        W24770   0.251  10.045  16.153  0.2326  0.0934  0.0682
 6567W        W24771   5.947   9.572   2.133 -0.1363 -0.1091  0.0066
 6568W        W24772   5.759   4.676  11.456 -0.1716  0.3584  0.0808
 6569W        W24773  13.395  17.592   1.521 -0.2389 -0.0538  0.0579
 6570W        W24774   5.656   9.224   3.049 -0.1270 -0.0811 -0.2575
 6571W        W24775  12.714   6.055   2.442 -0.1256 -0.0490 -0.0636
 6572W        W24776  10.414   3.256  13.675 -0.1356  0.2247 -0.0325
 6573W        W24777   7.819   3.957  15.149 -0.0313  0.1405 -0.5374
 6574W        W24778   8.491  11.944   0.228 -0.0024 -0.0932 -0.1523
 6575W        W24779   0.765   9.617   5.891 -0.0101  0.0597 -0.0146
 6576W        W24780   6.926   5.759   4.911 -0.0393  0.1333 -0.3456
 6577W        W24781  11.364   5.122  11.703 -0.0391  0.2043 -0.1042
 6578W        W24782   4.555  17.731   4.881  0.1078  0.0182  0.1960
 6579W        W24783  11.709   5.448   4.118 -0.2229 -0.4432 -0.1167
 6580W        W24784   1.050   2.167   3.174 -0.3592 -0.0034  0.2575
 6581W        W24785   5.038  16.624  11.964  0.1885 -0.1870  0.3816
 6582W        W24786   7.950   4.464  11.987 -0.2709 -0.2709 -0.0860
 6583W        W24787   3.007   9.205  15.980 -0.2366 -0.0686  0.1277
 6584W        W24788  10.985   2.878   2.727  0.2944 -0.2809 -0.0069
 6585W        W24789  13.542  17.933  13.427  0.0185 -0.0079 -0.0341
 6586W        W24790   3.752   0.329   4.406  0.1654  0.1221  0.1148
 6587W        W24791   6.650  17.009   2.750  0.0498  0.0404 -0.0873
 6588W        W24792   9.665   9.149  14.155 -0.1767 -0.0224 -0.1123
 6589W        W24793   7.971  13.244   3.667 -0.0238  0.1922 -0.2561
 6590W        W24794   7.585  16.879  11.732 -0.3172 -0.3926  0.0240
 6591W        W24795   2.929   0.121   0.849 -0.0269  0.0380 -0.0617
 6592W        W24796  11.024   6.183  11.274 -0.0712 -0.0626 -0.0334
 6593W        W24797  17.166  13.398  14.609  0.0984 -0.0411 -0.1617
 6594W        W24798  10.869   5.318   3.159 -0.0125 -0.0876 -0.0265
 6595W        W24799  12.440  15.694  13.144  0.1281  0.3074 -0.1677
 6596W        W24800   3.910  15.724  12.338 -0.0021 -0.1153 -0.1845
 6597W        W24801  17.814  11.692  14.159 -0.0362  0.1808  0.0904
 6598W        W24802   5.521   9.122  15.937  0.1688 -0.3478  0.1051
 6599W        W24803  11.737   8.764   1.484  0.0979  0.1204  0.0597
 6600W        W24804   6.747   9.885   1.636  0.1919  0.0176  0.2253
 6601W        W24805   1.216   7.928   0.318  0.1584  0.0191  0.0210
 6602W        W24806  14.534   8.576  15.338  0.1230  0.1101 -0.2385
 6603W        W24807   2.053  13.463   3.580  0.0234 -0.3660  0.1295
 6604W        W24808  17.152   2.223  11.555 -0.2212  0.1557  0.1331
 6605W        W24809  10.462  11.349  15.685  0.0577  0.0412 -0.1203
 6606W        W24810  17.630  12.712  12.817  0.1562  0.1040  0.0907
 6607W        W24811  14.020  10.327   3.875 -0.1240  0.1887  0.0929
 6608W        W24812   4.275   2.528  15.025  0.1741  0.2717  0.2198
 6609W        W24813   1.460   3.060   4.286  0.0961 -0.0613 -0.0796
 6610W        W24814  14.499   8.064   2.052  0.0083 -0.0610  0.2869
 6611W        W24815  13.638  13.771  16.168  0.0753  0.1559 -0.1717
 6612W        W24816   8.769  14.165  15.532 -0.0948  0.0965  0.1873
 6613W        W24817  12.787  10.035   1.653  0.0372 -0.0022 -0.3009
 6614W        W24818  10.479   9.192  15.685  0.1766 -0.1600  0.1961
 6615W        W24819  13.234  14.712   1.022  0.1055  0.0367  0.4499
 6616W        W24820   3.422   5.975   2.541  0.3512 -0.0580  0.2487
 6617W        W24821   6.795   9.734  13.202  0.1488  0.1241 -0.0242
 6618W        W24822  17.193  12.375   1.187  0.1211 -0.0836 -0.0408
 6619W        W24823   5.715   5.117   0.820 -0.0985 -0.0940  0.0807
 6620W        W24824   3.877   6.556  12.986 -0.0280  0.2407 -0.0091
 6621W        W24825  11.491   7.624   3.454 -0.1362  0.1960  0.0708
 6622W        W24826   6.398   7.880  13.298 -0.1573 -0.1999  0.0294
 6623W        W24827  17.429  17.279  13.291 -0.1046  0.0010  0.1050
 6624W        W24828  17.463   4.391   4.562  0.0362 -0.0427  0.0968
 6625W        W24829   8.006   8.307   0.292 -0.1871  0.2946  0.2245
 6626W        W24830   4.336  16.807   0.265 -0.0569 -0.3372  0.2149
 6627W        W24831   6.990   2.838  12.169 -0.1724 -0.3656 -0.3160
 6628W        W24832   6.818  12.871  11.620  0.2549 -0.1074 -0.0043
 6629W        W24833   3.714   9.900   4.332  0.0278 -0.0286  0.1585
 6630W        W24834  15.179  13.121  15.916  0.2149  0.1057 -0.0813
 6631W        W24835  18.012   7.761   4.692 -0.2512 -0.1549  0.0330
 6632W        W24836   4.495   2.790  14.624 -0.0134 -0.0350 -0.0063
 6633W        W24837  16.353   7.899  13.121 -0.2191  0.0251 -0.2644
 6634W        W24838   2.851  15.912  14.551 -0.1322  0.0218 -0.1959
 6635W        W24839   3.908   9.669  11.804 -0.1795  0.1061  0.0589
 6636W        W24840   4.378   5.374  12.629 -0.0486  0.4803 -0.1329
 6637W        W24841  13.722   9.001   0.819 -0.1579  0.1552 -0.0138
 6638W        W24842   2.953   2.680   1.713  0.1215  0.0081 -0.0134
 6639W        W24843  12.506   6.753  14.198 -0.1830 -0.0170 -0.5358
 6640W        W24844   5.385   7.727  15.663  0.1493  0.2598 -0.2533
 6641W        W24845   1.050   6.679   3.374 -0.0241  0.0094 -0.2484
 6642W        W24846   3.624   3.937   4.394  0.3574  0.0585  0.3936
 6643W        W24847  17.876  13.404   3.529 -0.0472 -0.4254 -0.0305
 6644W        W24848   9.727  13.178   0.687 -0.1590 -0.1847  0.1966
 6645W        W24849   5.233  17.699  15.563  0.2764  0.1479 -0.0410
 6646W        W24850  16.469  15.838   0.401  0.1906  0.0919 -0.0836
 6647W        W24851   9.891   0.863  11.086  0.2950 -0.0740  0.0858
 6648W        W24852  15.193  16.146  14.935 -0.0623  0.1405  0.0571
 6649W        W24853   6.532   5.402   0.189  0.3863  0.2149 -0.0468
 6650W        W24854  17.504   8.312  12.314  0.0631  0.1457 -0.0549
 6651W        W24855   4.271  12.278   2.972 -0.0947  0.1377  0.0068
 6652W        W24856   0.528  15.798   3.052 -0.1258  0.0516 -0.0428
 6653W        W24857  13.104  11.057   0.822 -0.2014  0.1097  0.1147
 6654W        W24858   0.189  16.253   0.468 -0.0418 -0.3946  0.0441
 6655W        W24859   9.438  17.709   0.306  0.1044  0.3581  0.1859
 6656W        W24860  12.570  12.522  12.943  0.0914  0.0548  0.2086
 6657W        W24861   0.382  17.200  11.455 -0.0007  0.1411  0.1543
 6658W        W24862   1.317   7.355   0.072  0.0355  0.2128  0.0185
 6659W        W24863   1.597   6.960   0.597  0.3384  0.2285 -0.2443
 6660W        W24864  17.718  11.549  14.953  0.0290  0.0889  0.3493
 6661W        W24865  11.183   6.041  15.368 -0.0284  0.2131 -0.0439
 6662W        W24866   9.340   2.684  12.041 -0.2877  0.3111  0.1671
 6663W        W24867   4.185   6.893   2.781  0.0507  0.0856  0.0333
 6664W        W24868   1.221  11.290  13.030 -0.2937 -0.1679 -0.0114
 6665W        W24869   2.366   5.063   0.233 -0.0743  0.2802  0.1510
 6666W        W24870  17.676  12.435   1.901  0.0045 -0.0534  0.3861
 6667W        W24871   6.890   8.818   1.378  0.2675 -0.3407 -0.0310
 6668W        W24872   3.594  13.535   1.317  0.2639  0.1090  0.2198
 6669W        W24873   2.195  16.251   4.649  0.0014  0.2874  0.4167
 6670W        W24874   5.805   7.444  13.779  0.2148  0.0723  0.0894
 6671W        W24875   1.996   4.943  14.385  0.0726  0.2740  0.0274
 6672W        W24876   8.088  16.362  11.524  0.0161 -0.2226 -0.0659
 6673W        W24877   5.576   6.438  14.402 -0.2183 -0.2972 -0.0900
 6674W        W24878   4.110   8.855   1.281  0.0499 -0.2559  0.4593
 6675W        W24879  13.883   3.144   2.897 -0.1199 -0.1660 -0.0866
 6676W        W24880  11.033   9.736  12.760 -0.0696 -0.1036 -0.3844
 6677W        W24881   8.733   9.553   3.790  0.0554  0.2099  0.0044
 6678W        W24882   4.365  11.624  13.225 -0.1214  0.2126  0.1492
 6679W        W24883  13.685   3.649  15.638 -0.0837  0.2977  0.2327
 6680W        W24884   9.355  17.452  16.002  0.0877  0.2456 -0.0636
 6681W        W24885  12.420   3.980   1.080  0.3359 -0.2782 -0.2616
 6682W        W24886   7.400   1.032   2.266  0.1396 -0.1138  0.1499
 6683W        W24887  13.123   8.725  15.265  0.3408 -0.1565 -0.3023
 6684W        W24888  10.435  10.357  15.189  0.3387 -0.1889  0.0868
 6685W        W24889  14.823   2.037   0.925 -0.4721 -0.1860  0.1516
 6686W        W24890   3.881  14.475   1.248 -0.0849  0.1792 -0.0287
 6687W        W24891   8.539   2.799   3.190 -0.1591  0.1871  0.1015
 6688W        W24892  16.869   5.599   0.632 -0.0736 -0.1328 -0.2376
 6689W        W24893   7.976  11.557   2.496  0.0975  0.0374  0.2280
 6690W        W24894   8.970   9.838  12.173  0.0650 -0.2386 -0.2039
 6691W        W24895   1.757   8.368  11.464  0.0914  0.1552 -0.1709
 6692W        W24896  15.999   7.169   0.310  0.2000 -0.0527  0.1109
 6693W        W24897  15.133   6.867   4.062 -0.1719  0.2370  0.0867
 6694W        W24898   7.770   1.568   0.952  0.1868 -0.1144  0.2059
 6695W        W24899   3.706   2.036   0.490  0.2996  0.0344 -0.1205
 6696W        W24900   5.390   8.242  12.159  0.0422  0.2636  0.2663
 6697W        W24901   7.653  15.234   1.734 -0.2419  0.0220  0.0483
 6698W        W24902   2.067   4.050  14.980  0.0284  0.0991 -0.0164
 6699W        W24903   0.545   1.041  13.732  0.1374 -0.3054 -0.0416
 6700W        W24904  16.709  14.786  15.633  0.2656 -0.2182  0.1463
 6701W        W24905   4.954  15.593   0.774  0.1237  0.2017  0.3023
 6702W        W24906   0.668   8.037  16.102  0.3096  0.0669  0.1375
 6703W        W24907  13.960   0.938  12.098 -0.0734  0.0619 -0.2902
 6704W        W24908  11.355   5.849  14.330  0.1969 -0.0379  0.0486
 6705W        W24909  10.827   3.009  11.574  0.1305  0.2279  0.1009
 6706W        W24910   7.325  16.269   1.360  0.2459  0.2269  0.0531
 6707W        W24911   9.123  10.149  14.390 -0.4333  0.1511  0.1649
 6708W        W24912  17.481   0.380   0.625 -0.0415  0.0796 -0.3461
 6709W        W24913   6.324  14.159   1.857  0.1196  0.0137  0.1767
 6710W        W24914   1.872  15.218   1.557  0.2535  0.3203  0.0996
 6711W        W24915   7.842  11.462  15.018  0.1986 -0.1418 -0.0777
 6712W        W24916   7.696  15.505  14.189 -0.1869  0.1717 -0.0969
 6713W        W24917  12.839   3.772  13.581 -0.2019  0.0271 -0.2390
 6714W        W24918   1.108  14.025  13.997 -0.2768 -0.2172 -0.2519
 6715W        W24919   4.194  14.299  15.481  0.2860 -0.0004  0.2443
 6716W        W24920   9.504   2.456   5.572  0.1207 -0.1666 -0.1362
 6717W        W24921   6.564  17.564  13.654  0.0995  0.0108  0.2785
 6718W        W24922   3.868   2.792  12.668  0.0670  0.0653 -0.1543
 6719W        W24923   2.005  15.397   0.121  0.2836  0.1122 -0.1013
 6720W        W24924  14.533  17.640   3.116  0.0253  0.1571 -0.1119
 6721W        W24925   8.541   1.729  15.140  0.2556 -0.0477 -0.1345
 6722W        W24926   4.775  10.607   1.291  0.0485  0.0150 -0.2021
 6723W        W24927   1.624  13.942  11.410 -0.1897 -0.0228  0.0017
 6724W        W24928  12.448  11.551  12.799  0.0114  0.3423 -0.1931
 6725W        W24929  10.400   4.419   0.110 -0.0335 -0.0892 -0.1919
 6726W        W24930   4.298  13.216  12.668 -0.0757  0.1282 -0.1292
 6727W        W24931   9.043   0.482  13.393 -0.2254  0.1400 -0.1153
 6728W        W24932  13.826   5.510  15.838 -0.3086 -0.1475 -0.1257
 6729W        W24933  12.614  16.888  12.400  0.0498  0.0438 -0.3002
 6730W        W24934   8.429  14.067   0.110  0.1771  0.1820  0.1642
 6731W        W24935   0.444   4.335  10.850  0.1124  0.1342  0.1966
 6732W        W24936   7.443   3.332   3.798  0.0281  0.0515  0.2414
 6733W        W24937   6.892   2.877  14.435 -0.0701  0.1028 -0.1149
 6734W        W24938   1.466   2.411   3.419  0.0059 -0.0086  0.0672
 6735W        W24939  13.618  15.840  15.592  0.0978 -0.0862  0.2115
 6736W        W24940  14.547  16.048   1.005  0.1017  0.2466  0.1919
 6737W        W24941   9.139  14.630   1.063  0.0628  0.1176 -0.1179
 6738W        W24942  12.534   2.560  13.047  0.2830 -0.0871  0.1420
 6739W        W24943  10.965  11.107  13.986 -0.0127  0.0692  0.1572
 6740W        W24944  10.714  12.619  13.191 -0.0588 -0.2027  0.0532
 6741W        W24945   4.208  14.025  15.999 -0.0583 -0.0366 -0.1172
 6742W        W24946  11.527   9.754   0.696  0.0693 -0.0237 -0.1811
 6743W        W24947   9.328   3.143  15.747  0.0412 -0.2941  0.1047
 6744W        W24948   0.474   0.250   4.557 -0.3397 -0.0178  0.2106
 6745W        W24949  10.180  14.295  12.921  0.2441  0.0958  0.1126
 6746W        W24950   8.537   2.823   2.662 -0.0184 -0.4003  0.2107
 6747W        W24951  14.273   0.886   4.196 -0.1583  0.1089 -0.0246
 6748W        W24952   0.756  15.481  15.934  0.0564  0.1960 -0.0309
 6749W        W24953  17.675  17.001  15.026 -0.1148  0.4059  0.2105
 6750W        W24954  10.840   7.245  13.244 -0.0067  0.1783 -0.2299
 6751W        W24955   0.182   0.106   1.834 -0.0077 -0.3146  0.1659
 6752W        W24956  16.091  17.308  14.298  0.2419 -0.3227  0.0423
 6753W        W24957  13.097   5.015  15.613  0.3341 -0.1269  0.1260
 6754W        W24958   2.613   2.284  15.881 -0.0242 -0.1984  0.3239
 6755W        W24959   9.956  11.130  14.895 -0.0611  0.1813 -0.2556
 6756W        W24960  12.402   9.103   1.718  0.1625  0.1962  0.2850
 6757W        W24961   7.109   3.638  14.236  0.1223  0.1759 -0.2215
 6758W        W24962   2.922   0.169  15.298 -0.2748 -0.0616 -0.2591
 6759W        W24963   4.970   1.977  12.551 -0.2061  0.0857 -0.1342
 6760W        W24964  14.398  16.550  11.621  0.3244  0.1507 -0.2164
 6761W        W24965   7.030  13.854   3.417 -0.2924  0.0108  0.3775
 6762W        W24966  17.665   0.331  15.844 -0.1843  0.0078  0.0077
 6763W        W24967  15.047  17.041   1.723  0.0764 -0.1352  0.4010
 6764W        W24968  11.970  14.997   4.476  0.1810 -0.1385 -0.2843
 6765W        W24969   6.528  15.733   5.295 -0.2200 -0.0614 -0.1202
 6766W        W24970  16.024  15.796  14.201  0.1407 -0.0349  0.0977
 6767W        W24971  17.559   6.296   5.972 -0.0015  0.2455  0.0916
 6768W        W24972  11.833   8.426   4.910 -0.2470 -0.0951 -0.0914
 6769W        W24973  13.449   8.037   3.341 -0.2273  0.0378  0.0137
 6770W        W24974  15.401  16.309   0.413 -0.3368  0.1558  0.1260
 6771W        W24975  11.964   4.812   3.744  0.0642  0.2024  0.1934
 6772W        W24976   0.571   2.222   0.260 -0.0935 -0.0195  0.0161
 6773W        W24977   8.568   1.859  12.370  0.1103 -0.1074  0.4086
 6774W        W24978  11.757   3.616   4.347 -0.1277  0.0032 -0.0693
 6775W        W24979   5.989  13.747  12.304  0.3555 -0.0840  0.0764
 6776W        W24980   6.446   6.933  15.868  0.1701 -0.0484  0.0016
 6777W        W24981  17.578  14.919  15.935 -0.1681 -0.2475  0.1545
 6778W        W24982   2.491   4.188  15.613 -0.1526 -0.4574 -0.1684
 6779W        W24983   9.912  14.367  11.972  0.0068 -0.3105 -0.2161
 6780W        W24984  14.304  15.500   3.668  0.0904  0.2411  0.1335
 6781W        W24985   7.150  16.736   3.356 -0.3175 -0.0430 -0.1123
 6782W        W24986  12.345   3.393   0.744  0.1193 -0.1107  0.1377
 6783W        W24987  14.425   1.400   2.608 -0.0381 -0.2751  0.1441
 6784W        W24988  14.993   5.803  13.204  0.0164  0.0537  0.0041
 6785W        W24989  14.028  17.940  14.600  0.1194  0.2297 -0.1087
 6786W        W24990   1.506   9.822   3.153 -0.1043 -0.1713 -0.0094
 6787W        W24991  16.454   5.528   3.684 -0.0508  0.0900 -0.2413
 6788W        W24992   3.528   4.438  13.983  0.2543 -0.1370  0.1407
 6789W        W24993   9.915   4.487  16.071  0.0079  0.2096 -0.2194
 6790W        W24994   7.553  16.677   0.177  0.0913 -0.0286  0.3440
 6791W        W24995  10.060   6.402  12.469  0.0327  0.0544 -0.2986
 6792W        W24996   7.847  17.280  12.396  0.1417  0.2565 -0.0716
 6793W        W24997  16.271   7.766  13.764  0.0149  0.0229 -0.0920
 6794W        W24998  17.879   5.796  12.000 -0.1725 -0.0750  0.1103
 6795W        W24999   1.449  12.212   2.493  0.1208  0.2900 -0.0034
 6796W        W25000  10.365  10.085   4.691  0.0088 -0.3682 -0.0062
 6797W        W25001  13.975  17.656  13.813  0.0179  0.0723 -0.0882
 6798W        W25002  11.274   5.743   4.080 -0.1764 -0.0289  0.0788
 6799W        W25003   1.286   5.162   2.451 -0.1610 -0.1004 -0.0530
 6800W        W25004  13.304   5.518  15.679 -0.2506 -0.0340 -0.2944
 6801W        W25005  11.397   3.050   1.397 -0.3986  0.1652  0.0070
 6802W        W25006   7.346   6.925   4.815 -0.1067 -0.3147  0.0485
 6803W        W25007  16.524  11.319   1.464  0.1896  0.1960  0.4310
 6804W        W25008  13.311   8.581  11.596 -0.4076  0.0713 -0.1657
 6805W        W25009   3.764   5.197   2.718  0.0689 -0.2554  0.2997
 6806W        W25010   8.593   7.262  15.228 -0.2481 -0.3053  0.0788
 6807W        W25011  17.364   5.195   1.739 -0.0649 -0.1034 -0.1870
 6808W        W25012   9.258   9.749  13.462 -0.0111 -0.2410 -0.0624
 6809W        W25013   1.006  10.847   0.537 -0.0671  0.1053  0.1078
 6810W        W25014   4.710  10.030  12.110 -0.1514  0.1552 -0.0312
 6811W        W25015  16.998  12.247   2.370  0.2744 -0.1813  0.0810
 6812W        W25016   7.316   1.109   4.262  0.0789  0.0899  0.3231
 6813W        W25017   9.649   4.575   0.637 -0.0499 -0.1365 -0.1411
 6814W        W25018  16.560  14.636   1.633  0.1127 -0.2799 -0.1950
 6815W        W25019   6.371   4.080  14.201 -0.2545  0.0699  0.0807
 6816W        W25020  15.067  11.775  12.933 -0.2632  0.0497  0.1565
 6817W        W25021  12.278   3.255  13.908 -0.2369  0.1656 -0.0652
 6818W        W25022   1.685   5.442  11.245 -0.0021 -0.0348  0.0091
 6819W        W25023  13.408   7.443   2.688  0.0071  0.0710 -0.0091
 6820W        W25024   5.074  14.771   1.898 -0.0756  0.0469  0.1906
 6821W        W25025   6.666  10.231   2.085 -0.3352 -0.0432 -0.0446
 6822W        W25026  13.234   2.222  14.939 -0.0949 -0.0114  0.1612
 6823W        W25027   0.296  12.401   4.610  0.5503  0.2169  0.0965
 6824W        W25028   1.286  17.904  14.738 -0.0079  0.1262  0.0374
 6825W        W25029   8.583   3.254   2.980  0.0615  0.0889 -0.0225
 6826W        W25030  11.937  15.049  10.499 -0.1755 -0.0012  0.0080
 6827W        W25031   1.621   6.330   3.902 -0.1078 -0.2017 -0.1167
 6828W        W25032  17.389  12.536   4.405  0.4089  0.0937  0.0051
 6829W        W25033   2.555  15.284  14.706  0.2044 -0.1729  0.3060
 6830W        W25034  15.853  16.892  14.234 -0.1368 -0.0191  0.1632
 6831W        W25035  17.611   0.007   3.859  0.2312 -0.0367  0.0228
 6832W        W25036  11.447  13.049  12.409 -0.1898  0.0601  0.3083
 6833W        W25037  17.399   2.957  15.612 -0.1049 -0.1066  0.1047
 6834W        W25038  13.049   8.287  15.046  0.0468 -0.2447 -0.0034
 6835W        W25039   6.373  13.445   3.521  0.1225  0.1815 -0.1592
 6836W        W25040   1.972   7.688   4.046  0.3393  0.1051  0.0094
 6837W        W25041   6.042   0.280   1.991 -0.2592  0.2872  0.0009
 6838W        W25042  12.259   5.247  13.483  0.1129  0.2547 -0.3347
 6839W        W25043   6.802   1.198  14.664 -0.1043 -0.0712  0.0077
 6840W        W25044   5.109  11.166  16.124  0.3761  0.1048 -0.1184
 6841W        W25045  11.529   5.298  14.951 -0.1282  0.3630 -0.0448
 6842W        W25046   2.761  15.922  15.807  0.0892  0.1608 -0.1031
 6843W        W25047  17.757   1.614   2.080 -0.2992 -0.2309 -0.0229
 6844W        W25048  13.319  16.294   3.250 -0.0594 -0.2150  0.1092
 6845W        W25049  16.600  11.677   1.143  0.1484 -0.2593  0.1261
 6846W        W25050  14.051   0.867   1.943  0.0659  0.2093 -0.1556
 6847W        W25051  10.182  13.514   1.320  0.2286 -0.0541  0.3675
 6848W        W25052  10.491   2.371  16.065  0.0280 -0.1428  0.0546
 6849W        W25053   4.613   5.950  13.515  0.0978 -0.1242  0.1020
 6850W        W25054  16.070   8.614   2.792 -0.4216 -0.0628  0.2202
 6851W        W25055   0.111  15.309   3.573 -0.1651 -0.1259  0.1024
 6852W        W25056  12.705   9.551  13.691  0.0357  0.1340  0.0576
 6853W        W25057   8.444  12.598  13.833 -0.0111  0.2767  0.2187
 6854W        W25058   6.718  16.387  13.261  0.1126  0.1692 -0.1268
 6855W        W25059  13.723  12.563  12.252  0.1692  0.1090  0.1325
 6856W        W25060   0.365  12.358   0.596 -0.1178  0.1142  0.0082
 6857W        W25061  16.375   9.725   1.161 -0.0503  0.4179  0.4437
 6858W        W25062   1.450  13.235   3.814  0.1358 -0.1983  0.0286
 6859W        W25063   6.494   9.714  15.475  0.0391  0.1376  0.1518
 6860W        W25064   1.521   9.551  15.178  0.0979  0.0112  0.0612
 6861W        W25065   2.039   2.632  13.853 -0.0757 -0.1676  0.0411
 6862W        W25066  12.156   5.632   4.221  0.2296  0.2783  0.2607
 6863W        W25067  17.400   6.850   1.680 -0.2399  0.4298  0.1031
 6864W        W25068   5.430   5.216  14.266 -0.3486 -0.4255  0.0472
 6865W        W25069  12.162   2.664  12.734  0.0616 -0.3350  0.3707
 6866W        W25070   8.756  15.052   2.393  0.1830 -0.0647 -0.0673
 6867W        W25071   4.961   8.263  13.654  0.1896  0.2401 -0.1098
 6868W        W25072   7.749   0.765   0.995 -0.4357  0.0447  0.0024
 6869W        W25073   6.714   1.266   3.544 -0.1728  0.0470 -0.2459
 6870W        W25074   5.496  16.456  13.973  0.0293 -0.2311  0.0439
 6871W        W25075   2.950   0.098  11.750  0.0577  0.1310 -0.3163
 6872W        W25076   2.673  15.856   2.723  0.4701 -0.1115 -0.1361
 6873W        W25077   3.313   0.007   0.487  0.0972  0.0869  0.2073
 6874W        W25078  17.623   4.227   4.130 -0.1590 -0.0105  0.2725
 6875W        W25079   2.333   3.553  14.354 -0.1784 -0.0616  0.0429
 6876W        W25080  11.678  14.462   2.922  0.1738  0.2332 -0.1821
 6877W        W25081  11.771   4.472  14.882 -0.0682  0.3099  0.0360
 6878W        W25082   9.317   2.635   4.556 -0.0864  0.0517 -0.1979
 6879W        W25083   8.549  12.401   2.309 -0.1590 -0.0037 -0.1369
 6880W        W25084   0.730   4.258  12.859  0.2222 -0.0688  0.1114
 6881W        W25085  14.753   7.984   2.974 -0.2015  0.0632  0.0332
 6882W        W25086  13.892   0.195  15.900 -0.1117  0.0526 -0.0654
 6883W        W25087   6.776   1.168  12.541 -0.1205  0.0341  0.1635
 6884W        W25088   5.360  13.775  13.357 -0.3323  0.1335 -0.1240
 6885W        W25089   0.464   6.675  15.288  0.3145  0.1761  0.1514
 6886W        W25090   5.869   7.799   3.222 -0.3179  0.1566 -0.2312
 6887W        W25091   8.190  13.762   4.515  0.2522  0.1194  0.1852
 6888W        W25092  13.398   8.712   5.215  0.0295  0.1779  0.0220
 6889W        W25093   4.088   5.166  14.407  0.0221  0.1367  0.3893
 6890W        W25094  14.665  13.081   3.406  0.1707 -0.2386 -0.1544
 6891W        W25095   5.417  10.773  12.090  0.1117 -0.0544  0.0946
 6892W        W25096  13.406   5.190  13.385  0.3670 -0.0647 -0.0408
 6893W        W25097  14.423   1.039  15.147  0.2411  0.0128 -0.0051
 6894W        W25098  10.626   2.829  12.432 -0.2542 -0.1853 -0.4027
 6895W        W25099   8.225   8.387  14.093 -0.0524 -0.3391 -0.0659
 6896W        W25100   5.917  17.711   2.544  0.4040  0.2370 -0.0995
 6897W        W25101   7.759   1.637  13.255 -0.2673 -0.0559 -0.2335
 6898W        W25102   3.673  15.615  14.956 -0.1749 -0.1336 -0.0981
 6899W        W25103   9.699  17.160   3.138 -0.2204  0.1461 -0.0751
 6900W        W25104  12.469  15.066   0.989  0.2310  0.3758 -0.1810
 6901W        W25105  13.950  13.037  15.621 -0.3308  0.1713 -0.0633
 6902W        W25106   3.230  13.254   4.606 -0.2804 -0.0931 -0.0466
 6903W        W25107  11.343   5.289  13.926  0.1754 -0.0542  0.1384
 6904W        W25108   1.284  14.069   3.028  0.1957 -0.1024 -0.0955
 6905W        W25109   8.104  13.171  13.132 -0.1123  0.1579  0.1340
 6906W        W25110   5.945   9.085  13.235 -0.0419 -0.1170  0.0236
 6907W        W25111   7.830   0.826  11.098 -0.3018 -0.2676 -0.1521
 6908W        W25112   4.685   0.337  15.127 -0.1058 -0.2129  0.0602
 6909W        W25113   3.499  11.203  13.475 -0.2642  0.1017  0.3481
 6910W        W25114   1.201  13.700  11.940 -0.1111 -0.3361  0.0279
 6911W        W25115   0.199   9.609   2.655 -0.1097  0.2115  0.1518
 6912W        W25116  12.917   3.417  15.497  0.0832 -0.0710 -0.0977
 6913W        W25117   0.033  17.088   1.710 -0.0212  0.1560  0.0960
 6914W        W25118  12.752   2.367  10.441 -0.2161 -0.1585  0.1512
 6915W        W25119   8.738  16.989  14.909 -0.3289  0.2338  0.1084
 6916W        W25120   4.235  11.468   0.959 -0.0061 -0.3281  0.0413
 6917W        W25121   0.828   7.189   1.134  0.1014 -0.1452  0.1913
 6918W        W25122   7.696  14.735  16.009  0.1797  0.0957  0.1302
 6919W        W25123  13.325  13.772   3.401  0.2850 -0.2491  0.3324
 6920W        W25124   2.775   5.631   2.006  0.3468 -0.0319  0.0840
 6921W        W25125  12.799  13.762   0.760 -0.1062 -0.1162 -0.1602
 6922W        W25126   1.773  17.944  12.536 -0.1599  0.0163 -0.0202
 6923W        W25127   6.388   7.609  11.803  0.0674 -0.1624  0.2138
 6924W        W25128  14.541   0.877   2.757  0.0949  0.0519  0.1787
 6925W        W25129   2.900   3.148  14.000  0.1465 -0.1468 -0.2494
 6926W        W25130   1.236  12.737   3.724  0.2187  0.0646 -0.0129
 6927W        W25131   7.163   8.563  15.730 -0.1108  0.2086  0.0567
 6928W        W25132  11.622  11.958   0.493  0.1335  0.1165 -0.2794
 6929W        W25133   3.457   8.966   0.414 -0.2018  0.1052  0.1722
 6930W        W25134  10.362  14.672   3.085 -0.0400 -0.1187 -0.2601
 6931W        W25135   5.724  16.654   0.211 -0.3051  0.0062 -0.1543
 6932W        W25136  17.931   7.565  11.852 -0.2351 -0.3930  0.0969
 6933W        W25137   8.408   8.801   5.115 -0.1492 -0.2591  0.1469
 6934W        W25138   2.895   2.403   2.539 -0.2928  0.2504 -0.0891
 6935W        W25139   7.716   5.836   0.518  0.0452  0.0259  0.1282
 6936W        W25140  11.665   9.107  15.462 -0.3154 -0.2257 -0.1333
 6937W        W25141   4.628   9.836   6.126 -0.0945 -0.0123  0.0523
 6938W        W25142   3.954   5.687  14.518  0.0705  0.1598 -0.1508
 6939W        W25143   1.497   2.982  12.377 -0.1339 -0.1377  0.2005
 6940W        W25144  15.198   7.953   4.111 -0.1542  0.1076  0.4495
 6941W        W25145  16.059   4.858  13.106  0.3707  0.1451  0.1097
 6942W        W25146   6.013  17.348  14.644 -0.0572  0.1581 -0.0748
 6943W        W25147   9.141   8.067   0.685 -0.3837 -0.1759  0.2885
 6944W        W25148  17.182   1.528   1.170 -0.2364 -0.0182 -0.2407
 6945W        W25149   5.185  14.591  14.647  0.3483  0.1212  0.3611
 6946W        W25150   2.653   9.885   0.725 -0.0099  0.2287  0.0597
 6947W        W25151   4.287   8.720  14.652  0.3769 -0.2136  0.0058
 6948W        W25152   8.094   7.117  14.463 -0.0555 -0.2676 -0.1519
 6949W        W25153   4.832   6.067   0.295  0.1126 -0.0334 -0.1544
 6950W        W25154  12.913   4.772   4.682 -0.1853 -0.2360 -0.0113
 6951W        W25155   4.209   6.207  15.163 -0.2586 -0.0689 -0.2988
 6952W        W25156   4.264  16.688  11.774  0.2164  0.1351  0.2051
 6953W        W25157  13.913  10.477  11.397 -0.2356 -0.0292 -0.1927
 6954W        W25158   2.900   5.005   4.281 -0.2603 -0.1666  0.0089
 6955W        W25159   4.728   5.834  14.648  0.0306  0.1103 -0.1772
 6956W        W25160  12.965   2.636   2.805 -0.2580  0.2393 -0.3126
 6957W        W25161  13.051   2.084   1.738  0.3073  0.1480 -0.2174
 6958W        W25162   7.037  12.115   4.772  0.2460 -0.0619 -0.0531
 6959W        W25163  10.243  17.646  11.260 -0.4650  0.0214 -0.0513
 6960W        W25164  17.654   5.688   5.808 -0.0438  0.0014  0.3752
 6961W        W25165  17.669  10.496   3.745  0.1683 -0.2485  0.3006
 6962W        W25166   4.672   7.511   3.815 -0.1151  0.0100  0.2513
 6963W        W25167   9.471   6.123  14.097 -0.2019  0.2360 -0.2673
 6964W        W25168   8.951   4.676   3.523  0.0110  0.1094  0.0104
 6965W        W25169   7.637   3.941   1.626 -0.1652  0.2692  0.1564
 6966W        W25170   5.298   0.658   4.280  0.3095  0.1410 -0.1950
 6967W        W25171  16.195  10.589   4.765 -0.1198  0.0150  0.0260
 6968W        W25172   9.214  17.961  15.080 -0.0009 -0.3234  0.0820
 6969W        W25173   2.372   5.332  13.438 -0.0987 -0.0992  0.1399
 6970W        W25174   6.031  16.410   1.067  0.2147 -0.1468  0.0278
 6971W        W25175  15.925  11.123  10.531  0.0225 -0.0097  0.0304
 6972W        W25176  15.751  14.149   1.217  0.0432 -0.2333  0.1208
 6973W        W25177   7.550   1.014   0.262  0.1476 -0.1558 -0.0835
 6974W        W25178  11.885  14.441  15.997 -0.0348 -0.1274  0.2467
 6975W        W25179  13.800   1.952   3.490 -0.0614  0.1104 -0.0818
 6976W        W25180  13.553   6.732   4.062  0.0016  0.1123  0.0069
 6977W        W25181   4.340   1.194   3.054 -0.0719 -0.1586 -0.2714
 6978W        W25182  15.568  14.265   1.688  0.1953  0.3796 -0.1052
 6979W        W25183   7.107   7.824  15.335  0.0293 -0.0319 -0.2213
 6980W        W25184   4.581   6.047   0.777 -0.1222 -0.3760  0.1201
 6981W        W25185  14.261  15.297   4.208  0.0995  0.1855 -0.2861
 6982W        W25186   1.369  11.765  12.890  0.2810 -0.2356  0.0031
 6983W        W25187  15.372  11.768  14.497 -0.2871  0.0119  0.0981
 6984W        W25188  11.032  17.482  10.701 -0.0852 -0.0497 -0.1370
 6985W        W25189   9.274  10.716   3.736 -0.1253  0.0107  0.1130
 6986W        W25190  16.716  12.982  12.150  0.0906 -0.0008  0.1414
 6987W        W25191   9.267  12.165   3.331 -0.0155  0.0732 -0.0804
 6988W        W25192   3.099  10.490   2.532 -0.0505 -0.1057  0.0346
 6989W        W25193   2.225  16.080   1.351  0.1811 -0.0194  0.0912
 6990W        W25194   7.610  15.932   1.756 -0.0543  0.0822  0.2249
 6991W        W25195   1.012  10.293  15.154  0.0384  0.1180 -0.0882
 6992W        W25196  11.913   0.286   4.541  0.1491  0.3252 -0.1809
 6993W        W25197   1.445   7.354   2.627 -0.0376  0.0894 -0.2470
 6994W        W25198   3.315   5.906  16.071  0.0800 -0.0206  0.0722
 6995W        W25199   4.611  16.419  12.300 -0.2471  0.1959 -0.0275
 6996W        W25200  10.299   3.335   4.276  0.1120 -0.0404  0.1583
 6997W        W25201   8.233  10.604  13.290 -0.0257 -0.1154  0.1171
 6998W        W25202   9.899   4.013  15.173  0.0156 -0.1466  0.2441
 6999W        W25203   4.242   3.062  15.977  0.0259  0.1703  0.0125
 7000W        W25204  15.014   5.877   1.894  0.1115 -0.1483  0.2524
 7001W        W25205   9.096  17.343  10.958 -0.1239  0.1110  0.1033
 7002W        W25206  13.699  11.671   4.909 -0.2444 -0.0150  0.1903
 7003W        W25207  14.030   6.585   1.907  0.0139 -0.1966 -0.2102
 7004W        W25208   2.591   6.364   1.314 -0.0025 -0.0020 -0.1101
 7005W        W25209  11.190   0.142   2.414  0.1491 -0.0359  0.0206
 7006W        W25210  17.853   6.142  10.609  0.1445  0.1763  0.0131
 7007W        W25211  10.335   4.915   1.382 -0.2313  0.0068  0.1197
 7008W        W25212   6.410  15.664   2.879  0.1522  0.0209 -0.1019
 7009W        W25213  14.681  18.015  13.235 -0.0303 -0.1915  0.1917
 7010W        W25214   2.020   1.001  14.165 -0.0388 -0.0066  0.2037
 7011W        W25215   1.691   2.996  13.757 -0.3323  0.0092 -0.3403
 7012W        W25216  10.926   8.900  12.504 -0.2856  0.0389  0.2222
 7013W        W25217   8.578  10.205  14.590 -0.4630  0.0218  0.2282
 7014W        W25218  11.612  14.154   0.443  0.0689 -0.2774  0.0660
 7015W        W25219   8.440  15.882   0.671 -0.0544 -0.0433 -0.2553
 7016W        W25220  16.015   2.104   1.713 -0.1955  0.1617  0.0021
 7017W        W25221   6.116  12.105   2.511 -0.1849  0.1857 -0.3473
 7018W        W25222   3.580   0.785  15.786 -0.0453  0.0386 -0.1762
 7019W        W25223   8.944  10.327  16.158 -0.1124  0.1920  0.0383
 7020W        W25224  10.583  13.322  13.695 -0.1124  0.2162  0.0539
 7021W        W25225   7.130  16.622  11.623 -0.0461  0.1286  0.0385
 7022W        W25226  16.222   4.481  13.372  0.1012 -0.0833 -0.0415
 7023W        W25227   6.171   6.699   1.237  0.0145 -0.2221 -0.0044
 7024W        W25228  12.350  16.260   2.683 -0.1702 -0.1255 -0.0140
 7025W        W25229   0.204  10.053   4.355  0.2268 -0.2827 -0.3221
 7026W        W25230  14.277  12.647   2.178 -0.1632  0.0310 -0.1386
 7027W        W25231   9.382  13.471  13.503  0.0569  0.2189  0.0676
 7028W        W25232   7.531  14.797   0.660  0.0585  0.2109 -0.0026
 7029W        W25233  12.956   5.225  12.230 -0.0362 -0.0018 -0.1042
 7030W        W25234  16.156   7.653   4.534  0.1760  0.2783 -0.1068
 7031W        W25235  15.874   5.787   0.022  0.0022 -0.2952  0.2430
 7032W        W25236  13.877   4.344  12.550  0.2394 -0.3089  0.0511
 7033W        W25237   4.342  10.295  11.774  0.1452 -0.0523 -0.0749
 7034W        W25238  15.058  10.658   2.087  0.2774  0.0875  0.1364
 7035W        W25239   2.128  10.406   0.645  0.3098 -0.3514 -0.1091
 7036W        W25240  14.720   7.640   3.332 -0.2284  0.1187 -0.1075
 7037W        W25241  16.613   9.387  13.919  0.0899  0.0867 -0.1235
 7038W        W25242  12.971   6.645  15.144 -0.2162  0.0247 -0.0273
 7039W        W25243  15.417  14.714  10.835 -0.0968  0.0623  0.0942
 7040W        W25244   8.445  12.087  13.744  0.0189  0.0368  0.1084
 7041W        W25245   8.088  14.018  12.544 -0.1500 -0.1783 -0.0968
 7042W        W25246   9.484   4.985  13.508  0.4737  0.1131 -0.1613
 7043W        W25247   7.366  17.297   4.141 -0.0615  0.1253 -0.0803
 7044W        W25248   8.266  13.772  11.599  0.0032  0.0307 -0.0716
 7045W        W25249   8.122   0.442  14.907 -0.0553 -0.2106  0.1855
 7046W        W25250  14.747  10.697  15.092 -0.0398  0.1545 -0.0207
 7047W        W25251  17.063   8.670  12.320 -0.0391 -0.0718  0.0025
 7048W        W25252  12.223  16.357  11.609  0.1711  0.2128  0.3538
 7049W        W25253  15.012   1.607   0.473  0.1648 -0.1337  0.1573
 7050W        W25254   8.726  10.673  12.420  0.0299  0.1729  0.1483
 7051W        W25255   4.553   6.319  12.356 -0.0478 -0.0032  0.0318
 7052W        W25256   2.535   6.669   2.322 -0.0471 -0.0196 -0.0651
 7053W        W25257   4.703  13.834   4.618 -0.0180 -0.3132  0.0930
 7054W        W25258  16.001   5.777  11.958 -0.0927  0.1947  0.1836
 7055W        W25259   8.295   2.890   4.738 -0.0406 -0.1403 -0.1699
 7056W        W25260  16.354   0.689   5.762 -0.3104  0.1105  0.0707
 7057W        W25261  14.049  14.423   4.446  0.1650 -0.0901  0.0664
 7058W        W25262   5.265  14.135  11.917 -0.0557 -0.2550  0.0959
 7059W        W25263  17.848  13.713   4.750  0.2612  0.1582  0.1508
 7060W        W25264   5.330  12.142  15.599  0.0610 -0.0665  0.1716
 7061W        W25265   0.332   6.716  13.689  0.0355  0.0911 -0.2908
 7062W        W25266   9.588  17.559  11.088 -0.1734 -0.0765 -0.0953
 7063W        W25267  11.330  17.149   5.174  0.0641  0.3618 -0.4130
 7064W        W25268   3.195  12.966  15.513  0.0216  0.1921  0.1612
 7065W        W25269   2.100  12.779   2.048  0.2600  0.0915 -0.1215
 7066W        W25270   5.356  14.569  15.390 -0.1301  0.2960  0.1157
 7067W        W25271  13.104   1.322   2.861  0.0913  0.0186 -0.2108
 7068W        W25272  15.328  12.539   5.515 -0.2987 -0.1997 -0.3255
 7069W        W25273  14.763  16.431  14.948  0.0123  0.2970  0.1312
 7070W        W25274   1.403  15.919   3.895 -0.4738 -0.0735  0.1347
 7071W        W25275  16.043   2.859  16.015 -0.0683  0.2893  0.1677
 7072W        W25276  14.683   3.279   1.164  0.0376 -0.3269  0.0375
 7073W        W25277  13.412  16.940  11.341  0.2963  0.0029  0.4651
 7074W        W25278  11.716   8.906  12.245 -0.0113 -0.2966  0.1755
 7075W        W25279  14.105  13.034  12.836  0.0007 -0.0379  0.1408
 7076W        W25280   3.695   7.703   3.851 -0.2622 -0.1802 -0.1499
 7077W        W25281   8.468  18.008  12.817  0.0259  0.0836 -0.1375
 7078W        W25282  13.494  11.624  15.372  0.2493  0.1060  0.3581
 7079W        W25283  10.799  16.593   3.891 -0.1870 -0.1638 -0.1209
 7080W        W25284   4.976  12.606   4.652  0.0701  0.0844 -0.1555
 7081W        W25285  11.580   9.756   1.257 -0.3160  0.1439  0.1772
 7082W        W25286  15.617   8.376  11.685  0.1336  0.2854  0.1834
 7083W        W25287   7.729   4.905   4.052 -0.0723  0.2453  0.0151
 7084W        W25288   5.184   1.921   3.952  0.0637  0.0495 -0.1791
 7085W        W25289  16.541   6.473   2.832 -0.1588  0.0025 -0.0647
 7086W        W25290  16.092   5.453   0.977 -0.1239 -0.1717  0.3535
 7087W        W25291  14.421   9.521  10.532  0.0018 -0.4019 -0.1578
 7088W        W25292   8.400   3.048  15.720  0.2648  0.2806 -0.1534
 7089W        W25293   5.980   5.050  15.477 -0.4313  0.0022 -0.1962
 7090W        W25294  16.420  17.711   0.999 -0.0598  0.0457  0.1580
 7091W        W25295  12.568  14.200  11.829 -0.3296  0.1815  0.2604
 7092W        W25296  15.469   6.844   4.403 -0.3142 -0.1410 -0.3164
 7093W        W25297   9.117  13.819   4.216 -0.1133 -0.1481  0.2507
 7094W        W25298  11.509  12.153   3.024 -0.0531  0.2177 -0.2499
 7095W        W25299   2.410   9.105  12.531 -0.0456  0.0032  0.1931
 7096W        W25300   1.168   5.388   3.548  0.2262 -0.0009  0.0891
 7097W        W25301  15.380   4.385   2.934 -0.1578 -0.0470 -0.4193
 7098W        W25302  13.399  12.039  13.959  0.3316 -0.3124 -0.0359
 7099W        W25303  15.321   6.316  15.785 -0.0621 -0.0656 -0.2119
 7100W        W25304   1.199   9.509  12.365 -0.0917 -0.1027 -0.1940
 7101W        W25305  10.611  16.601   0.946 -0.3275 -0.0958 -0.2179
 7102W        W25306   5.607  11.080   5.821  0.0524  0.0132  0.3842
 7103W        W25307   9.516   7.556   6.143  0.3477 -0.0220  0.0599
 7104W        W25308   1.960   9.022  13.189 -0.1321  0.2337 -0.1034
 7105W        W25309   6.261  16.857  11.163  0.2348 -0.2345  0.1651
 7106W        W25310  12.427   5.248   0.641 -0.1200  0.2415 -0.0964
 7107W        W25311  13.515  12.243   2.511 -0.0460  0.0344  0.1249
 7108W        W25312  16.166   3.240   3.476  0.2863  0.1068  0.1590
 7109W        W25313   1.386  12.148  13.671  0.1666  0.1600 -0.0166
 7110W        W25314  10.742   3.268   2.979 -0.3427 -0.0862  0.2003
 7111W        W25315  12.093   9.905  14.203  0.2291 -0.2379  0.0263
 7112W        W25316   2.459   4.514   0.907 -0.0955  0.0615 -0.0719
 7113W        W25317   2.431  11.335   5.665  0.0868  0.0314  0.0066
 7114W        W25318   6.877   2.405  14.825  0.1601  0.2492 -0.1200
 7115W        W25319  14.784  17.716   1.107  0.0224 -0.6197 -0.2201
 7116W        W25320  16.929  17.022  11.289  0.0616 -0.0465 -0.1469
 7117W        W25321  15.692  15.417   4.491  0.4114  0.0905 -0.0861
 7118W        W25322  11.733   4.300  12.199  0.1330 -0.3171 -0.0531
 7119W        W25323   6.898  11.360  12.169 -0.1796  0.1307  0.0787
 7120W        W25324  10.895   6.153  12.339  0.1188  0.0755 -0.1610
 7121W        W25325   9.498  16.325   0.858  0.1857  0.1264 -0.0844
 7122W        W25326   8.369  10.278   3.846 -0.0091 -0.0344  0.0373
 7123W        W25327   8.127   3.519  15.791  0.1135 -0.3301  0.0260
 7124W        W25328  15.310   4.633   3.748 -0.1064  0.1315  0.2223
 7125W        W25329  14.217  11.435   4.012 -0.0754 -0.1587  0.1758
 7126W        W25330  17.037  11.198   3.267  0.3324 -0.0090 -0.0585
 7127W        W25331   9.771   3.775   2.517 -0.0445  0.2067 -0.1362
 7128W        W25332   9.220   5.865  12.815  0.2074 -0.0223 -0.0926
 7129W        W25333  17.357  16.852   3.046 -0.0364 -0.0744  0.1793
 7130W        W25334  17.895  14.311  11.979 -0.0529  0.5204  0.3126
 7131W        W25335  13.908   1.183  15.584 -0.0443 -0.0195 -0.1761
 7132W        W25336  11.184  12.710   0.519  0.1491 -0.1245  0.1043
 7133W        W25337   5.609  11.226   4.865  0.3178 -0.1535  0.0102
 7134W        W25338  16.648  11.960  13.089 -0.0628 -0.0184  0.2045
 7135W        W25339  17.543   4.937  14.441 -0.0224  0.0850  0.0051
 7136W        W25340   6.630  12.964  16.087  0.1278 -0.2379  0.1554
 7137W        W25341   9.405  17.948   2.662  0.3610 -0.1199  0.0806
 7138W        W25342  12.982   5.084  11.718 -0.2901 -0.1015 -0.0187
 7139W        W25343  12.207  12.014  15.795 -0.0742 -0.0701  0.4132
 7140W        W25344  17.160   2.037   2.888  0.0596 -0.2156 -0.0061
 7141W        W25345   1.286   1.477   3.625 -0.0130 -0.2883 -0.0041
 7142W        W25346  15.637  15.328  15.066 -0.0621  0.2020 -0.1961
 7143W        W25347  17.164  14.947   0.148 -0.1868 -0.0588  0.2085
 7144W        W25348   1.349   9.073  15.198  0.0070  0.0803  0.0438
 7145W        W25349   1.494   3.498   0.348  0.1687  0.0634  0.0064
 7146W        W25350   6.442   7.961   1.413 -0.2439 -0.1985 -0.1460
 7147W        W25351   7.702  11.702   1.020 -0.0129  0.1266  0.0255
 7148W        W25352   5.419   8.148   4.088 -0.0286 -0.0077  0.1064
 7149W        W25353  14.350  17.670   2.639  0.2117 -0.1656  0.4320
 7150W        W25354   5.226   0.978  11.607  0.2201 -0.1223  0.1856
 7151W        W25355   2.467  17.052   3.283 -0.2163  0.0594 -0.0802
 7152W        W25356   8.669   3.371   5.420  0.0031 -0.0211  0.1097
 7153W        W25357   3.659   9.841   3.031 -0.0630  0.0870  0.1016
 7154W        W25358   1.204  12.697   2.524  0.0064  0.0513 -0.2906
 7155W        W25359   1.946   9.971   5.118  0.0149  0.3129  0.0808
 7156W        W25360   8.005  15.133  14.037 -0.1829 -0.2563  0.2312
 7157W        W25361   8.315   8.923  15.871 -0.0121  0.4157  0.1819
 7158W        W25362   3.158   1.475   2.885  0.0444  0.0187 -0.2668
 7159W        W25363  15.425  14.603  15.588 -0.2075  0.2573 -0.0589
 7160W        W25364   1.393  10.214   2.631  0.0474 -0.2011  0.0197
 7161W        W25365  11.702  16.488   4.013 -0.0759 -0.0631 -0.2138
 7162W        W25366   8.293  12.659  11.736 -0.0015  0.1380 -0.1265
 7163W        W25367   6.391  17.276   4.999 -0.0684 -0.0699  0.0872
 7164W        W25368  15.234   6.166   3.003  0.2279  0.0236 -0.0417
 7165W        W25369   5.847  11.411   0.914 -0.1963  0.1697  0.2698
 7166W        W25370   9.947   1.128  12.461  0.0383 -0.0702  0.0065
 7167W        W25371   1.804   5.867  13.951  0.0173 -0.0235 -0.1754
 7168W        W25372  18.006   3.045   2.510 -0.0201 -0.0679 -0.0407
 7169W        W25373   9.908   1.469  13.845 -0.0990 -0.3604  0.0475
 7170W        W25374   8.880   4.854  11.457 -0.1233  0.1449  0.0093
 7171W        W25375   1.309   5.936   4.227  0.0001  0.4618  0.2243
 7172W        W25376  15.725  12.127  14.443  0.0738  0.1100 -0.1251
 7173W        W25377  17.030  14.627  14.031  0.0246 -0.2830  0.1008
 7174W        W25378   4.828  12.838   0.166 -0.2790  0.0460 -0.0179
 7175W        W25379   5.892  15.452  11.330 -0.1710  0.0155  0.1227
 7176W        W25380   4.841   6.743  15.827 -0.3371 -0.3970  0.1754
 7177W        W25381  17.160   5.211   4.916 -0.0644 -0.3639  0.1802
 7178W        W25382   4.524   1.607   2.292  0.1642  0.1728 -0.2561
 7179W        W25383  12.328  10.519  13.910  0.3713  0.0111  0.2023
 7180W        W25384  15.727  14.705   1.450 -0.2800  0.1774  0.1435
 7181W        W25385  15.220  12.555  11.021  0.0048 -0.2256  0.1342
 7182W        W25386   8.200  15.735   3.446 -0.2682 -0.0370 -0.0498
 7183W        W25387   0.612   3.555   0.209  0.0765  0.1664 -0.1017
 7184W        W25388   2.868   2.324  13.542  0.2658  0.0950  0.1015
 7185W        W25389   2.407   7.134   0.853  0.1377 -0.0326  0.1902
 7186W        W25390  11.066   0.095  10.983 -0.1206  0.0614 -0.0590
 7187W        W25391  14.895   3.112  15.028  0.0428 -0.0459  0.1348
 7188W        W25392  14.043   2.089  15.871 -0.2898  0.3589  0.2607
 7189W        W25393   4.956   8.683   0.247  0.0770  0.0806 -0.1332
 7190W        W25394  11.419   4.422   2.069 -0.1093 -0.1065 -0.3294
 7191W        W25395  13.808   2.300   3.799  0.1441 -0.3090  0.2728
 7192W        W25396   5.148  13.236  11.252  0.0882  0.0473  0.0967
 7193W        W25397  13.066   7.984   4.120  0.2190 -0.0673  0.0877
 7194W        W25398   6.281   3.296  14.928  0.0016  0.1317  0.1197
 7195W        W25399   6.513   3.651   1.205  0.1626 -0.0803  0.1633
 7196W        W25400   9.047  13.721  15.446 -0.0676 -0.2359  0.1522
 7197W        W25401   1.346   6.545   1.835 -0.1317  0.1234 -0.1682
 7198W        W25402   8.238   5.550   1.673 -0.1795  0.0871 -0.1961
 7199W        W25403  10.234  10.437   1.240  0.1654 -0.1728 -0.2261
 7200W        W25404   3.214   3.124  12.985 -0.0493 -0.0802  0.0337
 7201W        W25405   3.878   8.868   5.192 -0.0424  0.0264 -0.1077
 7202W        W25406  10.657  14.123   0.630 -0.0737 -0.0085 -0.1283
 7203W        W25407  10.811  12.123   4.105  0.2472  0.1534  0.0390
 7204W        W25408  14.741   0.405   2.297 -0.0750 -0.0025  0.1676
 7205W        W25409   9.024  11.061  14.458 -0.1285  0.0968 -0.0063
 7206W        W25410  12.341  11.366  15.227 -0.1716  0.1950 -0.1358
 7207W        W25411  17.568   6.366  13.050 -0.0593 -0.3310  0.3877
 7208W        W25412   8.555  11.493  13.280  0.2760  0.0433 -0.1362
 7209W        W25413   7.698  11.223  14.285  0.0281  0.2194  0.0052
 7210W        W25414   8.521   9.741  12.685  0.0315  0.0663  0.2959
 7211W        W25415  15.168   3.131   2.011 -0.0972  0.0713  0.0552
 7212W        W25416  17.864  15.649  15.321  0.3812  0.3831  0.0115
 7213W        W25417  11.606  14.376   2.429 -0.1540  0.1585  0.0645
 7214W        W25418  13.416   8.856   2.074 -0.1664  0.2791  0.3150
 7215W        W25419   9.413  13.480   0.936  0.1404  0.0363  0.0975
 7216W        W25420   0.342  14.520   0.652 -0.0888  0.1827  0.0732
 7217W        W25421  14.956   2.497  15.769  0.1011 -0.0386 -0.2060
 7218W        W25422   2.028  11.200  14.650 -0.1916 -0.0084 -0.1142
 7219W        W25423  10.100   9.642   4.744 -0.1005  0.0912  0.0466
 7220W        W25424  17.738   1.224  14.957 -0.1928 -0.1922 -0.1088
 7221W        W25425   6.317  10.623   0.507  0.0175  0.1977 -0.1156
 7222W        W25426   4.960   7.643   2.766 -0.2753 -0.0786  0.0030
 7223W        W25427   6.776  17.355  12.739 -0.1619  0.0675 -0.1290
 7224W        W25428   3.791  10.592   1.462 -0.0352  0.0756 -0.0531
 7225W        W25429   5.501  14.226  10.803  0.2663 -0.1289 -0.0417
 7226W        W25430   4.682   1.506   0.314 -0.0503  0.1934 -0.0586
 7227W        W25431   4.005   8.773   2.449  0.2824 -0.0705 -0.0716
 7228W        W25432   1.109  17.428  11.609  0.0543 -0.1840 -0.1093
 7229W        W25433  13.927   9.072  14.645  0.4063  0.2467  0.0580
 7230W        W25434  17.679   3.894  11.748  0.0794 -0.0291  0.2495
 7231W        W25435  10.203   3.363   1.829 -0.1866  0.1351 -0.0147
 7232W        W25436   4.405   7.526  13.703 -0.0571  0.2750 -0.1205
 7233W        W25437   8.634   0.841   1.182 -0.0139  0.0274 -0.0962
 7234W        W25438  11.314  16.060  11.580 -0.0883  0.1200 -0.0602
 7235W        W25439   5.004  13.053   3.106 -0.1547 -0.0318  0.1487
 7236W        W25440  11.861   7.270   3.622 -0.0313  0.1405  0.0792
 7237W        W25441  13.920  11.605  13.189 -0.0907 -0.0597  0.2168
 7238W        W25442  17.722   8.105   2.902  0.2947 -0.0198  0.0847
 7239W        W25443   0.557  14.839   4.506  0.1341  0.0559 -0.0967
 7240W        W25444   9.432  10.426   3.303 -0.3950  0.1815  0.1356
 7241W        W25445  17.323  17.524  13.724  0.0064  0.1864 -0.3405
 7242W        W25446   0.143  15.520  13.477  0.3851 -0.1393 -0.0386
 7243W        W25447   1.461   2.700  14.518 -0.2665  0.1062 -0.0422
 7244W        W25448   3.892   8.287  14.610 -0.0634  0.0455 -0.1175
 7245W        W25449  17.372   4.005   3.205 -0.0628 -0.0900  0.2363
 7246W        W25450   5.046   9.432   5.121 -0.1380 -0.0423 -0.1732
 7247W        W25451   0.307   0.219   0.299  0.2257  0.0637 -0.3231
 7248W        W25452   0.606   8.978   5.206  0.1946 -0.1694  0.0394
 7249W        W25453   6.410   0.879   0.925  0.1604 -0.2161  0.2155
 7250W        W25454   8.264   9.200   6.300 -0.1579  0.1412  0.3360
 7251W        W25455   2.594   9.381   5.399 -0.1895 -0.0209  0.2731
 7252W        W25456   8.119   2.020   1.723  0.0965 -0.0125 -0.0348
 7253W        W25457   8.832  17.069  13.731  0.0695 -0.0390 -0.1630
 7254W        W25458   4.425   1.649  14.759 -0.1664 -0.0983  0.0555
 7255W        W25459   8.565   1.979   2.709 -0.0959  0.0662 -0.3561
 7256W        W25460   3.050   8.680  11.753  0.3677  0.3179  0.1290
 7257W        W25461   9.944   1.327  11.442 -0.1665  0.2020 -0.1655
 7258W        W25462   5.322   9.953   0.220 -0.2753 -0.2484  0.2393
 7259W        W25463   7.525  13.029   5.502 -0.0946 -0.2358  0.0220
 7260W        W25464  11.249  11.512  12.715  0.0120 -0.2507  0.1714
 7261W        W25465   2.797   8.450   3.328  0.3483 -0.0007  0.2994
 7262W        W25466  12.784  10.776  16.139  0.4482 -0.1898 -0.0476
 7263W        W25467  16.527  14.414   2.056  0.2094 -0.1221  0.2985
 7264W        W25468  15.111  12.854  10.627  0.1347  0.0646 -0.0803
 7265W        W25469   1.989  12.660   4.205 -0.2068 -0.1093  0.2863
 7266W        W25470  14.440   0.763  15.685 -0.1162 -0.2012  0.2327
 7267W        W25471   2.365   2.413  13.593 -0.0077 -0.0292  0.1933
 7268W        W25472  14.624   9.821  10.885 -0.0664  0.0463 -0.2103
 7269W        W25473  17.958  13.843   2.543  0.0883 -0.2994  0.2782
 7270W        W25474   8.642  13.249   1.881 -0.2068 -0.2864 -0.1725
 7271W        W25475  11.829  17.730   4.465  0.1785 -0.0505 -0.3225
 7272W        W25476   0.861  15.754   0.691  0.0823 -0.0190 -0.0779
 7273W        W25477   2.363  13.924   1.838 -0.1388 -0.0726  0.1449
 7274W        W25478   6.827   6.925  13.252  0.0788  0.1333  0.0660
 7275W        W25479   5.932  16.055  15.172 -0.0250 -0.2611  0.0206
 7276W        W25480  17.931   0.678  12.336 -0.1592  0.0031 -0.1666
 7277W        W25481  16.645   3.674  15.252  0.0005  0.0635 -0.0767
 7278W        W25482   1.430   3.957   1.597 -0.0840  0.0767 -0.0713
 7279W        W25483   8.934   1.925   5.758 -0.1144  0.3339 -0.0016
 7280W        W25484  17.268  15.110   0.594 -0.2215 -0.0526  0.1213
 7281W        W25485   3.173  10.828   0.134 -0.0368 -0.0697 -0.0959
 7282W        W25486  14.430   7.794  12.444  0.1134  0.1507 -0.2227
 7283W        W25487   5.335   1.464  11.363  0.0500 -0.1596 -0.0645
 7284W        W25488  15.712   1.133  12.290  0.0664  0.1166 -0.0474
 7285W        W25489   8.326   3.143   3.911  0.0972 -0.0959  0.2986
 7286W        W25490   0.903  15.196  12.145  0.0072  0.0230 -0.4549
 7287W        W25491  11.028   7.253   3.046  0.0481  0.2338 -0.0370
 7288W        W25492  12.386   7.629  12.236  0.0363  0.3990  0.2036
 7289W        W25493  12.000  13.727   4.131 -0.4340  0.1601 -0.0864
 7290W        W25494   1.466  15.743   4.386 -0.1254 -0.2127  0.3089
 7291W        W25495   1.488  10.745   1.558 -0.0745  0.2098  0.0935
 7292W        W25496  11.623   8.841   4.815 -0.4248  0.2002 -0.2332
 7293W        W25497  12.545  14.365  12.761 -0.2312  0.2049  0.0495
 7294W        W25498  11.465  17.946   2.834  0.2124  0.3144  0.0994
 7295W        W25499   9.940   1.759   3.853  0.0900 -0.1653  0.0168
 7296W        W25500  14.127  15.041   2.850  0.3933 -0.0759 -0.2796
 7297W        W25501   8.531  16.248   2.054 -0.0581  0.0959 -0.2227
 7298W        W25502   0.898  17.693  12.105  0.0941 -0.1252 -0.1637
 7299W        W25503   0.880   1.444  11.418  0.0497 -0.0849 -0.0234
 7300W        W25504  12.249   7.798   1.241  0.0972  0.1651 -0.0668
 7301W        W25505  15.649  14.249  10.873 -0.1377 -0.1498 -0.2570
 7302W        W25506  17.808  10.903   4.035  0.0507  0.1735  0.0565
 7303W        W25507   9.826   1.447   1.405 -0.1445 -0.3014 -0.0491
 7304W        W25508   3.512  11.550  13.154  0.1173  0.1666 -0.1151
 7305W        W25509   8.353   8.061  12.851 -0.0376 -0.0899 -0.0922
 7306W        W25510  17.504  13.492  13.569  0.0579  0.0081 -0.1145
 7307W        W25511   6.868  13.439   5.233  0.0733  0.0351  0.3115
 7308W        W25512   6.921   0.762   3.388  0.0148  0.0498  0.1674
 7309W        W25513   4.000  15.503   2.182  0.2017  0.1395 -0.1863
 7310W        W25514  12.727   4.968  15.289  0.0511 -0.0905 -0.3117
 7311W        W25515  16.837  14.319  11.765  0.1926  0.3247  0.1133
 7312W        W25516  17.945  13.217   4.011  0.0226 -0.3131  0.0777
 7313W        W25517   8.811   8.106  14.821 -0.2784  0.3105 -0.0640
 7314W        W25518  17.192   1.893  16.045 -0.1960  0.0032  0.0000
 7315W        W25519   3.191  10.004  11.551  0.0893  0.2120  0.0842
 7316W        W25520   8.282   5.802   4.842  0.1220 -0.1235 -0.2339
 7317W        W25521   2.707   4.696  15.527 -0.2939 -0.0067 -0.0455
 7318W        W25522  12.346  16.067   0.005  0.1586  0.1055 -0.0368
 7319W        W25523   4.859   1.848   5.128  0.0500 -0.0344  0.2807
 7320W        W25524  18.029   3.942   2.056 -0.1649 -0.0107 -0.0593
 7321W        W25525   8.341   7.297   2.658 -0.1898 -0.1759  0.1906
 7322W        W25526  11.875   6.677   2.219 -0.0998  0.0667  0.0068
 7323W        W25527   1.983   5.811   2.369 -0.0929 -0.1737 -0.0339
 7324W        W25528  17.946  11.380  13.352  0.1429  0.0796 -0.2134
 7325W        W25529   5.377   3.550   0.473 -0.0277  0.1290  0.0763
 7326W        W25530   0.716   4.662   1.297  0.1226 -0.0261 -0.1685
 7327W        W25531   6.815  13.203  14.082 -0.2599 -0.0203  0.1970
 7328W        W25532   7.654   6.363  13.844  0.0592  0.1638  0.0823
 7329W        W25533   1.683   4.698   3.295 -0.0186 -0.2229  0.1321
 7330W        W25534   1.633   1.309  14.513 -0.3828  0.1692  0.1975
 7331W        W25535   2.456   3.996  12.942 -0.0743  0.1725  0.2202
 7332W        W25536  10.961  17.613   1.471 -0.1912 -0.1698  0.1418
 7333W        W25537   4.915   0.763   1.544 -0.2887 -0.1721 -0.0965
 7334W        W25538  15.401  11.375   3.172  0.2745 -0.1079 -0.3884
 7335W        W25539   7.652   1.469  11.512  0.2663 -0.1101  0.0575
 7336W        W25540  13.317   2.108   0.652 -0.0763 -0.2031 -0.1517
 7337W        W25541  13.928  11.474  12.616  0.0394  0.1401  0.1465
 7338W        W25542  14.330  11.292   4.575 -0.1040 -0.1111 -0.0575
 7339W        W25543  15.089   7.371   3.620 -0.0956 -0.1721  0.0243
 7340W        W25544  12.180  13.206  10.723  0.0158  0.3011  0.3369
 7341W        W25545  11.469   4.668   0.349 -0.1260 -0.0227  0.0778
 7342W        W25546   5.915   3.502   3.603  0.1450 -0.2429  0.0010
 7343W        W25547  13.057  10.725  14.904 -0.0715  0.2277  0.2978
 7344W        W25548   4.983   8.690   1.797  0.0804  0.0022 -0.1451
 7345W        W25549   8.205   3.209  12.993 -0.0658  0.0653 -0.0878
 7346W        W25550  17.482   3.277   3.871  0.2137 -0.0075 -0.0068
 7347W        W25551   5.769   1.930   0.947  0.1509 -0.2809 -0.1792
 7348W        W25552   2.499  13.662  15.482 -0.1153 -0.2355  0.0003
 7349W        W25553   3.356  15.000  11.795 -0.3134  0.2681 -0.1902
 7350W        W25554   8.616   4.469   0.630 -0.1844 -0.0795 -0.1621
 7351W        W25555  10.316   0.601  11.021 -0.0332  0.2626 -0.0483
 7352W        W25556   8.249   9.978  15.792 -0.3095  0.0909  0.0498
 7353W        W25557   8.985  12.229   4.053  0.0768 -0.4297 -0.0525
 7354W        W25558  17.378   4.449  11.936 -0.3380 -0.3279 -0.0405
 7355W        W25559   2.891  12.474  11.632 -0.0128  0.1137  0.1851
 7356W        W25560  12.080   8.712  13.967  0.3230 -0.3777 -0.0323
 7357W        W25561  17.562  16.227   2.923 -0.0719 -0.1556 -0.0040
 7358W        W25562  17.397   5.560  12.654 -0.1199 -0.4802  0.1206
 7359W        W25563   3.533   2.800   1.825  0.1019  0.0233 -0.1159
 7360W        W25564   1.724   1.482   3.315 -0.1274 -0.2038  0.0139
 7361W        W25565  17.341  13.229   2.358 -0.0882  0.2173  0.0322
 7362W        W25566  11.180  11.220   1.071 -0.2095 -0.1429 -0.0173
 7363W        W25567  10.340   1.201  11.829  0.1689 -0.1618  0.1128
 7364W        W25568   0.886   5.518   1.769 -0.0535 -0.3060  0.0278
 7365W        W25569   2.746   0.877  16.114 -0.1053 -0.1183 -0.2474
 7366W        W25570   7.403   9.737  15.538  0.1969 -0.0834 -0.1695
 7367W        W25571  14.374  13.388  14.417  0.0987  0.3019 -0.0810
 7368W        W25572  15.557   1.257   3.526  0.0580 -0.0011 -0.2111
 7369W        W25573  11.438  10.419  15.790  0.1989 -0.1592  0.1589
 7370W        W25574   1.447  10.839   2.649  0.1391  0.0231  0.1342
 7371W        W25575   7.751  14.506   0.289 -0.2149  0.1044 -0.0620
 7372W        W25576  10.439   5.748  13.686 -0.1013 -0.1164  0.0408
 7373W        W25577  15.661   2.611   2.661 -0.0520  0.1033  0.2375
 7374W        W25578  11.491   9.283   1.961  0.0092  0.1801 -0.3966
 7375W        W25579   3.017   7.523  15.538 -0.0721  0.4281  0.0888
 7376W        W25580  17.937   6.948   5.024 -0.3992  0.1661  0.0699
 7377W        W25581   1.224   5.576  15.719 -0.0992 -0.0654 -0.0331
 7378W        W25582   3.337   2.709   2.494 -0.1738 -0.1472 -0.2077
 7379W        W25583  11.785  11.068   0.297 -0.3114  0.0523 -0.0055
 7380W        W25584   9.950  17.691   0.427  0.1724 -0.1182 -0.2276
 7381W        W25585  11.650   3.152   0.845 -0.0171  0.0321 -0.1338
 7382W        W25586  12.537  16.182  13.368  0.0615  0.0105  0.1069
 7383W        W25587   2.635   8.267  11.029  0.0403  0.2739  0.2957
 7384W        W25588  12.206   8.967  13.128 -0.0002  0.0192 -0.0836
 7385W        W25589  17.822  10.658  12.010  0.0193  0.0548 -0.1281
 7386W        W25590  12.050  17.090   2.531 -0.0794 -0.0184  0.0870
 7387W        W25591  11.334   1.952   0.429  0.0521 -0.0695 -0.0096
 7388W        W25592   7.429   4.671   4.510 -0.0453 -0.0429  0.0957
 7389W        W25593  16.999   6.789  12.418 -0.1199 -0.1726 -0.0423
 7390W        W25594  14.359  17.576   3.781 -0.3174  0.0480  0.1399
 7391W        W25595   5.538  13.008  13.254  0.0691  0.0692  0.1364
 7392W        W25596  16.744  17.054  12.566 -0.0803 -0.1712  0.1351
 7393W        W25597   3.872   4.857   0.365 -0.1008  0.1406 -0.2335
 7394W        W25598  14.075  16.917   3.456 -0.2260  0.1619 -0.0115
 7395W        W25599   7.779   2.403   3.025  0.0476  0.1938  0.1903
 7396W        W25600  11.843  17.364  13.766  0.1765  0.1212  0.0197
 7397W        W25601  15.676  17.244  15.104 -0.0080 -0.0378 -0.1888
 7398W        W25602  10.826  11.820  12.046 -0.2629  0.1896  0.0037
 7399W        W25603   1.701   9.078   1.197 -0.3012  0.3131  0.0090
 7400W        W25604  10.741  10.705  15.971 -0.1080 -0.0906 -0.0747
 7401W        W25605  10.630   7.401   5.029  0.0604 -0.0194 -0.1369
 7402W        W25606  11.709   6.752  11.055 -0.0641 -0.0705  0.1884
 7403W        W25607   2.971   7.506  14.040 -0.0054 -0.1540 -0.0011
 7404W        W25608   7.732   9.777  13.843 -0.1690  0.0351  0.2129
 7405W        W25609   3.773  12.704   1.670  0.0180 -0.0128  0.0130
 7406W        W25610   5.143   5.233  12.247 -0.0378 -0.4503 -0.0133
 7407W        W25611   2.367   3.955  14.585 -0.2711  0.2721 -0.0491
 7408W        W25612  17.261   4.189  14.703  0.1889 -0.3333 -0.0566
 7409W        W25613   2.068   9.439  15.987 -0.2971  0.0685  0.0784
 7410W        W25614   3.456   2.517  16.045  0.0489  0.0323  0.2099
 7411W        W25615   6.842   8.231  13.513 -0.2171 -0.2388 -0.1939
 7412W        W25616  13.601   5.601  14.302 -0.4755  0.2609 -0.0863
 7413W        W25617  14.521  11.918  15.147  0.1668 -0.0556  0.0518
 7414W        W25618   6.034   3.331  14.442  0.0927  0.1088 -0.0121
 7415W        W25619   7.617  12.502   2.039  0.0697 -0.3023  0.0630
 7416W        W25620  14.266   8.826   0.988  0.0233  0.1515 -0.1899
 7417W        W25621   3.779  13.842   4.929 -0.1868  0.0239  0.0390
 7418W        W25622  14.383   9.838   2.928 -0.1768  0.0105  0.1213
 7419W        W25623  13.249  11.280  14.371 -0.0562 -0.3204  0.0877
 7420W        W25624   3.229   4.613   3.091  0.0983 -0.1099  0.0817
 7421W        W25625   1.422  10.688  13.168  0.1140  0.2000  0.0552
 7422W        W25626  15.281   4.872   2.512  0.1975  0.0721 -0.1046
 7423W        W25627   5.187  15.302   2.745 -0.0202  0.3884  0.0274
 7424W        W25628   6.152  17.330  15.148 -0.3624  0.0992  0.2304
 7425W        W25629  16.266   0.573   0.005 -0.3220  0.0092 -0.0460
 7426W        W25630  15.087  12.543  11.472  0.2309  0.1714 -0.0418
 7427W        W25631  15.129  11.676  11.722 -0.0638 -0.1005 -0.2985
 7428W        W25632   3.879   2.534   2.193  0.1245  0.2434 -0.0205
 7429W        W25633   2.256  16.056  15.777  0.0231  0.0108  0.1696
 7430W        W25634  16.141  11.056   4.841 -0.3449 -0.0007 -0.2074
 7431W        W25635  13.795  13.690  15.692 -0.1096 -0.0912 -0.0916
 7432W        W25636   7.850   1.604   0.447  0.1829 -0.0803  0.3934
 7433W        W25637  17.667   0.694  14.911  0.3159 -0.1233  0.0401
 7434W        W25638   4.990   8.223   5.204  0.0957 -0.2345 -0.0280
 7435W        W25639  17.668   3.523  11.295  0.0081  0.0816 -0.0258
 7436W        W25640  11.895  15.221   2.122 -0.1502  0.2650  0.0311
 7437W        W25641   1.305  13.379  15.029 -0.0258  0.1781  0.1348
 7438W        W25642   4.700   2.167  13.446 -0.0423 -0.0789  0.0415
 7439W        W25643   1.325   8.736  12.160 -0.1316  0.0791 -0.0188
 7440W        W25644   4.156   4.724  15.711 -0.0380  0.0767 -0.1229
 7441W        W25645   4.591   0.695  11.964  0.0694 -0.3065  0.1551
 7442W        W25646   5.488   2.659   4.357 -0.0657  0.2024 -0.1409
 7443W        W25647  13.490   3.160  15.496 -0.2274 -0.0106 -0.3307
 7444W        W25648   2.056   9.092  11.703  0.1609  0.2304  0.0950
 7445W        W25649  11.238  13.341  13.416  0.1902 -0.1293  0.0706
 7446W        W25650   9.543   4.313  14.339  0.1044 -0.2344  0.1590
 7447W        W25651  11.514  16.636  16.107 -0.3292  0.0265 -0.1453
 7448W        W25652   4.786  11.341   2.068  0.1171 -0.1182 -0.0092
 7449W        W25653   5.047  16.496   1.444 -0.0355  0.1171  0.1503
 7450W        W25654  12.710  15.348   1.490  0.3008 -0.2026  0.2769
 7451W        W25655   3.623   0.297  13.490  0.1345 -0.0650  0.1406
 7452W        W25656   8.088   5.617   2.769 -0.3030 -0.1551  0.0322
 7453W        W25657  15.774   0.784   3.378  0.0933  0.1009 -0.0767
 7454W        W25658   0.323   4.395  12.601 -0.0832  0.0139  0.1970
 7455W        W25659   3.358  15.143  15.834  0.2567  0.2170 -0.3890
 7456W        W25660   4.732   9.066   3.133 -0.0674  0.1771  0.0457
 7457W        W25661  16.551   5.640  15.560 -0.1205  0.3250  0.0933
 7458W        W25662   5.637  16.002   3.161  0.4580  0.1530  0.2239
 7459W        W25663  16.246   6.670   3.199 -0.1168  0.1662  0.4057
 7460W        W25664  10.442   7.003  12.908 -0.0450 -0.1615  0.1561
 7461W        W25665   4.810   8.503  12.743  0.1703  0.1162  0.1203
 7462W        W25666   2.253  12.904   0.919  0.2194 -0.1068 -0.5930
 7463W        W25667  10.734   4.414  15.770  0.0258  0.0494 -0.1057
 7464W        W25668  16.753   5.104  14.399  0.1317  0.1742  0.0980
 7465W        W25669  12.896  11.359   1.180  0.0349 -0.1181  0.0919
 7466W        W25670   1.565   3.995  11.764  0.0457  0.4060  0.4877
 7467W        W25671  12.572   1.984  11.897  0.0560  0.2690  0.0573
 7468W        W25672   0.541   8.082  13.013  0.0691 -0.0242  0.3192
 7469W        W25673   2.123  10.090  11.570 -0.0835 -0.0659  0.2882
 7470W        W25674  14.744  14.557   1.951 -0.1562  0.0555 -0.1058
 7471W        W25675  15.514  13.620  12.403  0.0122  0.0049 -0.0452
 7472W        W25676  11.399  11.997  14.429 -0.1803  0.0425 -0.0496
 7473W        W25677   0.579  13.790   3.412 -0.0583 -0.4315 -0.1687
 7474W        W25678   3.588   6.892   0.031  0.1193  0.1800 -0.2196
 7475W        W25679   8.893   4.130  13.613  0.0959  0.0276  0.0458
 7476W        W25680   9.124  12.007   5.808 -0.2224 -0.0428 -0.0074
 7477W        W25681   5.199   8.257  14.704 -0.1654 -0.0431  0.1769
 7478W        W25682   6.469  12.400  14.582  0.3020 -0.1930 -0.0995
 7479W        W25683   5.458  16.799   1.574 -0.0129  0.0002  0.0161
 7480W        W25684   3.540   9.565  13.930  0.1427  0.1321 -0.1058
 7481W        W25685  12.085   3.317  15.529  0.2753 -0.1867  0.4344
 7482W        W25686   6.963   3.605   2.617  0.0189  0.0703  0.2220
 7483W        W25687   7.920   2.126   2.232  0.2263 -0.0110  0.0283
 7484W        W25688  10.779  15.896   0.645  0.0332  0.0656  0.2418
 7485W        W25689   6.749   6.447   2.031  0.1580  0.1584 -0.0853
 7486W        W25690   8.996  10.598   0.793  0.0514  0.4031 -0.2407
 7487W        W25691   7.627  17.817   1.167 -0.3663  0.3435 -0.2641
 7488W        W25692  10.324  15.015  10.648 -0.1851  0.3165  0.2674
 7489W        W25693   6.561  10.108   1.146  0.2207 -0.4716  0.0640
 7490W        W25694  10.716  15.432  12.453 -0.0908  0.0874  0.0967
 7491W        W25695   1.734   3.832  10.461  0.0972 -0.3189 -0.2971
 7492W        W25696  11.628   6.604  14.657 -0.0084 -0.3911  0.1061
 7493W        W25697  16.729   3.610   4.252 -0.1786 -0.0608  0.3022
 7494W        W25698   5.639   8.021  12.532  0.1537  0.0950 -0.1178
 7495W        W25699  14.378   6.289  12.269  0.3978 -0.1074 -0.0381
 7496W        W25700   1.118   3.064  15.683  0.2087 -0.1075 -0.0356
 7497W        W25701  11.614  10.684   3.722  0.0243  0.3577  0.2395
 7498W        W25702  15.736  12.019  13.950 -0.0356 -0.1991 -0.4374
 7499W        W25703   5.743   6.412   1.689  0.1243  0.2235 -0.0638
 7500W        W25704   5.641   9.484   5.331  0.2020 -0.0069 -0.0440
 7501W        W25705   4.182  10.784   2.418 -0.0727 -0.1473 -0.3192
 7502W        W25706   4.761  14.967  13.906 -0.1635 -0.1835 -0.1553
 7503W        W25707   7.339   4.382  13.428 -0.0800 -0.1983  0.2003
 7504W        W25708  11.666   2.648   0.852 -0.2128 -0.1469  0.2751
 7505W        W25709  17.969   7.395   5.392 -0.1585  0.0339 -0.1926
 7506W        W25710   5.113   8.991   2.491 -0.1900 -0.0434 -0.0600
 7507W        W25711   3.721   8.485  15.477 -0.0346 -0.0426  0.0534
 7508W        W25712   4.336   8.253  14.391  0.0404  0.3844 -0.0332
 7509W        W25713   6.372   6.643  12.958  0.0215  0.0045 -0.1075
 7510W        W25714   3.316   4.902   4.535  0.0646 -0.2319 -0.0796
 7511W        W25715  12.200   9.203   2.998  0.0672 -0.0899 -0.1981
 7512W        W25716   4.475   3.009   0.736 -0.1646  0.0512 -0.1508
 7513W        W25717   7.093  15.998   6.025 -0.2667 -0.0362 -0.1263
 7514W        W25718   7.944  12.244  11.696 -0.0190 -0.0539  0.0137
 7515W        W25719  15.434   0.965  11.836 -0.1208 -0.1545 -0.0478
 7516W        W25720  11.011   3.879   4.289 -0.1382 -0.0101 -0.2123
 7517W        W25721  16.893   7.580  15.270  0.1356 -0.1006 -0.0580
 7518W        W25722   7.847   3.161   3.534 -0.2136  0.1875  0.0959
 7519W        W25723  11.601  16.131  11.160 -0.0744 -0.1544  0.0279
 7520W        W25724   9.236   0.450  11.421  0.3456 -0.1750 -0.2699
 7521W        W25725  13.363  15.429   0.663  0.0481 -0.0819 -0.0861
 7522W        W25726  14.587   1.629   0.695 -0.0967 -0.0980  0.1705
 7523W        W25727   6.826   6.899   4.912 -0.2682 -0.1846  0.1570
 7524W        W25728  15.384  13.995  15.770 -0.1944  0.0713 -0.0028
 7525W        W25729  10.841  16.129  11.733  0.0785 -0.0394  0.0503
 7526W        W25730   6.851   8.973   6.425  0.1083 -0.3830 -0.1246
 7527W        W25731  12.481   9.613  14.211 -0.1016 -0.1553 -0.0584
 7528W        W25732  10.594  10.278  13.673 -0.0254 -0.4238 -0.3766
 7529W        W25733   1.371   3.944   4.138  0.1114 -0.2821 -0.0748
 7530W        W25734   0.135  15.721  14.078  0.1103  0.0210 -0.1463
 7531W        W25735   1.662  12.971  13.609  0.1413  0.1564  0.1390
 7532W        W25736  17.774   9.432   2.640 -0.0733 -0.2114 -0.0620
 7533W        W25737   2.202  16.448  12.590  0.3230  0.2854  0.2201
 7534W        W25738   5.948   5.238  14.070  0.1271  0.1039  0.0379
 7535W        W25739  10.138   8.772   2.303 -0.0557  0.2045  0.1355
 7536W        W25740  11.109   2.223   4.809 -0.3736 -0.2464  0.0386
 7537W        W25741  11.242  14.752  13.831 -0.1600  0.2629 -0.0430
 7538W        W25742  17.984  13.714  10.385  0.1079 -0.4567  0.2565
 7539W        W25743  15.649  16.781  15.263 -0.1319 -0.1328 -0.3665
 7540W        W25744   2.000  11.610  10.363  0.1029 -0.0636  0.1088
 7541W        W25745  17.221   9.968  14.060 -0.2055 -0.0009 -0.2500
 7542W        W25746  10.491  16.519  13.796  0.1177  0.1225 -0.0913
 7543W        W25747   6.937   1.405   2.069 -0.0460 -0.0990 -0.0950
 7544W        W25748  13.064   6.888   1.994 -0.1402 -0.1517 -0.0032
 7545W        W25749   9.331   0.579   1.578  0.0317  0.0650 -0.0535
 7546W        W25750  13.034  17.312   1.770 -0.1621  0.2229 -0.3536
 7547W        W25751   7.163  14.433   3.332 -0.2502 -0.1249 -0.0657
 7548W        W25752   1.691   2.271   1.696 -0.1862 -0.1183 -0.2497
 7549W        W25753   8.459  17.229  13.158  0.1155 -0.0689 -0.0264
 7550W        W25754  16.624  11.515   2.403  0.0108  0.0793 -0.0756
 7551W        W25755  12.874  16.164  11.650 -0.2758  0.0858 -0.0609
 7552W        W25756  11.303   4.453  14.021 -0.0346  0.1914  0.1699
 7553W        W25757  16.916  14.020  15.361  0.1023 -0.3366 -0.3644
 7554W        W25758  14.788   9.950   1.005 -0.0035  0.0631  0.0834
 7555W        W25759  15.731   1.928  15.557 -0.0290 -0.0508 -0.0844
 7556W        W25760   4.463   2.058  11.573 -0.1276 -0.1450 -0.1521
 7557W        W25761   4.235   8.039  12.879  0.0457  0.0401 -0.0055
 7558W        W25762   9.269   7.978   0.210 -0.2920 -0.0306 -0.1263
 7559W        W25763   0.376   4.248  13.246 -0.0453  0.0726 -0.0994
 7560W        W25764   3.781   1.603   0.201  0.0261 -0.2127  0.1851
 7561W        W25765  16.932   6.075  15.507  0.2652  0.2040  0.1170
 7562W        W25766  10.115   4.628  11.420  0.3413  0.0948 -0.1320
 7563W        W25767   0.554  15.304  12.483 -0.0263 -0.1495 -0.0386
 7564W        W25768   9.978  12.404  15.171 -0.0433  0.5054  0.1043
 7565W        W25769  11.142   2.799   1.000  0.2941 -0.2173 -0.0429
 7566W        W25770   7.220   4.558  12.295  0.1922  0.0115  0.1988
 7567W        W25771  10.031  14.593   2.152 -0.0533  0.0983  0.1193
 7568W        W25772   2.955   9.617   1.414 -0.0259 -0.4240  0.0829
 7569W        W25773  10.821   0.140   2.817  0.2440 -0.2339  0.0166
 7570W        W25774   6.512   1.419  13.909  0.1127 -0.2659 -0.3616
 7571W        W25775   0.311   2.036   2.262 -0.2201  0.0884 -0.1149
 7572W        W25776  14.401  15.818   1.607 -0.0513 -0.0174 -0.1469
 7573W        W25777   9.514  16.216   3.040  0.0299  0.1848  0.0922
 7574W        W25778   9.843   4.164  15.674 -0.1147 -0.0169 -0.3208
 7575W        W25779  12.896  16.469  11.206  0.1223 -0.0035 -0.3529
 7576W        W25780   3.614   6.168   3.167  0.3212  0.2704  0.1964
 7577W        W25781  11.802  14.681  10.842  0.2028  0.0269  0.0336
 7578W        W25782   0.915   7.784   2.254 -0.2094 -0.2453  0.0282
 7579W        W25783  10.081   6.849   5.523 -0.2671 -0.0357 -0.4395
 7580W        W25784   3.455   4.399  13.082 -0.0106  0.1428  0.1002
 7581W        W25785  16.543  16.159  15.329  0.3687  0.0780  0.2929
 7582W        W25786   8.534   5.406   2.500 -0.1309  0.1087 -0.3246
 7583W        W25787   2.410  10.130   0.247  0.2149  0.1446  0.1833
 7584W        W25788   0.183  10.523   4.603 -0.1117  0.0602 -0.0300
 7585W        W25789  13.286  13.941  12.069 -0.4323  0.1223  0.1163
 7586W        W25790  10.631   5.974  15.417  0.1618 -0.2198  0.1602
 7587W        W25791   1.729   3.529  16.087 -0.0457  0.0531 -0.0141
 7588W        W25792  14.602   9.184   4.479  0.2989 -0.2052 -0.0643
 7589W        W25793  10.481   1.147  14.631 -0.0374 -0.1781 -0.1210
 7590W        W25794  13.987   3.266   3.445  0.2371 -0.1643  0.1062
 7591W        W25795  12.437   9.701   0.756 -0.0002  0.0680  0.0473
 7592W        W25796   1.359  11.471   2.191 -0.1198  0.1712  0.1646
 7593W        W25797   0.424   2.270   3.448 -0.0248  0.0895 -0.0531
 7594W        W25798   4.189   8.528  15.766 -0.1320 -0.0762 -0.0385
 7595W        W25799   9.234  11.459   3.903  0.0567 -0.1715  0.0708
 7596W        W25800  14.308  10.356  15.234  0.0006 -0.0986 -0.1630
 7597W        W25801  17.204  12.349  13.553 -0.4686 -0.0583 -0.1253
 7598W        W25802  13.957  16.210   2.769  0.1816 -0.0831 -0.0751
 7599W        W25803  10.100   5.717  12.633  0.0310 -0.3730 -0.1881
 7600W        W25804   3.028  14.277   2.868 -0.1701 -0.1814  0.1833
 7601W        W25805   1.018   5.424  13.531  0.1450  0.1273 -0.2252
 7602W        W25806  17.672  17.591  11.801 -0.0868 -0.2457  0.1016
 7603W        W25807   9.944  14.238  12.463 -0.1719  0.2506  0.2947
 7604W        W25808   7.879   5.462   4.780 -0.0292 -0.3666  0.1225
 7605W        W25809   5.033  10.492  15.455 -0.0076  0.0258  0.0543
 7606W        W25810   9.193   7.150   0.850 -0.0130  0.3022  0.2290
 7607W        W25811   6.101  12.672  12.642  0.0086  0.1191 -0.1090
 7608W        W25812  13.721  15.001   2.382  0.2260 -0.0091  0.0305
 7609W        W25813  11.940   9.509  14.994 -0.0416  0.1513  0.0394
 7610W        W25814   7.448   7.418  13.313  0.1606 -0.3742  0.0660
 7611W        W25815   0.321  14.714  15.409  0.1565 -0.0142  0.2223
 7612W        W25816   0.853  11.177   1.943 -0.2233 -0.1441  0.1784
 7613W        W25817   5.270  13.874   4.434 -0.1205 -0.0595 -0.3128
 7614W        W25818   1.883  11.610   3.086  0.0703  0.1680 -0.1490
 7615W        W25819   7.325   2.831  11.861  0.1131  0.1938  0.2786
 7616W        W25820   9.109   9.834   0.130  0.0419  0.0062 -0.0588
 7617W        W25821   7.422  10.316  14.037  0.0250 -0.1934  0.2918
 7618W        W25822   2.301  11.127   3.085  0.2829 -0.0215  0.1602
 7619W        W25823   3.274   8.411   0.771  0.1564  0.2453  0.0840
 7620W        W25824   0.752  13.728   0.858  0.0213 -0.1472  0.0221
 7621W        W25825   2.613   4.385  13.231  0.1156 -0.1132 -0.0883
 7622W        W25826   6.273   5.571   0.612 -0.2189  0.1757 -0.2509
 7623W        W25827  10.670  13.883  12.829  0.1816  0.0611  0.1639
 7624W        W25828   7.102   6.800   2.056 -0.1236  0.2238  0.1173
 7625W        W25829   3.693  13.296   3.867  0.1539 -0.0712 -0.0299
 7626W        W25830  15.320  10.840   5.291 -0.1344  0.4685 -0.0511
 7627W        W25831  16.642   2.020  15.158 -0.0716 -0.1457 -0.0193
 7628W        W25832   0.968  12.488  12.564 -0.0830  0.0205  0.1286
 7629W        W25833  16.506  14.206   3.346 -0.0754  0.0612  0.1779
 7630W        W25834   7.110   7.083   2.640  0.1738 -0.1978 -0.5058
 7631W        W25835   4.162  17.023   1.651 -0.1530 -0.2785 -0.0504
 7632W        W25836  11.651   0.642   0.614  0.2086 -0.2262  0.1325
 7633W        W25837   6.318   8.224  14.164  0.1401  0.0204 -0.1541
 7634W        W25838  13.958   2.626   3.296 -0.0327 -0.2314  0.4801
 7635W        W25839  16.149   7.449   5.568  0.0255 -0.0383  0.0526
 7636W        W25840   1.050  14.253   2.572 -0.2466 -0.0178 -0.0420
 7637W        W25841   9.502   3.341  13.674 -0.2864 -0.0572 -0.0424
 7638W        W25842   3.726   3.546  12.612  0.1713  0.0408  0.1411
 7639W        W25843  15.466  17.164  14.362 -0.0445  0.0262  0.1864
 7640W        W25844   0.258  14.005  11.567  0.1393 -0.1673 -0.1060
 7641W        W25845  17.339   5.253  15.743 -0.0555  0.2292 -0.1959
 7642W        W25846   3.022  12.846   1.841 -0.2427  0.0845 -0.2873
 7643W        W25847   3.747  17.589  11.875  0.3021  0.1095 -0.1490
 7644W        W25848   1.022   9.167  12.996  0.2395 -0.1022 -0.0025
 7645W        W25849  14.712   5.606  15.425 -0.0946  0.1625 -0.4492
 7646W        W25850  12.722  17.459   4.499 -0.1059  0.0581 -0.1411
 7647W        W25851  14.394  16.732  15.228  0.0242 -0.3354  0.1101
 7648W        W25852   9.385   7.832  13.501 -0.0466 -0.0566 -0.0860
 7649W        W25853   4.848  11.541   4.907  0.1681 -0.1340 -0.2255
 7650W        W25854   4.588  10.023   1.956  0.1416  0.1778 -0.0419
 7651W        W25855   3.727  14.241   0.752 -0.0400 -0.1097 -0.1192
 7652W        W25856  15.334  12.262   0.352  0.0065  0.3443 -0.0151
 7653W        W25857  12.765   1.452  12.253 -0.1057 -0.0953 -0.0560
 7654W        W25858  15.713   0.408   2.056 -0.2213 -0.1458  0.2183
 7655W        W25859   2.493   8.300  14.791  0.1344 -0.1570  0.1118
 7656W        W25860   8.825  15.563   5.251 -0.0272  0.4497  0.0517
 7657W        W25861  14.289   3.298   5.356 -0.5457  0.0070  0.0741
 7658W        W25862  14.630   6.921   2.042  0.1542 -0.2388 -0.2455
 7659W        W25863   2.669  16.187  11.957 -0.0349  0.0237  0.2370
 7660W        W25864   0.026   1.996  12.363 -0.0950 -0.1131 -0.3906
 7661W        W25865   6.594   6.555   3.277  0.2500  0.2883 -0.1925
 7662W        W25866   6.322   9.627   1.888 -0.4857  0.1182 -0.2186
 7663W        W25867  11.334   0.613  10.334 -0.1669  0.1431 -0.1683
 7664W        W25868   7.855  12.136   1.249  0.2196  0.1228  0.1055
 7665W        W25869   8.653  14.607  11.168 -0.1291  0.2886 -0.0985
 7666W        W25870  10.504   8.825  12.180  0.0754 -0.2024 -0.0306
 7667W        W25871  15.712  16.081   1.997  0.1971  0.0636 -0.1357
 7668W        W25872   9.289  12.422   0.717  0.0022 -0.2118 -0.0859
 7669W        W25873  10.201  13.966  15.908 -0.0015  0.1566  0.2345
 7670W        W25874   1.705  14.643   3.572 -0.2606 -0.2518  0.0160
 7671W        W25875   9.437   5.550  14.120  0.1497  0.3955 -0.0449
 7672W        W25876   8.177   6.952  15.297 -0.2106 -0.0769 -0.3747
 7673W        W25877   1.524  14.296  13.906 -0.1738 -0.2114  0.2520
 7674W        W25878  12.269   3.707  11.932  0.0252  0.0318 -0.1437
 7675W        W25879   5.975  16.720  13.024 -0.0461  0.4430 -0.0497
 7676W        W25880   8.885  15.919  13.162 -0.1353 -0.2157  0.1023
 7677W        W25881   1.893   2.633  12.194  0.1388  0.1766  0.0566
 7678W        W25882   3.813   1.569   0.717  0.1230  0.0373  0.0952
 7679W        W25883   9.266  15.202  13.158 -0.2161 -0.1601 -0.0695
 7680W        W25884  16.094   5.728   3.377 -0.0066 -0.0080  0.2311
 7681W        W25885   7.357   3.504  16.072  0.0824 -0.0602 -0.3565
 7682W        W25886   6.202   2.386  15.071 -0.3843  0.2152  0.0742
 7683W        W25887   3.695   2.950  16.096 -0.3792 -0.0089 -0.0066
 7684W        W25888  13.946   8.779  12.184  0.1352  0.0951  0.0927
 7685W        W25889  12.360   3.041   2.084  0.2842 -0.1756 -0.1268
 7686W        W25890   7.766   2.774   2.168 -0.0793  0.1745  0.1530
 7687W        W25891  10.809   1.750  12.029  0.0189  0.1425 -0.1299
 7688W        W25892   3.128  13.628   2.278 -0.1242 -0.0003  0.1668
 7689W        W25893   7.895   9.315   0.318  0.2789 -0.0608 -0.0652
 7690W        W25894   2.170   9.823   0.660 -0.2872 -0.1352 -0.0227
 7691W        W25895   9.280  15.802  14.487  0.0595 -0.0793  0.1323
 7692W        W25896  15.519  10.330   3.220  0.0555 -0.1771  0.1320
 7693W        W25897  11.619  10.958   5.270  0.1895 -0.0797 -0.0348
 7694W        W25898  11.102   1.141   0.430 -0.1744 -0.1136  0.1733
 7695W        W25899  17.545   7.155   4.128 -0.0162  0.0413 -0.2250
 7696W        W25900  10.939  12.768   2.695  0.1242  0.0905  0.0106
 7697W        W25901  12.688  17.034  14.122  0.1305  0.0303  0.0870
 7698W        W25902  16.425   9.084  16.054  0.2498  0.1012  0.0249
 7699W        W25903   5.837  10.762  12.452 -0.0230 -0.0273 -0.2118
 7700W        W25904   0.336  13.656  12.990 -0.0077 -0.1698  0.1378
 7701W        W25905   3.773   5.852   3.586 -0.2654  0.1180  0.1358
 7702W        W25906  14.413   4.355   4.881  0.1035  0.1531 -0.2667
 7703W        W25907   9.183   2.365  11.610  0.0080 -0.1813 -0.1902
 7704W        W25908  11.086   3.846  12.750 -0.1415 -0.1358 -0.1014
 7705W        W25909   0.466  14.341   4.989  0.0726 -0.0856 -0.0995
 7706W        W25910  13.111   9.618   3.129  0.0133 -0.0513 -0.0291
 7707W        W25911   6.997  12.775  13.296  0.0322  0.1341 -0.1720
 7708W        W25912   0.915  12.355   1.141  0.0300 -0.3100 -0.0679
 7709W        W25913  15.735   2.122  12.972  0.0081  0.2589  0.1108
 7710W        W25914  17.346  14.921   3.264  0.2810 -0.1693 -0.1152
 7711W        W25915  10.639  11.729   3.705 -0.1520  0.0484  0.4442
 7712W        W25916   8.374   0.993  12.187 -0.1579 -0.1710  0.4340
 7713W        W25917   8.350  17.248  12.626  0.2278 -0.2458  0.1295
 7714W        W25918   2.860  11.688   2.894  0.0169  0.1147  0.1590
 7715W        W25919   5.792  10.639  15.913 -0.2650  0.1622 -0.0166
 7716W        W25920  17.354   1.856  13.152 -0.3032  0.2831 -0.0223
 7717W        W25921   0.176  12.602   5.179 -0.0266 -0.2419  0.1396
 7718W        W25922  13.624  14.729   4.627  0.0082  0.0226  0.2973
 7719W        W25923  15.931   1.636  14.375 -0.0308 -0.2211 -0.1742
 7720W        W25924   5.709  12.210  13.033 -0.2257  0.1649 -0.0073
 7721W        W25925   6.252   9.429  13.507 -0.0636 -0.1032 -0.1440
 7722W        W25926   1.526   8.658  13.944  0.0885 -0.0109 -0.2402
 7723W        W25927   3.084  10.701   2.102  0.1956 -0.1429 -0.0807
 7724W        W25928  14.880   0.928   2.363  0.0013  0.1637  0.0122
 7725W        W25929   3.973   1.578  11.725 -0.2356  0.3330  0.0744
 7726W        W25930   5.991  10.300  13.509 -0.1647  0.1618  0.3758
 7727W        W25931  10.087   0.821  11.523  0.1821 -0.0068 -0.2660
 7728W        W25932   0.510   9.467  14.224  0.0375  0.0988 -0.1064
 7729W        W25933  13.740  11.877  13.597 -0.1759  0.5054 -0.0788
 7730W        W25934   6.005   7.452  13.093 -0.1893  0.1499  0.0943
 7731W        W25935   7.677   5.286  15.105 -0.0605 -0.1597 -0.1474
 7732W        W25936  13.786   5.039   5.005 -0.3049  0.1780 -0.0096
 7733W        W25937  11.108  10.191   1.939 -0.0083 -0.1511  0.2017
 7734W        W25938  16.282  12.693   3.966  0.0885 -0.0617 -0.1393
 7735W        W25939  11.504  17.731   2.226 -0.0615  0.1051 -0.0181
 7736W        W25940  17.150   6.505  15.722 -0.1414 -0.0487  0.0562
 7737W        W25941   9.672  11.061  15.837 -0.1583  0.0858  0.0504
 7738W        W25942  13.197   9.843   0.413  0.2511  0.0281 -0.0494
 7739W        W25943  10.132  12.661   4.264 -0.3516  0.2482  0.0085
 7740W        W25944  15.557  16.467   3.400  0.2379 -0.1131  0.1430
 7741W        W25945  10.889   8.322  15.523  0.2332  0.0295 -0.1357
 7742W        W25946   4.641  16.569   2.725  0.2510  0.0289 -0.3165
 7743W        W25947  11.835   5.311   2.218  0.2171  0.0675  0.0171
 7744W        W25948   0.215   0.294   0.875 -0.2905 -0.0978  0.3239
 7745W        W25949   8.457   9.318   5.786  0.1788  0.0741 -0.0977
 7746W        W25950   8.910   9.680   3.179 -0.1938 -0.3785 -0.0830
 7747W        W25951   4.299  11.097  13.711 -0.1874 -0.1756 -0.3068
 7748W        W25952  12.030   7.371   4.862  0.0500 -0.0422  0.3107
 7749W        W25953  12.282  15.716  15.509 -0.2222  0.3329  0.2402
 7750W        W25954  16.342   1.070  13.122  0.0473 -0.1685 -0.2172
 7751W        W25955  12.285  15.171   4.031 -0.0861  0.0385 -0.0270
 7752W        W25956   9.515   3.830  12.797  0.0812 -0.1742 -0.0048
 7753W        W25957   8.410  16.595   0.483 -0.0156  0.1217 -0.0506
 7754W        W25958   9.373   0.242  14.164  0.3074  0.1706 -0.3907
 7755W        W25959   8.372  11.090   5.407 -0.1513  0.0754  0.3130
 7756W        W25960   8.702   0.071  11.365  0.0002 -0.2000  0.2039
 7757W        W25961  12.407   5.264   3.402 -0.0216  0.0122 -0.0378
 7758W        W25962   6.189   3.755  13.490  0.0034 -0.1643  0.0994
 7759W        W25963  13.019  12.235  12.055  0.1994  0.3970 -0.2058
 7760W        W25964  16.278   1.278   0.395 -0.2235  0.1133  0.1993
 7761W        W25965  16.131   6.906  15.703 -0.4419  0.1559 -0.0277
 7762W        W25966   9.829   1.205   4.743 -0.2784 -0.0695  0.0691
 7763W        W25967  17.464  17.863  10.998 -0.3586  0.1392  0.0912
 7764W        W25968  11.486  11.593   1.609  0.5489  0.0798 -0.1869
 7765W        W25969   6.381  14.234  14.045 -0.2079  0.2429 -0.1895
 7766W        W25970  16.650   1.965  14.063 -0.0120  0.0572 -0.0850
 7767W        W25971  14.003  12.520  13.536  0.0815 -0.1010  0.2628
 7768W        W25972  11.212  11.379   3.953 -0.0599  0.1116 -0.0726
 7769W        W25973  11.700   8.247   4.452  0.4437  0.1184 -0.1178
 7770W        W25974  12.123   2.425   4.895 -0.0740 -0.2009  0.0203
 7771W        W25975   4.932  14.535  15.128 -0.1016  0.1886 -0.0678
 7772W        W25976   8.319   7.910  14.797 -0.4206  0.4051 -0.1557
 7773W        W25977   5.858   2.116  12.497  0.0975  0.3298  0.1060
 7774W        W25978   0.126   2.743  10.362 -0.1381 -0.0666  0.2245
 7775W        W25979  13.727   2.815   0.274 -0.1626  0.0308 -0.2362
 7776W        W25980   9.545  11.455  12.665  0.0857 -0.0757  0.1098
 7777W        W25981   3.767  12.167  11.728  0.0179 -0.0958  0.1343
 7778W        W25982  10.633  11.667   1.637 -0.0468 -0.1537 -0.0819
 7779W        W25983  12.327   7.213  15.908  0.0692 -0.0433 -0.1134
 7780W        W25984   5.007   4.004   3.592  0.1813 -0.0617 -0.1522
 7781W        W25985   2.912   6.031  15.747 -0.0135  0.0318  0.0415
 7782W        W25986   3.339   7.852  13.721 -0.0407 -0.0043 -0.1136
 7783W        W25987  13.944   8.624   0.565  0.0426  0.0985  0.1390
 7784W        W25988  15.507  12.616   2.970 -0.3998 -0.0966  0.0507
 7785W        W25989  16.423   8.389  14.004  0.2160  0.0622 -0.1362
 7786W        W25990   4.264  14.292   0.303 -0.0037 -0.1361  0.0521
 7787W        W25991  12.220   9.968   1.890  0.2175 -0.0360  0.3347
 7788W        W25992   3.899   5.470  14.059  0.1610 -0.0235  0.1309
 7789W        W25993   6.989   9.608  14.532  0.0572 -0.1217  0.2341
 7790W        W25994   9.990  12.887  14.405 -0.1237 -0.0343 -0.1458
 7791W        W25995  17.468  10.223   5.080 -0.1790 -0.3397  0.2378
 7792W        W25996   5.557   5.958  16.031  0.1635  0.3217  0.1355
 7793W        W25997  16.273   1.904  14.794  0.2359  0.0775  0.0497
 7794W        W25998  17.797   6.111   4.126 -0.0731  0.0873 -0.1062
 7795W        W25999  15.760   8.225   2.446 -0.2121  0.1030 -0.1369
 7796W        W26000  11.658   1.457   0.374  0.3639 -0.2017 -0.0441
 7797W        W26001   5.208  13.086   3.813 -0.2479  0.1471  0.0833
 7798W        W26002  10.973   9.822   4.707 -0.1309 -0.1114 -0.0020
 7799W        W26003  17.025  16.228  15.458  0.1440  0.0104  0.2378
 7800W        W26004   1.529  12.015   0.008  0.0109  0.3334 -0.0700
 7801W        W26005   6.371  10.867   4.000  0.1020 -0.1328  0.0455
 7802W        W26006   5.522   8.725  11.918  0.2157 -0.3217 -0.1087
 7803W        W26007   9.813  14.755   2.598 -0.1214 -0.0924  0.2418
 7804W        W26008  10.128   0.482   4.183  0.0945  0.2855 -0.2122
 7805W        W26009   3.284   2.815   1.328 -0.2198 -0.3387  0.2385
 7806W        W26010  12.591  17.123   1.846 -0.1001 -0.0165 -0.0052
 7807W        W26011   3.491   7.248   1.607 -0.1491  0.0244 -0.2828
 7808W        W26012   0.623   3.123   0.323  0.0999 -0.0163 -0.4257
 7809W        W26013  11.629  17.222   2.325 -0.0468  0.2428 -0.1421
 7810W        W26014   2.860   1.869  12.802  0.1329 -0.0782  0.1531
 7811W        W26015   3.599   9.146  13.151 -0.0383 -0.3090  0.2238
 7812W        W26016   1.606  17.345  15.402 -0.0702  0.0186  0.2562
 7813W        W26017  14.507  16.543  12.194  0.3018  0.0281 -0.0171
 7814W        W26018  16.766  16.733   1.543  0.3706  0.0976 -0.1584
 7815W        W26019   5.837   6.910  15.839 -0.1377  0.2136 -0.2481
 7816W        W26020   4.044   9.981   0.303  0.0291 -0.1395  0.0638
 7817W        W26021  13.893   5.222  14.553  0.0285  0.1827  0.0560
 7818W        W26022  14.700  13.803  14.461  0.1615  0.0653 -0.1004
 7819W        W26023   4.086   7.815   1.149 -0.0281  0.2307  0.3243
 7820W        W26024  13.657  11.100  14.109  0.1853 -0.3669  0.4880
 7821W        W26025   4.075   4.064  14.614  0.0577  0.2045  0.0930
 7822W        W26026  14.793   9.699   5.281  0.1520  0.1956  0.1314
 7823W        W26027  13.520  13.804   4.470 -0.0177  0.1573 -0.1395
 7824W        W26028  17.086   7.783   4.172 -0.0750  0.1164  0.1949
 7825W        W26029   0.153  14.276  15.798  0.0199 -0.0368 -0.0909
 7826W        W26030  15.474  17.085   3.143  0.1984  0.0029  0.1808
 7827W        W26031  17.891   2.526   4.488  0.1699 -0.0935 -0.0944
 7828W        W26032  15.850   7.041  13.156  0.2007 -0.0143 -0.3835
 7829W        W26033   3.731   4.022  12.824  0.1724  0.1050 -0.2027
 7830W        W26034  13.661   8.427   3.935 -0.2279 -0.0703 -0.1037
 7831W        W26035  12.211  17.512   2.737 -0.2427  0.1950  0.2321
 7832W        W26036   6.987   8.793  15.329  0.2862 -0.0022 -0.0546
 7833W        W26037   2.000   4.102  14.263 -0.0541 -0.1099 -0.1079
 7834W        W26038   5.955  13.006  14.541 -0.1239 -0.0722  0.3587
 7835W        W26039   5.851  15.354   1.128 -0.2817  0.0374 -0.2184
 7836W        W26040  14.554   7.119   3.039 -0.0635 -0.2548 -0.2368
 7837W        W26041  14.352  17.397  15.758  0.0630  0.0051 -0.0420
 7838W        W26042   0.458  11.611   1.461  0.0311  0.1155 -0.0547
 7839W        W26043  14.530  15.652  12.549  0.1397  0.0889  0.0503
 7840W        W26044   3.316  14.776  12.605  0.0620 -0.0614  0.0295
 7841W        W26045  17.903   2.928   4.804  0.0658 -0.1093 -0.2695
 7842W        W26046  15.856   8.235  12.604  0.0066  0.1034  0.1569
 7843W        W26047   7.199   5.189  15.844 -0.1057 -0.2997  0.2254
 7844W        W26048   7.586   0.804   3.249 -0.1883 -0.1676  0.1010
 7845W        W26049   0.842   9.105   2.190  0.0625 -0.2333  0.0761
 7846W        W26050   3.836   5.615  12.291 -0.0359  0.2144 -0.1439
 7847W        W26051   2.080  17.240  13.496 -0.5953  0.1398 -0.5595
 7848W        W26052  14.817   7.857   1.740  0.1908 -0.2322  0.1138
 7849W        W26053  16.548   4.076  13.116 -0.3087 -0.3071  0.1344
 7850W        W26054   5.336  11.511   5.846 -0.0759 -0.0474  0.0799
 7851W        W26055   2.295   5.056   3.670 -0.1521  0.0285 -0.1983
 7852W        W26056  16.767   1.464   5.350  0.0373  0.0913 -0.1053
 7853W        W26057  14.257  11.648   1.937  0.3101 -0.1705 -0.1036
 7854W        W26058   8.850   9.078   3.412  0.3359 -0.1218  0.1638
 7855W        W26059   8.018   4.213  11.249 -0.0297 -0.3079 -0.2628
 7856W        W26060   6.896   5.661   2.875  0.0174  0.0119  0.0156
 7857W        W26061  10.976  12.612  15.213 -0.0906  0.0679 -0.3636
 7858W        W26062  12.402  14.631   1.777 -0.0903 -0.2497 -0.1302
 7859W        W26063   2.348   0.173   1.337  0.0279 -0.0107 -0.2087
 7860W        W26064  12.256  16.841  13.861 -0.2401 -0.1105  0.1644
 7861W        W26065   5.343   3.474  13.566  0.1602 -0.0944  0.4115
 7862W        W26066  10.432   5.446   1.148 -0.3763  0.3729  0.0578
 7863W        W26067   3.534   9.698   1.457  0.0477 -0.0490 -0.0642
 7864W        W26068  10.694   7.861  13.174 -0.1100 -0.0579 -0.1236
 7865W        W26069   9.637  15.304  14.092  0.1258  0.1527 -0.1090
 7866W        W26070   6.222   6.530   1.693  0.1296  0.0379  0.1890
 7867W        W26071  13.270   4.397   4.937  0.1644 -0.0725 -0.0989
 7868W        W26072  17.158   4.985   3.252 -0.0085  0.3950  0.0688
 7869W        W26073   3.876   8.048   4.261 -0.2191 -0.1284  0.1410
 7870W        W26074  14.603   3.705   1.479  0.1282 -0.1232 -0.0169
 7871W        W26075  14.622  10.395   2.219 -0.0246  0.3169  0.0159
 7872W        W26076   6.379   1.072   0.269  0.0179 -0.1729  0.0662
 7873W        W26077   4.251   1.075  12.376 -0.1534 -0.3578 -0.2358
 7874W        W26078  11.246   7.291   4.387 -0.1706 -0.1378 -0.1271
 7875W        W26079  13.641  16.608   2.867  0.1522  0.1826 -0.2677
 7876W        W26080   4.978  15.375   3.748  0.3649 -0.1869 -0.2212
 7877W        W26081   3.638   8.425   0.359  0.1187  0.0941 -0.3154
 7878W        W26082   0.576   3.737  12.576  0.1040 -0.0753 -0.0194
 7879W        W26083  17.578   2.721  12.953 -0.1124  0.2266  0.0409
 7880W        W26084   7.444  16.758  12.819  0.2908 -0.3790 -0.0080
 7881W        W26085  10.207  12.339   1.948  0.0882  0.2152 -0.0679
 7882W        W26086   9.547   2.522   3.580 -0.1811 -0.2027 -0.2764
 7883W        W26087   6.483  15.685  14.712 -0.2390 -0.1902 -0.0336
 7884W        W26088  12.614   4.126  13.811 -0.1282 -0.0211  0.0685
 7885W        W26089  14.021  10.772   5.181  0.3068 -0.0168 -0.2071
 7886W        W26090  10.687   9.109  11.789 -0.2470 -0.1059  0.1656
 7887W        W26091  16.223   4.695  15.500  0.0491 -0.0823  0.0686
 7888W        W26092   7.213   4.344  11.297  0.0288  0.0652  0.2343
 7889W        W26093   5.602  15.202   4.269  0.0808  0.1253 -0.2433
 7890W        W26094  14.400   3.503   3.068 -0.3275 -0.0299  0.1177
 7891W        W26095   0.151  14.431  14.053 -0.0175 -0.0595 -0.0208
 7892W        W26096   4.349   9.659  14.315 -0.0478  0.0226 -0.0349
 7893W        W26097  14.462  13.879  10.835  0.0786 -0.2220  0.2297
 7894W        W26098   7.026  13.527  14.397  0.1114 -0.3325  0.0196
 7895W        W26099   7.627   1.534   3.832  0.4159 -0.1286 -0.0870
 7896W        W26100  11.204  14.422   4.089  0.1486  0.0183  0.3273
 7897W        W26101   9.253  10.187   0.912 -0.0946 -0.1194  0.0318
 7898W        W26102   4.531   0.719   2.852 -0.0301 -0.0991 -0.0026
 7899W        W26103   2.458   8.915   5.281 -0.1508  0.0801  0.1666
 7900W        W26104   5.262   7.944  14.337 -0.0101 -0.1601  0.1843
 7901W        W26105  13.293   7.953   2.823 -0.1181 -0.1946 -0.0711
 7902W        W26106  16.102  13.795  14.721 -0.1780 -0.0403 -0.0394
 7903W        W26107  10.399   2.523   3.475 -0.2283  0.1217 -0.0097
 7904W        W26108   5.259  12.439  13.186  0.4021 -0.0691 -0.0288
 7905W        W26109   3.507   8.459  11.574  0.3481  0.0618  0.1201
 7906W        W26110   4.241  16.717  12.255  0.1860  0.3701  0.1774
 7907W        W26111  17.341  15.797  13.051 -0.2827 -0.0603  0.0127
 7908W        W26112  17.191   5.388   5.941 -0.0088  0.0229 -0.0114
 7909W        W26113   3.416  14.595   1.437  0.2923 -0.1655  0.1631
 7910W        W26114  15.296  14.161  14.621  0.2693  0.1721 -0.0700
 7911W        W26115   4.106  14.588   0.733  0.0543 -0.0082  0.1683
 7912W        W26116  13.851  10.710   3.527 -0.0251  0.0181 -0.0431
 7913W        W26117  13.552   8.097   1.818  0.3116  0.1199 -0.1313
 7914W        W26118  17.559  11.764   2.639  0.2136  0.1109 -0.3559
 7915W        W26119   5.507  15.218  12.994 -0.0831 -0.0748  0.0672
 7916W        W26120  11.339   9.868   4.383  0.1662 -0.0337  0.0798
 7917W        W26121   2.942  12.372   4.404 -0.0766  0.2732  0.0834
 7918W        W26122   8.906   6.542   3.113  0.0538 -0.1887 -0.1723
 7919W        W26123   2.140   8.513  11.724 -0.1879 -0.3393 -0.2120
 7920W        W26124   0.311   1.840  13.560  0.0609 -0.1597 -0.1506
 7921W        W26125   5.480   3.584   1.316  0.2345 -0.1571  0.1098
 7922W        W26126   9.575  10.522  13.191 -0.2920  0.4676  0.2987
 7923W        W26127   6.807   9.134  14.454  0.2552 -0.3570  0.0253
 7924W        W26128   9.345  14.218  15.391 -0.1911  0.1307  0.0839
 7925W        W26129  16.470   4.759   1.637  0.0307 -0.0231 -0.1418
 7926W        W26130   1.220   6.385   4.498  0.1378  0.1078  0.1563
 7927W        W26131   4.990   2.126  10.437 -0.0456  0.0288  0.0882
 7928W        W26132   7.340   4.932  12.548  0.1311 -0.2720  0.2329
 7929W        W26133  14.825   3.163   2.475  0.0929 -0.3113  0.3817
 7930W        W26134  11.577   2.151  14.625 -0.0367 -0.1433 -0.2670
 7931W        W26135   0.429  10.934  15.122  0.5204  0.0822  0.0467
 7932W        W26136   5.060   5.183  13.850  0.0239 -0.1992 -0.2034
 7933W        W26137   7.155  14.546  11.777 -0.0385  0.1917 -0.1989
 7934W        W26138  14.649  15.008  14.824  0.1980 -0.1687  0.1927
 7935W        W26139   3.615  16.676  11.091  0.0827 -0.1475 -0.1570
 7936W        W26140  15.862  16.507  11.093 -0.0145  0.0962  0.1665
 7937W        W26141   0.009  13.753   1.405 -0.0070  0.0969  0.0538
 7938W        W26142  17.688   4.085   1.737  0.1656  0.0044 -0.1694
 7939W        W26143  10.679  11.144   0.724  0.0301  0.2608 -0.3050
 7940W        W26144   2.989  17.811  12.395 -0.0374  0.0223 -0.2446
 7941W        W26145   3.636  16.387  14.750 -0.1592 -0.2305  0.1167
 7942W        W26146   6.668  17.505   1.544 -0.0351  0.0233  0.0789
 7943W        W26147  11.950  10.372  14.221  0.2941  0.0769  0.0535
 7944W        W26148  13.297  11.616  12.869 -0.1706 -0.0607  0.1232
 7945W        W26149  17.162  12.527  11.452  0.2703 -0.0902 -0.1094
 7946W        W26150  13.109   6.795   5.406  0.4490 -0.2424  0.1963
 7947W        W26151  15.550   5.389  16.050 -0.2820 -0.0087 -0.1637
 7948W        W26152   0.536   1.545   9.959 -0.0930 -0.1150  0.1048
 7949W        W26153  16.305   1.508   2.912  0.4096 -0.0438 -0.0176
 7950W        W26154   5.222   9.866   3.299  0.3587 -0.0355  0.0194
 7951W        W26155   0.344   7.827  15.777  0.0269 -0.0943  0.2048
 7952W        W26156   0.104  12.858   4.363  0.0803 -0.1340  0.0123
 7953W        W26157   3.352   6.419  14.181 -0.1829 -0.0004 -0.2595
 7954W        W26158  10.383   7.796   2.391  0.0288  0.3063 -0.4961
 7955W        W26159   7.620   4.109   0.764  0.0968  0.0427 -0.2055
 7956W        W26160   2.162  17.004   2.639 -0.0976 -0.0472  0.0582
 7957W        W26161  12.992   3.459   0.232 -0.2582 -0.0150 -0.0305
 7958W        W26162  17.666   4.012   0.186 -0.2041  0.2404  0.3710
 7959W        W26163  12.029   6.815  14.220 -0.0280 -0.1063 -0.2430
 7960W        W26164   9.077  10.863  12.025 -0.0919  0.2594  0.0764
 7961W        W26165   3.512   0.987  12.883  0.0972 -0.1916  0.2571
 7962W        W26166  13.712   7.647   1.740 -0.3981 -0.3301  0.2212
 7963W        W26167   6.674  11.117   4.995 -0.1414  0.2662  0.1481
 7964W        W26168   2.906   1.233   4.381 -0.1655 -0.3614 -0.0914
 7965W        W26169   8.254  10.545   1.938  0.0640 -0.2630 -0.1578
 7966W        W26170   2.531   4.329  14.285 -0.2706 -0.1646 -0.0511
 7967W        W26171   9.364   3.658  14.027  0.5671 -0.0306  0.0533
 7968W        W26172   4.152  10.100  14.498  0.1123 -0.0159 -0.2123
 7969W        W26173   1.662  12.043   0.583 -0.0787  0.0836 -0.1401
 7970W        W26174  10.954   6.449  13.558 -0.2685  0.0881 -0.0946
 7971W        W26175  13.572   2.070  15.826 -0.1908 -0.2740 -0.5199
 7972W        W26176  13.170   6.663   4.724  0.2125  0.0396 -0.3007
 7973W        W26177  11.145   6.364  12.714  0.0584 -0.2976 -0.1501
 7974W        W26178  15.375   2.198   3.952 -0.0792  0.0860 -0.1358
 7975W        W26179   0.406  16.821  14.828  0.2757 -0.1479  0.2507
 7976W        W26180  14.852   4.608   1.024 -0.0946  0.3327  0.1273
 7977W        W26181   0.990   4.456   3.613  0.1063  0.1081  0.2414
 7978W        W26182   1.219  11.864   0.375 -0.1698  0.3100  0.1649
 7979W        W26183  15.152   1.420   3.250 -0.0326 -0.3222  0.3031
 7980W        W26184  11.866   4.713   2.952 -0.2930 -0.2301  0.0094
 7981W        W26185   9.461  14.904   2.294 -0.3275  0.0040 -0.0323
 7982W        W26186   0.072   0.096   2.983  0.0723 -0.3879  0.0866
 7983W        W26187   2.202   5.237  12.187  0.0950 -0.0995  0.2602
 7984W        W26188   5.671  16.695  14.359  0.1582 -0.0607  0.0360
 7985W        W26189   2.534  11.296   2.618 -0.0411 -0.2080  0.0201
 7986W        W26190   5.447   3.677  12.701 -0.0653 -0.2208  0.0125
 7987W        W26191  14.880   2.399   4.711  0.1167  0.0261  0.1696
 7988W        W26192   7.753   9.169   5.086 -0.1697  0.2974 -0.0565
 7989W        W26193   1.644   9.688  12.549  0.3768  0.0883  0.1233
 7990W        W26194   9.530   7.966  13.988  0.0824 -0.2719 -0.1694
 7991W        W26195   9.547  12.866  12.029 -0.0854  0.1175 -0.0324
 7992W        W26196   4.714  17.524  12.065  0.2313 -0.0623  0.0269
 7993W        W26197  17.529   0.978   5.336  0.3958  0.3169  0.2183
 7994W        W26198   1.937   0.110  15.524  0.0194  0.1920  0.1266
 7995W        W26199  16.089   3.334  15.851  0.1208 -0.2424  0.0777
 7996W        W26200   2.276  11.072   1.396 -0.1949 -0.0148  0.0179
 7997W        W26201   9.601  17.418   3.686 -0.2914 -0.0588  0.0363
 7998W        W26202   2.256   8.462   2.241 -0.0556 -0.1235  0.0225
 7999W        W26203  10.071  17.277   4.641 -0.2460  0.2485  0.4121
 8000W        W26204  12.359  16.689  12.021 -0.2942 -0.0094  0.1465
 8001W        W26205  16.795  11.341   5.442  0.1588 -0.2351 -0.1688
 8002W        W26206  14.471  14.921  10.634  0.0318 -0.2022  0.2822
 8003W        W26207   1.326   1.817   3.978  0.0025  0.0846 -0.2181
 8004W        W26208  14.952  12.924  13.475  0.1717  0.1301  0.1919
 8005W        W26209   9.146   0.314  15.598 -0.1874 -0.2525  0.0278
 8006W        W26210  16.853   9.277   4.597  0.0966 -0.1033  0.2165
 8007W        W26211  12.520   5.133  15.818 -0.1618 -0.0702  0.2565
 8008W        W26212  17.292  15.002   1.090  0.0443 -0.3551  0.1899
 8009W        W26213  14.987  17.646  13.002 -0.0444 -0.0491 -0.1173
 8010W        W26214   9.840   3.874  11.797  0.0744  0.4729 -0.2104
 8011W        W26215   2.171   3.810   3.425 -0.0167  0.0839 -0.0325
 8012W        W26216  14.393  12.164   0.726 -0.0874 -0.0569 -0.1422
 8013W        W26217   9.503   1.971  16.106 -0.0325  0.3128  0.0285
 8014W        W26218  15.734   5.478   4.891  0.0096 -0.0083 -0.0356
 8015W        W26219   9.833  11.811   0.225  0.2564  0.0655 -0.1522
 8016W        W26220  13.391   3.445   2.968  0.0517  0.0525  0.0827
 8017W        W26221   8.744   0.171  12.441  0.3433  0.1928  0.2524
 8018W        W26222   9.792   4.416  11.134  0.0386  0.0786  0.0289
 8019W        W26223   6.710  13.520   1.460 -0.0834 -0.1695  0.0433
 8020W        W26224   2.660   7.749   5.494  0.0501 -0.0741  0.2232
 8021W        W26225   5.861  12.748  11.674 -0.0112 -0.0397  0.0200
 8022W        W26226  16.965   6.490   1.621  0.2289 -0.0202  0.0657
 8023W        W26227  14.232   3.185  13.871 -0.1270 -0.3175 -0.0095
 8024W        W26228   5.701  13.145   4.000  0.1961  0.0961 -0.2621
 8025W        W26229   8.820   7.681   4.263  0.1156 -0.1438  0.1968
 8026W        W26230   9.467   1.651  15.598  0.1872  0.0216  0.1347
 8027W        W26231   4.430   0.737  13.911  0.0128 -0.2006 -0.1929
 8028W        W26232   8.553  11.469   0.072 -0.1738  0.0524 -0.1991
 8029W        W26233   3.745  13.391  14.748 -0.0341  0.4744  0.0384
 8030W        W26234  17.513   1.008  12.239 -0.0025 -0.1190  0.0146
 8031W        W26235   1.315  13.199   2.532  0.0182 -0.4667  0.1314
 8032W        W26236  15.058  11.631  10.822 -0.0922 -0.0098 -0.2876
 8033W        W26237   6.310   0.893  12.412  0.0317 -0.0877 -0.2021
 8034W        W26238   4.418   6.713   4.180 -0.0888  0.0417 -0.0891
 8035W        W26239   3.880  10.494  15.721  0.0324  0.0919 -0.3726
 8036W        W26240  15.759  17.908  15.703  0.2122  0.0450 -0.0867
 8037W        W26241  15.395   5.713   4.653 -0.2265  0.1943  0.0356
 8038W        W26242   8.529  16.063   2.576 -0.2265  0.2556  0.0180
 8039W        W26243  11.345   1.626   4.173  0.2165  0.0488  0.2183
 8040W        W26244  10.202   0.235  10.674 -0.1311  0.1571  0.1144
 8041W        W26245  17.679  10.896   5.403  0.1712 -0.0294 -0.1120
 8042W        W26246   7.729   1.793   2.593  0.0299 -0.0620 -0.0248
 8043W        W26247   2.834  12.605   3.090  0.0520 -0.3103  0.0660
 8044W        W26248   1.526  14.378   1.788  0.2556  0.0723  0.0042
 8045W        W26249  12.288  13.096  14.867 -0.0683  0.2838  0.1144
 8046W        W26250   9.572  14.418  13.856 -0.0892  0.0184  0.3632
 8047W        W26251  17.036   2.532   2.543 -0.0338  0.0660 -0.2273
 8048W        W26252  16.789   4.109   2.442 -0.2970 -0.1715  0.2865
 8049W        W26253  16.207  11.572  15.349 -0.0394 -0.1417  0.0204
 8050W        W26254   7.352  11.766  15.837 -0.2600  0.1968  0.1659
 8051W        W26255   9.862   1.609   0.824 -0.2941  0.0418  0.2430
 8052W        W26256  17.040  11.796   0.245  0.0544 -0.2142  0.0798
 8053W        W26257  16.990  10.439  14.070 -0.3575  0.0577 -0.0085
 8054W        W26258  14.315  10.007   4.227  0.1068 -0.1511 -0.1037
 8055W        W26259   3.091   8.945   0.755  0.2814 -0.1072 -0.0903
 8056W        W26260  11.296   5.338   4.434 -0.1226 -0.2076  0.0088
 8057W        W26261   7.357   0.076  13.795 -0.0498 -0.1119  0.1171
 8058W        W26262   5.653   9.765   0.569 -0.4162 -0.0280 -0.0017
 8059W        W26263   5.542   4.682  13.479  0.1458  0.0640 -0.2673
 8060W        W26264  15.535   8.362   2.871  0.0067 -0.2138 -0.1310
 8061W        W26265   0.703  14.170   0.707 -0.2118  0.2152  0.1664
 8062W        W26266  12.522  13.080  15.623  0.0001  0.1973 -0.1807
 8063W        W26267  13.624   6.041   2.199 -0.1159 -0.1471  0.0853
 8064W        W26268   6.458   4.744  12.935  0.2139 -0.0061  0.2486
 8065W        W26269  10.294   5.718   4.804 -0.0175 -0.0305  0.0768
 8066W        W26270  10.446   4.489   1.047 -0.3295 -0.0364  0.0450
 8067W        W26271  12.858  13.252   2.934 -0.0158  0.0150 -0.0108
 8068W        W26272  11.675  11.037  12.939 -0.1650 -0.2378 -0.1400
 8069W        W26273   6.031  12.096  13.414 -0.0985 -0.0762  0.1339
 8070W        W26274   0.802  16.677   3.510 -0.0762 -0.0032  0.1099
 8071W        W26275   9.283   6.789   2.859 -0.2761 -0.2777 -0.0467
 8072W        W26276   3.296  17.195   4.506 -0.2885  0.0113  0.0813
 8073W        W26277  11.846  16.639  15.590  0.0769 -0.0515 -0.0504
 8074W        W26278  16.366   3.635   0.056 -0.0115  0.2356  0.2658
 8075W        W26279  14.809   7.658  12.046 -0.2691 -0.0472 -0.1387
 8076W        W26280  14.717   6.128   2.221 -0.1268  0.0415  0.1133
 8077W        W26281  15.550   9.077  12.831  0.0576 -0.0438 -0.3866
 8078W        W26282   9.799   5.077  12.354  0.0878  0.1598 -0.0816
 8079W        W26283   9.497   1.908  12.612  0.0951  0.0277  0.1874
 8080W        W26284  17.010   2.932   2.932  0.1962 -0.0416 -0.1347
 8081W        W26285   6.662  17.949   0.930 -0.1831  0.1603  0.0869
 8082W        W26286   8.806  15.378  16.030  0.0714 -0.0030 -0.0176
 8083W        W26287   1.986   3.116  12.520 -0.1820  0.4923 -0.3335
 8084W        W26288  10.706  12.214   1.768  0.0162  0.0486 -0.1649
 8085W        W26289   6.875  18.040  14.846  0.1642 -0.0288  0.2425
 8086W        W26290   3.010   7.144   4.779 -0.0716  0.0019  0.1247
 8087W        W26291  14.209  16.984  11.896  0.1793 -0.1728  0.0430
 8088W        W26292   4.559   6.611   0.900 -0.0181 -0.0363  0.0009
 8089W        W26293   4.609   9.000  12.023 -0.1198  0.1025 -0.2789
 8090W        W26294   6.733  16.274  14.761 -0.2091  0.0864 -0.2057
 8091W        W26295   3.391  15.216  14.814  0.2110 -0.1476 -0.3013
 8092W        W26296  15.269   7.418  13.889 -0.1007 -0.2967 -0.1199
 8093W        W26297   8.656   4.494  14.552  0.0012 -0.0156  0.2764
 8094W        W26298  10.088   7.166  12.090 -0.1222 -0.1757 -0.0595
 8095W        W26299   8.246   9.848   2.006 -0.1531 -0.3143 -0.1363
 8096W        W26300  12.174  11.095  12.880 -0.0813  0.2348  0.1223
 8097W        W26301   2.451   0.286   2.746  0.0498 -0.0889 -0.2828
 8098W        W26302  13.982   5.596  10.918  0.2375 -0.2566  0.0234
 8099W        W26303   6.885  14.134  13.691  0.2796 -0.1631 -0.1302
 8100W        W26304   1.650  10.338  15.946  0.2105  0.0317  0.0539
 8101W        W26305   8.658   3.973   4.622 -0.2274 -0.0353 -0.0564
 8102W        W26306  16.804  11.913  15.921  0.0032  0.3287  0.0229
 8103W        W26307  15.982   7.053   3.025  0.0176  0.2066  0.0292
 8104W        W26308  13.404   4.927   4.644 -0.3003 -0.1504 -0.0189
 8105W        W26309  16.511   0.250  11.166 -0.4489 -0.3886  0.1366
 8106W        W26310   5.854   5.784   2.833 -0.0600  0.0111 -0.0515
 8107W        W26311   7.067   5.248   0.121 -0.0774 -0.0419 -0.1757
 8108W        W26312   0.199   9.503  14.849 -0.0272 -0.0368  0.1781
 8109W        W26313  14.575  11.789   2.248 -0.2071 -0.2174  0.1493
 8110W        W26314  17.554   0.172   1.975 -0.2206  0.0275  0.1178
 8111W        W26315  14.408   7.839  14.873 -0.1801  0.0195  0.1805
 8112W        W26316  16.235   4.940   0.936 -0.0135  0.1628 -0.1136
 8113W        W26317  15.921  17.610   2.474  0.0835  0.1796  0.4882
 8114W        W26318   1.585  17.294  11.683 -0.1839  0.1366 -0.0113
 8115W        W26319   4.343   5.003   3.742  0.1324 -0.1551  0.0304
 8116W        W26320  11.718  14.804   0.168  0.0085 -0.2731  0.3128
 8117W        W26321  14.370   9.008  12.962 -0.0767  0.3041 -0.1582
 8118W        W26322  12.529   0.267  14.221  0.2066 -0.1092 -0.1238
 8119W        W26323   9.759   5.220   3.771  0.2834  0.2407 -0.0683
 8120W        W26324   5.048  15.522  14.042  0.1683 -0.1861  0.0394
 8121W        W26325  13.460   8.129   4.340 -0.1352  0.1221  0.0254
 8122W        W26326  14.238  15.966  10.916  0.3733 -0.0879  0.1695
 8123W        W26327  14.146   3.841  12.215  0.1716  0.1265 -0.1234
 8124W        W26328  16.135   2.795  14.690 -0.0135  0.1380  0.1629
 8125W        W26329   7.929  17.925   2.831  0.0874 -0.2160 -0.1689
 8126W        W26330  14.025  11.208   1.285 -0.0511  0.2285  0.0069
 8127W        W26331   8.401  11.043  13.097 -0.2614 -0.0717  0.2053
 8128W        W26332   4.582   7.721   0.998  0.0642 -0.1212 -0.1593
 8129W        W26333   4.527  17.198  15.464 -0.0152 -0.2246 -0.2517
 8130W        W26334   2.176  11.496   1.177 -0.1228  0.2267 -0.0654
 8131W        W26335  16.727   1.324   0.690  0.3849  0.2470  0.2724
 8132W        W26336  10.157  13.986   2.831  0.1227 -0.3590 -0.0220
 8133W        W26337  10.152   3.441   0.916 -0.1707  0.1390 -0.3096
 8134W        W26338   0.542  12.609   4.228  0.0699  0.1013 -0.0501
 8135W        W26339  14.437   9.688   3.791  0.0859 -0.2977 -0.1129
 8136W        W26340   2.649  14.422  13.203 -0.2208  0.0637 -0.1572
 8137W        W26341   5.263   6.646   4.328  0.0711 -0.1073  0.0835
 8138W        W26342  11.441  14.903  14.666  0.1189 -0.3174 -0.2220
 8139W        W26343   0.094  11.721  16.167 -0.1671 -0.1876 -0.0062
 8140W        W26344  18.040   1.212   3.823 -0.3609  0.0190 -0.3360
 8141W        W26345   0.440   0.304  12.514 -0.2814 -0.2781 -0.2509
 8142W        W26346  12.562  17.500  11.494  0.1831  0.1559 -0.2329
 8143W        W26347  10.358   0.125   3.815  0.0944  0.0041  0.3224
 8144W        W26348   1.220   6.829   5.034  0.0339  0.0538  0.1938
 8145W        W26349   4.577  14.540   3.341  0.0695  0.0142 -0.2943
 8146W        W26350   4.139   1.686   2.920 -0.1429  0.0919  0.3453
 8147W        W26351  13.825   7.333  12.014  0.1077 -0.0931 -0.0432
 8148W        W26352  13.991  17.511   1.877 -0.1848  0.2433  0.1154
 8149W        W26353  16.461  14.202  13.067  0.1384  0.0605 -0.0752
 8150W        W26354   7.564   5.653   6.063 -0.2820  0.1240  0.2537
 8151W        W26355   2.914  16.235   0.946  0.0151 -0.0235 -0.2597
 8152W        W26356  15.628   2.872  11.859  0.0105 -0.0255 -0.1168
 8153W        W26357  16.678   1.923   3.237 -0.0122 -0.0316 -0.0509
 8154W        W26358  16.287  12.714  11.980  0.0232  0.0483  0.0788
 8155W        W26359  15.760   7.576  10.870 -0.0542  0.1194  0.1959
 8156W        W26360  17.035   2.529  14.772 -0.1924  0.2158  0.0381
 8157W        W26361  13.213   1.006   1.444  0.0260  0.1115  0.0526
 8158W        W26362   0.166   4.577   1.111  0.0501  0.0485 -0.1214
 8159W        W26363  11.005   8.802   4.030  0.1284  0.0296 -0.2384
 8160W        W26364   0.962   4.603  11.527  0.0600 -0.0868 -0.0576
 8161W        W26365  17.383   9.514  12.496 -0.0478  0.0610 -0.0689
 8162W        W26366  14.825   8.125   3.462 -0.1050  0.0783  0.1032
 8163W        W26367  15.529   1.799  12.118 -0.1277 -0.2963  0.1718
 8164W        W26368  11.285  15.980   4.617 -0.1002 -0.0377 -0.1956
 8165W        W26369  15.664   1.418  15.471 -0.1010  0.2017 -0.0966
 8166W        W26370  16.701   8.126  13.689 -0.1388 -0.0519  0.1216
 8167W        W26371   5.316   1.663  15.156  0.3232  0.0380 -0.3311
 8168W        W26372  11.664  14.896   2.450  0.0070  0.2156  0.1424
 8169W        W26373   6.899  16.046   0.701  0.2135 -0.1440  0.0705
 8170W        W26374   5.650  17.459   2.899  0.2256  0.2144  0.1863
 8171W        W26375  15.473   7.456   0.541  0.3171 -0.0867 -0.0560
 8172W        W26376   3.779  14.137   4.441 -0.0656  0.0190 -0.1145
 8173W        W26377   8.007   4.645  13.422 -0.2227  0.1519  0.2296
 8174W        W26378  14.507   5.132  13.432  0.3523  0.3652 -0.0184
 8175W        W26379  17.435  11.779  12.113  0.0248 -0.1900  0.2443
 8176W        W26380   0.939  12.112  10.743 -0.0135  0.2686  0.0115
 8177W        W26381   4.241   0.284   2.807 -0.0259 -0.0156  0.1090
 8178W        W26382  10.071   4.208  13.590  0.2242 -0.2337  0.1299
 8179W        W26383  13.055   6.174   4.667 -0.0485  0.2107 -0.1843
 8180W        W26384  15.350  14.550  16.137 -0.1382 -0.0930  0.2195
 8181W        W26385   5.881  13.987   4.171 -0.0843 -0.1700 -0.0041
 8182W        W26386   7.734   1.824  14.564 -0.2124 -0.0929  0.0606
 8183W        W26387   9.860   7.069  15.538 -0.2384  0.0527 -0.1571
 8184W        W26388   9.824  16.961  14.770  0.2588  0.1477 -0.3676
 8185W        W26389  13.839  14.733  13.631  0.1173 -0.0027 -0.0439
 8186W        W26390   0.446   7.520  16.166  0.2853  0.0222 -0.2293
 8187W        W26391   4.531   8.427   3.778 -0.1564  0.0117 -0.1060
 8188W        W26392   8.749  10.942  15.439  0.0472 -0.0511 -0.1500
 8189W        W26393   7.207  15.131  15.349 -0.0581  0.0045 -0.2113
 8190W        W26394   6.977  10.119  13.613  0.3888 -0.0924  0.1677
 8191W        W26395  12.012   8.944   0.572 -0.0871 -0.1933  0.0469
 8192W        W26396   0.710   4.568   4.580  0.0933 -0.4232  0.0916
 8193W        W26397   7.075  12.767  15.930  0.0676 -0.1575 -0.0925
 8194W        W26398  12.281  11.276  11.747 -0.3585 -0.0346 -0.1099
 8195W        W26399   2.573   2.855  13.390 -0.2099 -0.0549 -0.0243
 8196W        W26400   5.682  15.302  12.062  0.2193 -0.0850 -0.1788
 8197W        W26401   1.780  11.579  15.537 -0.0507 -0.0638 -0.3001
 8198W        W26402  10.661   7.487  12.827  0.1497  0.0905  0.0527
 8199W        W26403  14.961  13.022  11.534  0.0977 -0.5837  0.2352
 8200W        W26404   6.323  15.238   0.839  0.1753  0.1159 -0.1772
 8201W        W26405  12.633  10.087  15.048  0.1044  0.1337 -0.1598
 8202W        W26406  10.189   2.677   4.579  0.3070  0.1066  0.2762
 8203W        W26407   7.775  17.075  14.742  0.0192  0.1958  0.0771
 8204W        W26408  14.234  12.319  15.487 -0.0224  0.1858 -0.1409
 8205W        W26409   1.026   9.254  14.804  0.3619 -0.0390  0.0474
 8206W        W26410   3.164   4.664  15.665 -0.0723  0.0936 -0.2829
 8207W        W26411  10.976  17.223  14.005  0.0809  0.0479  0.1537
 8208W        W26412   7.066  17.191   1.423  0.0236 -0.2240 -0.0846
 8209W        W26413   1.651   3.864   3.179  0.3220  0.3044 -0.0921
 8210W        W26414   7.405   7.688  12.841 -0.3184  0.0147 -0.1886
 8211W        W26415  15.607  12.529   2.020  0.0682 -0.2654 -0.0844
 8212W        W26416   4.489   6.522   3.728 -0.4403 -0.1339  0.0775
 8213W        W26417   1.788   4.974  12.293  0.0137  0.0208 -0.0294
 8214W        W26418   9.312   3.731   2.212 -0.1972  0.1734 -0.2435
 8215W        W26419  10.761   8.855   4.896  0.0481  0.0990  0.2867
 8216W        W26420  15.616  15.510   1.963  0.3687  0.0335 -0.1390
 8217W        W26421  14.010   7.262  15.379  0.1068 -0.1703  0.2726
 8218W        W26422   2.924  15.544   3.059 -0.0171  0.5149 -0.0806
 8219W        W26423   0.915   4.185   1.953 -0.2072  0.3251 -0.0057
 8220W        W26424  15.822   8.524  14.391  0.0462 -0.2074  0.1397
 8221W        W26425   3.261   4.066  11.491  0.0406 -0.0753  0.2327
 8222W        W26426   7.188  12.286  12.249  0.3453  0.1202  0.0032
 8223W        W26427  16.937  13.904   0.102 -0.3119  0.0698 -0.1610
 8224W        W26428  13.673   9.357   3.426 -0.0252  0.6319  0.1561
 8225W        W26429   4.670   8.202  11.704  0.1622 -0.1309  0.0142
 8226W        W26430  11.504  16.606   1.014  0.1112 -0.0833 -0.1241
 8227W        W26431  14.306  13.357  12.445  0.0269  0.0199 -0.1571
 8228W        W26432  11.908   3.583   0.769  0.2311  0.1645 -0.2171
 8229W        W26433  14.080  15.578  11.179 -0.4110  0.1116  0.0858
 8230W        W26434  11.452  17.537   1.416 -0.0274 -0.1839 -0.2298
 8231W        W26435  10.239  11.705   1.368  0.0399  0.1160 -0.1296
 8232W        W26436   6.402  12.124   3.267 -0.4156  0.0294  0.3391
 8233W        W26437   2.024  11.329   0.739 -0.2219  0.1446  0.1004
 8234W        W26438   4.064  10.041   2.107  0.2038 -0.1026  0.0181
 8235W        W26439  14.998   3.838   2.206  0.1937  0.0738  0.0063
 8236W        W26440   8.963  15.526   1.587  0.0915  0.4049 -0.2185
 8237W        W26441   4.829  14.044  12.381 -0.1341 -0.1911  0.2359
 8238W        W26442  14.898  15.653   2.362 -0.0429  0.2336  0.1247
 8239W        W26443   8.636   1.600  13.335  0.0931 -0.2356 -0.0342
 8240W        W26444  17.421  14.536   2.289 -0.1173  0.0944  0.0003
 8241W        W26445   3.279  11.901   3.238 -0.0714 -0.1713  0.0967
 8242W        W26446  10.252   1.711   1.336 -0.3836  0.1291 -0.3231
 8243W        W26447   8.766  12.278   4.606  0.0322  0.1627 -0.1196
 8244W        W26448   0.936   8.386   2.479 -0.1001  0.3261 -0.0315
 8245W        W26449   3.793  17.200   5.798  0.0534 -0.1268  0.2078
 8246W        W26450  17.134  15.895   1.174  0.1699 -0.1851  0.1460
 8247W        W26451   8.629   2.860  14.535 -0.2115  0.1952 -0.3610
 8248W        W26452   9.219  17.411  13.909  0.2629 -0.2650 -0.0835
 8249W        W26453  13.766  15.425   9.955  0.0563  0.1280  0.1812
 8250W        W26454  16.634   5.583   4.952 -0.0720 -0.2217 -0.3643
 8251W        W26455  15.534  14.540  12.210  0.2638  0.0292  0.2185
 8252W        W26456   7.140   0.129   2.733  0.0489 -0.0852 -0.3323
 8253W        W26457   6.069  11.024   0.752  0.1513 -0.3677 -0.1466
 8254W        W26458   9.949   8.900   0.459  0.2812  0.0172  0.2455
 8255W        W26459   9.098  17.544   2.834  0.3174  0.0148  0.3311
 8256W        W26460  12.150   4.218  13.966 -0.0850  0.1068 -0.0745
 8257W        W26461   4.370  10.406  12.334  0.0238 -0.0874 -0.0978
 8258W        W26462   5.866  17.696  14.126  0.1294 -0.2608  0.2540
 8259W        W26463  10.993  10.788   4.563  0.0095  0.2275 -0.0273
 8260W        W26464  11.649  11.349   4.775  0.4305  0.0673  0.1178
 8261W        W26465   6.571  13.070  15.137  0.1071 -0.1268 -0.2200
 8262W        W26466   5.551   0.237   0.565  0.0936 -0.1608 -0.5355
 8263W        W26467   7.620  15.852  13.786 -0.2134  0.0035 -0.1026
 8264W        W26468  17.194   0.909   0.262  0.0933 -0.0056 -0.1239
 8265W        W26469   6.344   9.787   0.266 -0.0854  0.1801 -0.0119
 8266W        W26470   9.087   8.185   5.077 -0.0770 -0.2734 -0.0973
 8267W        W26471   6.337   4.930   0.112  0.6412 -0.0407  0.3651
 8268W        W26472   9.219  11.030  11.556  0.1087 -0.0910 -0.1744
 8269W        W26473  16.678   3.716  13.995 -0.3286 -0.3363 -0.1156
 8270W        W26474   1.345   6.342   4.975 -0.0740 -0.0261  0.0711
 8271W        W26475  17.164   3.075   2.481  0.1437 -0.1446 -0.0959
 8272W        W26476  13.747  16.098  14.659 -0.0498 -0.1537  0.0050
 8273W        W26477  16.744   3.796   1.254  0.0225 -0.0026 -0.1333
 8274W        W26478   0.429  13.123   4.111 -0.1424 -0.0875  0.0239
 8275W        W26479   6.548  11.478   4.465 -0.1437  0.2166  0.0418
 8276W        W26480  16.458  15.515   0.023  0.1409  0.0806 -0.1825
 8277W        W26481   7.163  15.568  13.864 -0.2426 -0.1445  0.2356
 8278W        W26482  15.799  16.702   1.644 -0.0501 -0.0901 -0.1889
 8279W        W26483  12.867   2.156  11.465  0.1883 -0.1858 -0.1225
 8280W        W26484  15.183  13.829  14.204  0.2004 -0.3039  0.0746
 8281W        W26485   0.767   7.433  14.913 -0.1601  0.3109  0.2784
 8282W        W26486   2.248   1.595   2.310 -0.0116 -0.0673 -0.1953
 8283W        W26487  16.446   0.705  11.476  0.0140 -0.2020  0.2026
 8284W        W26488   3.229  10.210   2.128  0.1744 -0.1136  0.0252
 8285W        W26489  12.952   3.996   2.139  0.1893  0.0286  0.1069
 8286W        W26490   4.873   1.128   0.612  0.0173  0.1493  0.0070
 8287W        W26491  16.803  17.245  14.955  0.0054  0.1838 -0.3134
 8288W        W26492   0.418   4.496   0.009 -0.0512  0.0701 -0.2895
 8289W        W26493   1.615   5.263   5.088  0.0969  0.1641  0.1318
 8290W        W26494  15.112   4.382   4.561 -0.0493  0.3675 -0.1402
 8291W        W26495   2.283   4.118   0.684  0.1228  0.4843 -0.1481
 8292W        W26496   6.237   9.997   4.802 -0.1733 -0.2087  0.2062
 8293W        W26497   9.716   1.540  15.160  0.1004  0.0454 -0.0073
 8294W        W26498   4.846   2.638   0.468 -0.0754 -0.0122 -0.1708
 8295W        W26499  15.566   6.557   1.635 -0.4293 -0.2476 -0.0892
 8296W        W26500   5.767   5.778   4.511  0.0724  0.1384 -0.2517
 8297W        W26501   6.382   8.801  15.424 -0.2198 -0.0567 -0.2097
 8298W        W26502   8.931   1.316  13.089  0.2707 -0.1015  0.0420
 8299W        W26503   4.881   7.846  15.800 -0.0592  0.2091  0.0666
 8300W        W26504   6.631  15.173   5.352  0.0785  0.0164  0.2007
 8301W        W26505   9.907  10.541   3.046  0.1608 -0.2058 -0.1498
 8302W        W26506   1.959   1.179   2.117  0.2660  0.3111 -0.1508
 8303W        W26507   9.120   5.866  13.919 -0.2308  0.2233 -0.0658
 8304W        W26508   9.000   1.889  11.969 -0.0255 -0.1438 -0.0156
 8305W        W26509   2.213   5.387  15.098  0.0047  0.1754  0.1749
 8306W        W26510   5.295   9.175  14.443 -0.2170 -0.2327 -0.1567
 8307W        W26511  10.280  11.666  14.164  0.2197 -0.0202  0.0105
 8308W        W26512   7.116   9.379  10.798 -0.1932 -0.0162 -0.0857
 8309W        W26513  16.189  13.154   3.378 -0.1872  0.2092  0.0643
 8310W        W26514   5.370  10.714   1.850 -0.1447  0.0507 -0.0360
 8311W        W26515  11.921   1.855  14.771 -0.3278 -0.0715  0.1751
 8312W        W26516   3.328  11.858   0.301 -0.1119  0.2749  0.3082
 8313W        W26517   7.538   5.743  13.784 -0.0509  0.0445  0.1603
 8314W        W26518   7.824  12.722  13.190 -0.2824  0.0012 -0.0657
 8315W        W26519  16.800   2.416   1.596  0.1442 -0.0071  0.1588
 8316W        W26520  15.251   2.901  13.779  0.2423 -0.0560  0.2213
 8317W        W26521   8.445   8.131  15.228  0.1084 -0.3423  0.3483
 8318W        W26522   3.003   6.951  15.278 -0.0941  0.1310 -0.1596
 8319W        W26523   8.440  17.469   3.281 -0.0643  0.0302  0.0440
 8320W        W26524   7.779  13.546   1.636 -0.0229  0.0960 -0.1026
 8321W        W26525  16.878   0.126   3.488  0.0501  0.1947  0.0990
 8322W        W26526   6.581   9.664   3.898  0.2251  0.1419  0.3150
 8323W        W26527   1.713  16.823  15.582 -0.0336 -0.1138  0.3264
 8324W        W26528  14.119  13.583   0.763  0.0162 -0.0556 -0.1389
 8325W        W26529   6.606  17.789  15.984  0.1050  0.1653  0.1012
 8326W        W26530   2.256   1.390   4.056  0.1806 -0.0439 -0.2694
 8327W        W26531   5.726   6.947  15.240 -0.1685  0.3435 -0.0025
 8328W        W26532  14.215   3.438   1.225 -0.0846  0.3843 -0.1898
 8329W        W26533  16.180   6.078   0.266  0.1482 -0.1218  0.3627
 8330W        W26534   3.147   8.565  12.230 -0.1381 -0.0350 -0.3008
 8331W        W26535   8.309  16.895   2.705  0.1448 -0.0057  0.1633
 8332W        W26536   5.810   3.653   0.307  0.2323 -0.0304 -0.0004
 8333W        W26537   6.698  17.176  15.919  0.1646  0.3790  0.0699
 8334W        W26538  13.890   2.876   4.733  0.1396 -0.0455 -0.2290
 8335W        W26539   6.483  16.429   1.509 -0.0858 -0.1030  0.1296
 8336W        W26540  13.966   8.980  15.758 -0.2453 -0.1631 -0.2863
 8337W        W26541   8.158  15.430   0.644  0.4186 -0.0194  0.1358
 8338W        W26542   4.453   2.383  13.992  0.1617  0.0322  0.1685
 8339W        W26543  12.658  17.168  13.591  0.2172 -0.0499 -0.1824
 8340W        W26544   1.677   2.150   2.722 -0.2135 -0.0225 -0.1218
 8341W        W26545   3.816   9.183   3.563  0.0790 -0.1600  0.0791
 8342W        W26546   6.194   6.873   0.111  0.1520  0.5766  0.0373
 8343W        W26547   9.106   5.990   4.040 -0.2244 -0.4495  0.2357
 8344W        W26548   4.547   2.338  12.116  0.0399 -0.0701 -0.3614
 8345W        W26549  10.004  16.687  14.052 -0.0269  0.2899  0.0031
 8346W        W26550   9.674   5.484  13.469 -0.3022 -0.0048  0.5211
 8347W        W26551  16.846   5.023   1.445 -0.1798 -0.1738  0.0213
 8348W        W26552   7.566   1.415  15.642 -0.2497  0.2059  0.1476
 8349W        W26553   7.713   9.443  14.598  0.2377  0.3085  0.3243
 8350W        W26554   5.617   0.291   4.477 -0.0501  0.1064 -0.0629
 8351W        W26555   9.331   4.713   1.763  0.1246 -0.0649  0.1593
 8352W        W26556  15.997  14.565  12.419  0.0633 -0.3172  0.0027
 8353W        W26557   6.204   9.587  14.175 -0.1358  0.0158 -0.0039
 8354W        W26558   9.222   5.115   2.741 -0.0824  0.1012 -0.0483
 8355W        W26559   8.971   8.694  14.728  0.2426 -0.1203 -0.1079
 8356W        W26560  10.658  10.885  15.477  0.0216  0.2884 -0.2695
 8357W        W26561   1.463  16.867  10.978 -0.0125  0.1694 -0.0174
 8358W        W26562  10.673  12.156  15.185  0.0670 -0.0105 -0.0689
 8359W        W26563   2.658  15.533  10.799 -0.0842 -0.1890  0.2357
 8360W        W26564  15.003  17.248  12.686 -0.2155 -0.2768  0.0119
 8361W        W26565  17.782  13.636  15.206  0.3825  0.2751 -0.2627
 8362W        W26566   5.592   1.319  12.159  0.2297 -0.3573 -0.1269
 8363W        W26567  13.470   6.514  13.339 -0.0827  0.0239  0.2015
 8364W        W26568   8.202   7.411  14.936 -0.1422 -0.3187  0.0005
 8365W        W26569  17.572  16.859   3.716 -0.0091 -0.1391  0.1840
 8366W        W26570   6.002  14.491  12.450  0.0374 -0.1232  0.2987
 8367W        W26571  13.510   0.879  15.588  0.0055  0.1147 -0.2192
 8368W        W26572   0.661   1.511  13.744 -0.1223  0.0174 -0.0871
 8369W        W26573   8.792   6.339   4.145  0.0947 -0.0486  0.0580
 8370W        W26574   0.471   8.798   1.445 -0.1993  0.0508  0.0470
 8371W        W26575   1.786  14.966   4.029  0.2239 -0.0588  0.1798
 8372W        W26576  10.608  11.312   1.278  0.4476 -0.0123  0.0282
 8373W        W26577  17.724  16.520  14.651  0.2702 -0.1254 -0.4623
 8374W        W26578  14.874  15.923  14.045  0.0667 -0.1214 -0.3637
 8375W        W26579  11.838   6.994  12.408 -0.2284  0.3699 -0.2296
 8376W        W26580   2.300   8.293   3.347  0.1807  0.2517  0.2689
 8377W        W26581   3.984  15.661  15.421 -0.0143 -0.1252  0.1679
 8378W        W26582  13.446   6.126   6.087 -0.1111 -0.2068 -0.0278
 8379W        W26583   3.952   7.420  14.542 -0.2021 -0.1787 -0.2780
 8380W        W26584   3.508   2.944  13.383  0.0808 -0.2199 -0.2624
 8381W        W26585  12.093   6.494   0.016 -0.2581 -0.0343 -0.0008
 8382W        W26586   2.862   7.207  13.022  0.0332 -0.4669  0.0027
 8383W        W26587   0.043   2.395  12.665  0.0576  0.0210 -0.0472
 8384W        W26588   4.249  16.964   4.683  0.2027 -0.0996  0.0373
 8385W        W26589  10.142  14.864   0.112  0.0110  0.0190  0.0683
 8386W        W26590  14.338  11.340  12.904 -0.0019  0.1341  0.1674
 8387W        W26591   3.492  14.081  13.488 -0.2651  0.0971  0.0195
 8388W        W26592   6.992   4.439   0.316  0.1377 -0.0900 -0.0467
 8389W        W26593   5.808   3.917  13.130 -0.2585 -0.0156  0.2250
 8390W        W26594  10.743   4.143  10.935  0.0213  0.0473 -0.2963
 8391W        W26595  13.580  10.252   1.101 -0.0961  0.2834  0.0157
 8392W        W26596   8.352   4.647   0.112 -0.0450  0.0664 -0.1235
 8393W        W26597   8.884   1.526  14.188 -0.0561  0.0578 -0.0835
 8394W        W26598   9.710   7.064   2.042  0.2220 -0.2241  0.0223
 8395W        W26599   3.141  17.991   4.279  0.0892  0.0004  0.1825
 8396W        W26600  16.721  16.142   4.225  0.0599  0.1031  0.1457
 8397W        W26601   7.524   2.849  15.389 -0.2214 -0.2451  0.1441
 8398W        W26602   2.182   7.841   0.575  0.3509 -0.0583 -0.0000
 8399W        W26603   8.338  15.977  12.260 -0.1338  0.1484 -0.2829
 8400W        W26604  16.436   9.797   4.196 -0.0221  0.2205  0.2321
 8401W        W26605  12.548  12.099  12.239 -0.1032  0.1076 -0.2226
 8402W        W26606   6.807   5.539   1.147 -0.0082 -0.0052  0.0616
 8403W        W26607  17.276   7.723  14.884  0.0235 -0.2836  0.1119
 8404W        W26608   6.264  14.456  14.495  0.2915  0.5019  0.0915
 8405W        W26609  15.305  10.879   2.539 -0.0859 -0.2070 -0.0280
 8406W        W26610   7.850   8.926  13.369  0.1937  0.2452 -0.0357
 8407W        W26611  11.679   2.724  14.339  0.0143 -0.1918  0.1616
 8408W        W26612   9.500   0.376  15.954 -0.0134  0.0221 -0.0943
 8409W        W26613   3.897   3.624   1.552  0.0230  0.0071 -0.3465
 8410W        W26614   0.197   9.604  13.918 -0.0673 -0.2126  0.0123
 8411W        W26615   1.096   0.379   3.737 -0.0218  0.0559 -0.2329
 8412W        W26616  11.976  16.637   1.324  0.1887  0.0127 -0.2607
 8413W        W26617   3.284  13.222   3.509 -0.0407 -0.1114  0.1264
 8414W        W26618   9.032   2.550  13.299 -0.0784 -0.1940 -0.1642
 8415W        W26619  17.085  10.524   3.810 -0.2452  0.1662  0.2145
 8416W        W26620   5.078   7.191  12.992  0.0201 -0.3274 -0.0485
 8417W        W26621   2.974   2.041   1.235  0.4840 -0.0041  0.2952
 8418W        W26622  17.984  12.757  12.027 -0.1862  0.1158 -0.1950
 8419W        W26623  13.127  11.620   0.101  0.1695  0.1582 -0.0894
 8420W        W26624  15.961   0.846  11.595  0.0850  0.1765  0.0274
 8421W        W26625  12.605   1.240  12.718  0.0691 -0.1234 -0.0279
 8422W        W26626   2.847   0.541   1.144  0.1726  0.1879  0.0659
 8423W        W26627  13.460   1.136  12.728  0.1597 -0.1025 -0.0487
 8424W        W26628   0.174  15.666  12.590  0.1899 -0.2225 -0.1311
 8425W        W26629   3.265  11.780  12.284 -0.1294 -0.0067  0.1136
 8426W        W26630   5.782  10.199   4.698 -0.1276  0.0908 -0.1379
 8427W        W26631   9.787  16.053  11.976  0.1113  0.0068  0.3371
 8428W        W26632   3.946   9.773   2.642  0.0661  0.0849 -0.0090
 8429W        W26633   6.218  10.285  11.427 -0.3733 -0.0582  0.0381
 8430W        W26634  14.613   7.013   2.559  0.0923 -0.2037 -0.1872
 8431W        W26635  15.866  15.832   1.586  0.0228  0.2538  0.1489
 8432W        W26636   7.458   1.768  12.860  0.3183  0.1527 -0.0221
 8433W        W26637   4.657   3.115   3.906  0.3538 -0.1717 -0.1067
 8434W        W26638   5.717   6.979  11.789  0.1595  0.1766 -0.2112
 8435W        W26639   7.931   2.685   0.481 -0.1454  0.1875 -0.0306
 8436W        W26640  10.115   2.211  12.672  0.1356 -0.2178 -0.1835
 8437W        W26641   5.410  11.250  13.460 -0.0464 -0.0194  0.0219
 8438W        W26642   0.945  12.583  15.665 -0.1406 -0.1272 -0.2986
 8439W        W26643   1.294   7.364  12.222  0.0126  0.0865 -0.2485
 8440W        W26644  16.752   2.822  13.968  0.3380 -0.1680 -0.0310
 8441W        W26645   1.338   7.600  14.037  0.1234  0.1736  0.1910
 8442W        W26646   8.197   3.792  11.319 -0.2681  0.2166  0.0307
 8443W        W26647   0.138   1.161   1.203  0.2056  0.1292 -0.0479
 8444W        W26648   0.954  17.076   0.526  0.0335  0.0342 -0.1367
 8445W        W26649   6.446  14.134  15.945 -0.2459 -0.2689 -0.0130
 8446W        W26650   8.272   0.249  11.733 -0.1232 -0.0627 -0.0988
 8447W        W26651   0.021  15.009  16.152  0.0168 -0.1741 -0.0388
 8448W        W26652   9.017  10.960   1.649 -0.1800 -0.3945  0.2971
 8449W        W26653  15.586  14.203  13.597 -0.0092  0.0603  0.0302
 8450W        W26654  12.690   7.846   0.266 -0.0147 -0.2441 -0.0410
 8451W        W26655   3.081   0.320  14.153  0.0629  0.5364  0.3045
 8452W        W26656   0.265  15.616  15.092 -0.0626  0.0758  0.3231
 8453W        W26657  12.081  16.878   3.880 -0.3161  0.4118  0.0473
 8454W        W26658   0.906   7.132  12.049 -0.2596 -0.1666 -0.0156
 8455W        W26659  12.780  12.724  13.469 -0.2276 -0.1257 -0.0384
 8456W        W26660  14.492   6.398  13.482 -0.0374 -0.5042 -0.2880
 8457W        W26661   6.498  11.550   1.404 -0.1863 -0.0038  0.0224
 8458W        W26662  11.055   3.330   1.688  0.0989  0.2554 -0.0271
 8459W        W26663  10.424  17.713   1.324  0.0285  0.2092  0.0920
 8460W        W26664   8.583   3.693  12.836  0.2107  0.3247  0.0433
 8461W        W26665   4.067   8.531  13.590 -0.0352  0.0879  0.1916
 8462W        W26666  15.462  17.057   4.257  0.1302 -0.0620  0.3511
 8463W        W26667   7.919   8.490   1.162 -0.3637 -0.0748 -0.0557
 8464W        W26668   5.459  17.149  15.790  0.1221 -0.4393 -0.0808
 8465W        W26669  15.269  10.252  11.844 -0.3505 -0.0570  0.0424
 8466W        W26670   0.312   7.585  13.211  0.2310 -0.0235  0.1770
 8467W        W26671  12.466  11.262   1.979  0.3119  0.1654 -0.0738
 8468W        W26672  10.589   5.712  11.861  0.1642  0.0144 -0.1378
 8469W        W26673  14.009  11.521   2.931 -0.4348  0.2864  0.1478
 8470W        W26674  16.816   2.162  15.701 -0.2209 -0.2195  0.0182
 8471W        W26675  12.199   5.864   2.248  0.0693  0.2078  0.0695
 8472W        W26676   9.346   9.134   4.424 -0.2514 -0.1658 -0.0964
 8473W        W26677  14.875  12.796   3.817 -0.0560  0.3876  0.1376
 8474W        W26678   3.386  13.942  15.435 -0.0428  0.0121  0.4344
 8475W        W26679   4.315  10.656   1.359 -0.0310  0.1353  0.0139
 8476W        W26680   9.249   8.736  16.146  0.1420  0.2182  0.2536
 8477W        W26681  16.018  15.442  11.070 -0.0973  0.0168 -0.0083
 8478W        W26682   9.109  14.527   4.964  0.2966  0.0225 -0.0450
 8479W        W26683  15.365   8.632  13.731  0.1147  0.2492  0.0470
 8480W        W26684   0.297   8.925   3.372 -0.0406  0.0685  0.3152
 8481W        W26685  15.990  10.239   2.947 -0.2451 -0.1293  0.1404
 8482W        W26686  12.058   8.485   2.191  0.0532 -0.1786 -0.0085
 8483W        W26687   2.247  16.077  11.567 -0.1402  0.0206 -0.0594
 8484W        W26688  10.166  12.499  11.610 -0.1314 -0.2780  0.1180
 8485W        W26689  10.694   9.361   2.944  0.1840 -0.0922  0.2205
 8486W        W26690   5.124  11.746   1.171  0.0191 -0.1960  0.0397
 8487W        W26691   8.194   2.758   5.184  0.1806  0.0704  0.0934
 8488W        W26692  13.575   9.345   1.372  0.1830 -0.1922  0.2803
 8489W        W26693   0.384  11.367  11.598  0.0929  0.0517 -0.1564
 8490W        W26694   2.084   1.551  13.345  0.1890  0.3335 -0.0492
 8491W        W26695   0.055   5.972  14.828 -0.3639 -0.1339  0.0099
 8492W        W26696   0.755  10.080  14.716 -0.0453 -0.1608 -0.1114
 8493W        W26697   7.754  15.276   5.879 -0.0906  0.0811  0.2724
 8494W        W26698  14.483  17.205  14.623  0.0637  0.1269 -0.1498
 8495W        W26699  13.957   0.081  15.069  0.1965 -0.2266  0.0530
 8496W        W26700  16.186   2.151  11.774  0.1896  0.0181  0.0611
 8497W        W26701   0.234   5.652  10.700 -0.0452  0.2841 -0.0226
 8498W        W26702   2.291   4.738   3.180 -0.1444 -0.1181 -0.1490
 8499W        W26703  13.977  13.891   1.754  0.1994 -0.1177 -0.1171
 8500W        W26704   2.617  11.047  15.742  0.0080 -0.0436 -0.0179
 8501W        W26705   5.807  13.925  11.560 -0.2050 -0.1079 -0.1781
 8502W        W26706   6.817  11.446  14.561 -0.0054 -0.4549 -0.2545
 8503W        W26707   5.737   2.490  12.838 -0.0998  0.1022  0.0439
 8504W        W26708   9.081   6.092   2.972  0.0178  0.2741  0.1558
 8505W        W26709   9.082   6.637  12.099 -0.0956 -0.1009  0.1662
 8506W        W26710   5.980  17.882   5.153 -0.1550  0.0457  0.0806
 8507W        W26711  17.764  13.508   0.050  0.0996 -0.0475 -0.1817
 8508W        W26712  10.753  17.155  15.760  0.1300 -0.1136 -0.0139
 8509W        W26713   6.049   2.644   3.109 -0.1026 -0.0681  0.1123
 8510W        W26714   3.057  10.720  10.990  0.0460  0.4016  0.0839
 8511W        W26715  15.028  16.259  11.476  0.1509 -0.1587  0.1604
 8512W        W26716  11.750   6.496  15.765 -0.1029 -0.0793 -0.2457
 8513W        W26717   8.606  10.609   4.702  0.0026  0.3530  0.1778
 8514W        W26718   5.196   2.063  13.549 -0.2113  0.2381 -0.1591
 8515W        W26719   6.264   4.064   1.319  0.2079 -0.2963  0.0016
 8516W        W26720  17.669  10.822   2.962  0.0948 -0.0387  0.2130
 8517W        W26721   3.460   5.777   4.409 -0.0477 -0.1581  0.1826
 8518W        W26722  14.115   4.161  11.334  0.0996 -0.0031  0.0487
 8519W        W26723  11.995   6.796  15.488 -0.1388 -0.0845 -0.0627
 8520W        W26724   0.641   8.486   1.129  0.0747 -0.1649  0.0953
 8521W        W26725  15.381  14.145  11.894 -0.2363 -0.0163 -0.0880
 8522W        W26726   1.993  14.147   3.824  0.0274 -0.2342 -0.0095
 8523W        W26727  11.298   5.378  14.484  0.1352  0.0615 -0.0922
 8524W        W26728   0.359  14.693  13.706 -0.6029 -0.0468 -0.0638
 8525W        W26729   8.389   3.695   2.788  0.0505  0.0772 -0.1913
 8526W        W26730   7.190  12.680  15.461  0.2438 -0.0836 -0.1164
 8527W        W26731  16.668  14.516  15.194  0.0526 -0.0096  0.0400
 8528W        W26732  16.018   4.176   3.173 -0.2127  0.1513 -0.1597
 8529W        W26733  12.497   3.285  11.658 -0.0531 -0.0405 -0.2340
 8530W        W26734  12.812   8.451  11.621 -0.2911  0.1174 -0.2750
 8531W        W26735   8.251   1.446   0.211  0.1421 -0.1239 -0.0625
 8532W        W26736  14.916  14.104  13.383  0.1176 -0.0665 -0.0914
 8533W        W26737   5.376   5.698   2.758  0.0117  0.1912 -0.0725
 8534W        W26738   8.206   1.386  13.120  0.1071  0.0176 -0.0965
 8535W        W26739  10.227  14.443   2.634  0.1699 -0.1099 -0.1076
 8536W        W26740  11.874   0.357  14.852 -0.0650  0.1104 -0.3088
 8537W        W26741   8.431  15.650  12.988  0.0191 -0.0553 -0.0227
 8538W        W26742  11.105   0.682   3.993  0.0300  0.1264 -0.2176
 8539W        W26743   4.508   7.671  11.878  0.1217 -0.1040  0.0572
 8540W        W26744   7.020   6.018  15.075  0.2456  0.0879 -0.0749
 8541W        W26745  14.261   5.268  12.572 -0.0962 -0.2273 -0.3586
 8542W        W26746   9.840   1.794  13.475  0.1833 -0.0680 -0.1026
 8543W        W26747   3.268   2.421   0.360  0.0451  0.2264 -0.3303
 8544W        W26748   0.720   1.383   1.852  0.1901 -0.1685  0.0869
 8545W        W26749  12.215   1.736   2.029 -0.2324  0.2674 -0.2462
 8546W        W26750   1.936   4.570   4.700  0.0741  0.1135 -0.1574
 8547W        W26751   1.205  10.583   3.023  0.0653  0.4963  0.2759
 8548W        W26752  13.366   6.849  11.661  0.1180 -0.2271 -0.1026
 8549W        W26753  10.745  15.324   0.191 -0.1115  0.0548 -0.1679
 8550W        W26754   2.881   2.976  15.504  0.0960 -0.1599 -0.0073
 8551W        W26755   6.473  13.172   3.115  0.0802  0.0310 -0.0590
 8552W        W26756  13.305   6.619   3.252 -0.0665  0.0402  0.1240
 8553W        W26757  17.626   3.227  11.802  0.2251 -0.0211  0.0494
 8554W        W26758  15.706  11.556  12.746  0.1366 -0.1136 -0.1360
 8555W        W26759   2.855   7.651   1.187 -0.0899 -0.4446 -0.0664
 8556W        W26760   8.086   0.512  13.614 -0.1033 -0.0360 -0.0412
 8557W        W26761  11.808   9.011  14.296  0.1925  0.1148  0.4412
 8558W        W26762   5.481  14.339   4.255 -0.1002  0.0076 -0.3033
 8559W        W26763   1.808  15.991   0.858  0.0417  0.0526 -0.0335
 8560W        W26764  17.295   7.245  12.498  0.3795  0.0901  0.0986
 8561W        W26765   6.090   7.029  13.966 -0.0183  0.1328  0.3036
 8562W        W26766  10.034  16.570  14.529  0.0418 -0.1792  0.3662
 8563W        W26767  16.671   8.820  15.722 -0.4203  0.1076 -0.1264
 8564W        W26768  12.135  15.935   4.568  0.3158  0.1832  0.0270
 8565W        W26769   2.572   9.063   3.883  0.3535  0.1112  0.0080
 8566W        W26770  13.849  17.500   2.809  0.1222 -0.1888  0.0884
 8567W        W26771   7.584   6.375  12.511  0.1034  0.0254 -0.0964
 8568W        W26772   0.334   5.488   2.995  0.3189 -0.1012  0.0250
 8569W        W26773   3.200   3.402   3.613  0.1763  0.1057 -0.1594
 8570W        W26774   0.353   8.335  13.466  0.0363  0.2553  0.0308
 8571W        W26775   0.350  16.131  11.202 -0.1304  0.1564 -0.0665
 8572W        W26776   4.459  15.790  13.454 -0.1229 -0.3158 -0.1672
 8573W        W26777   6.283   5.106  13.746  0.0958 -0.0693 -0.0679
 8574W        W26778   3.195   5.392   4.364 -0.3032 -0.0761 -0.0078
 8575W        W26779   6.677  10.911  12.964 -0.2482  0.2183 -0.2653
 8576W        W26780   9.555   2.377  13.860  0.1183 -0.0796  0.0698
 8577W        W26781   1.244  17.658  15.171  0.0506 -0.1481  0.4157
 8578W        W26782   4.434  17.414  14.904  0.1511 -0.0372 -0.1200
 8579W        W26783   6.443   1.407  14.947  0.3647  0.0794  0.1724
 8580W        W26784   1.488   3.440   2.969 -0.0408 -0.1938 -0.1430
 8581W        W26785  12.844   2.133   2.679  0.2069  0.2186  0.3511
 8582W        W26786   4.474  14.872   2.373  0.0070 -0.4871 -0.0663
 8583W        W26787   7.583   5.905   1.007  0.1263 -0.0136 -0.1487
 8584W        W26788  16.732  14.232   4.726 -0.0657  0.0929  0.1305
 8585W        W26789  16.857   6.752   3.350  0.0003  0.0007 -0.5401
 8586W        W26790  16.810   0.530   4.367 -0.0744  0.2200 -0.1253
 8587W        W26791  14.213   2.081   1.783 -0.1030 -0.1477 -0.0331
 8588W        W26792   4.799  17.928  12.371  0.1158 -0.1119  0.0643
 8589W        W26793   5.962   1.727  15.845 -0.0960 -0.1269 -0.1473
 8590W        W26794   3.179  12.400  14.305 -0.1347 -0.1130 -0.0414
 8591W        W26795   2.006   7.088   1.733 -0.2247  0.2801 -0.1975
 8592W        W26796   1.304   9.558   0.109  0.0996  0.0735  0.1533
 8593W        W26797   8.618  12.729   4.484 -0.0656 -0.0553  0.0092
 8594W        W26798  16.193  13.742   2.150 -0.0419 -0.2190  0.1583
 8595W        W26799   2.503   7.047  15.196 -0.2301  0.1224 -0.5529
 8596W        W26800  12.269   9.656   1.504  0.2599  0.1319 -0.0273
 8597W        W26801  12.410   9.865  12.966 -0.1335 -0.2101  0.0527
 8598W        W26802   7.251   0.113  12.702 -0.0674 -0.2060 -0.0671
 8599W        W26803  13.444   3.886  13.790 -0.2114  0.0008 -0.0025
 8600W        W26804   8.224   8.502   1.587  0.0232 -0.1303  0.0597
 8601W        W26805  16.819  12.230  12.687  0.4165 -0.0196 -0.0980
 8602W        W26806   0.975  11.350  15.853  0.0411 -0.0097  0.2412
 8603W        W26807  13.141   7.063   3.773 -0.0407  0.0834 -0.2166
 8604W        W26808   5.151   2.778  16.116 -0.0512  0.0194 -0.0277
 8605W        W26809   3.795  13.995   3.375 -0.0650  0.0593 -0.2671
 8606W        W26810   9.775   4.937  13.078 -0.1052  0.1463 -0.0923
 8607W        W26811   7.216  14.800  13.159 -0.3334 -0.0294  0.2682
 8608W        W26812   1.703  16.977  13.761 -0.2384 -0.0559 -0.0729
 8609W        W26813   3.884   3.462   2.306 -0.4117  0.0430  0.0877
 8610W        W26814   0.389   8.243   4.300 -0.0359  0.0211  0.1217
 8611W        W26815   0.836   9.494   1.205 -0.1121 -0.1325 -0.1540
 8612W        W26816  17.866  14.780   2.304 -0.1287  0.0808  0.0151
 8613W        W26817   4.185  12.948  15.445 -0.0520  0.1831 -0.1740
 8614W        W26818   1.245  17.124   1.003 -0.0585 -0.0284 -0.0917
 8615W        W26819  13.898   4.541   1.108  0.0275 -0.1512  0.3186
 8616W        W26820  10.897   5.982  13.434  0.1369  0.2310 -0.2707
 8617W        W26821   7.042   7.297  12.979  0.1527  0.0702  0.0227
 8618W        W26822  12.712   8.313  12.823  0.1333  0.0941  0.0563
 8619W        W26823  16.849  16.012  15.940  0.1444 -0.1797  0.0819
 8620W        W26824   1.825  14.109  12.962 -0.1811  0.1792  0.0533
 8621W        W26825   2.752   7.741  12.092 -0.1440 -0.1838  0.0027
 8622W        W26826   6.691   9.207  15.483 -0.0576 -0.0325 -0.2736
 8623W        W26827   2.478   7.496   2.945 -0.2964  0.2725 -0.0975
 8624W        W26828   5.740  14.683   1.396 -0.0307 -0.0240 -0.0224
 8625W        W26829   4.451   1.092  15.297  0.1198 -0.1942 -0.2076
 8626W        W26830  14.868   1.297  15.065 -0.1146 -0.0595  0.0914
 8627W        W26831   3.075   3.225  15.062 -0.2984 -0.1893 -0.1904
 8628W        W26832  16.460  16.414  14.844  0.0177  0.2107  0.0156
 8629W        W26833   7.782   0.939  12.270 -0.3459  0.0289 -0.0514
 8630W        W26834  14.041  15.942   1.267  0.2736  0.0861  0.2086
 8631W        W26835   1.996  11.046  14.136  0.0465 -0.3344  0.1068
 8632W        W26836  18.009  16.866  14.503 -0.0024 -0.1001 -0.1081
 8633W        W26837   5.654   1.910  13.924  0.1890 -0.0307  0.1273
 8634W        W26838  17.416  17.891   0.500 -0.0382 -0.1612 -0.2739
 8635W        W26839  11.918   5.528   3.010 -0.0108  0.0339 -0.4705
 8636W        W26840   8.771  10.602   3.806  0.0179 -0.0851 -0.2136
 8637W        W26841  14.183  11.680   1.432  0.2397  0.2427  0.0264
 8638W        W26842   7.574   6.548   4.574 -0.0246 -0.0076 -0.1848
 8639W        W26843  10.662   7.004   0.430  0.0505  0.2466  0.1241
 8640W        W26844   1.990   5.849  15.368 -0.2927  0.3023  0.0959
 8641W        W26845   0.368   5.164   3.378  0.0942  0.1910  0.0305
 8642W        W26846   2.956   0.142   2.028  0.0369 -0.2212 -0.1825
 8643W        W26847  11.242   6.550   3.672  0.1761  0.2961  0.0357
 8644W        W26848  11.217   4.991  12.217 -0.0853  0.1481  0.0179
 8645W        W26849   3.046   0.450   1.620 -0.0328  0.0336  0.3985
 8646W        W26850   8.982   6.902   4.132  0.1535  0.0847  0.1495
 8647W        W26851  13.716   5.925  12.504  0.1691  0.2871  0.0395
 8648W        W26852   6.508   9.508  14.579 -0.0224  0.1313  0.1488
 8649W        W26853   1.969   8.437  12.211  0.2114  0.0644 -0.1621
 8650W        W26854  10.561   9.774   4.991 -0.2448  0.4121 -0.0688
 8651W        W26855  13.561   0.009  14.677 -0.0595  0.2302 -0.2339
 8652W        W26856   0.935   2.938  13.312  0.0699  0.0453 -0.2600
 8653W        W26857   1.815  12.243   3.535 -0.1476  0.0054  0.4758
 8654W        W26858  14.049   9.889  13.866  0.1359 -0.1073  0.1227
 8655W        W26859  10.289  14.119  10.872 -0.0568 -0.2632 -0.0337
 8656W        W26860   1.297   2.325  11.647  0.2576 -0.4286 -0.0020
 8657W        W26861  11.919   7.958  12.925  0.1269  0.3096  0.1133
 8658W        W26862   9.408  11.861  13.082  0.1320  0.2285  0.0212
 8659W        W26863  10.075   9.648   4.218 -0.1126 -0.0590  0.1692
 8660W        W26864   8.619   7.040   1.172  0.0469  0.0037  0.2794
 8661W        W26865   9.161  11.408   3.271 -0.2385  0.0414 -0.0225
 8662W        W26866   9.040  13.093   2.360  0.3293  0.1574  0.2488
 8663W        W26867  12.552  17.335  12.666 -0.1078  0.0788  0.2862
 8664W        W26868  17.802  11.240  15.566 -0.1627  0.2279  0.0453
 8665W        W26869  15.627  16.437  12.052  0.0412  0.1088 -0.0259
 8666W        W26870  10.773  13.902   4.138  0.2381 -0.0048  0.1212
 8667W        W26871  15.862   0.833   0.011  0.1852 -0.0094  0.0264
 8668W        W26872   7.705   9.673  13.332 -0.0671 -0.2898  0.0091
 8669W        W26873   8.842  17.862  14.768 -0.2822 -0.0767  0.1499
 8670W        W26874   2.170   6.757  12.940 -0.0001  0.0729 -0.1553
 8671W        W26875   8.623   7.065   5.054  0.0102 -0.3571  0.0884
 8672W        W26876   9.605   2.857   0.279 -0.0384  0.0130  0.0057
 8673W        W26877  11.672   5.098   2.677 -0.1785  0.0564  0.1015
 8674W        W26878   9.289   5.196   1.346  0.1037 -0.1842 -0.2687
 8675W        W26879  13.861   0.811   0.562 -0.0079  0.2418  0.0366
 8676W        W26880  17.602   8.890   4.594  0.1640  0.0182 -0.1976
 8677W        W26881   5.965  14.692  11.403  0.0422 -0.0797 -0.0238
 8678W        W26882  12.584   7.591  15.079  0.0574  0.1749 -0.1241
 8679W        W26883  14.710   1.608  11.437  0.0196  0.1897 -0.2769
 8680W        W26884   2.082   4.897  12.687 -0.1500  0.1534 -0.0221
 8681W        W26885   6.001   8.513   0.339  0.1771  0.2847  0.3586
 8682W        W26886  13.564   6.157   2.694 -0.0285 -0.0303  0.1704
 8683W        W26887   0.607  17.637  13.223 -0.1601 -0.2613  0.2845
 8684W        W26888   1.705   7.856  12.237  0.2133 -0.2764  0.0133
 8685W        W26889  14.583  16.836   0.467 -0.0610 -0.0878  0.0222
 8686W        W26890  17.005   6.417   4.267 -0.1137 -0.0895 -0.0873
 8687W        W26891  17.854   6.133  15.925  0.1828  0.0757  0.2028
 8688W        W26892   5.514   1.494   5.536 -0.0424 -0.0184  0.1749
 8689W        W26893   5.548  16.388   1.261 -0.1502  0.1380 -0.0725
 8690W        W26894   0.715   7.412   1.943 -0.4594 -0.0686  0.0677
 8691W        W26895  10.500   6.030   1.159 -0.0392  0.2410  0.1518
 8692W        W26896  15.339   9.791   2.027 -0.1673  0.2982  0.1069
 8693W        W26897  14.125  16.393  11.256  0.0527  0.0649 -0.0203
 8694W        W26898  17.128   7.320   4.998 -0.0954 -0.0695  0.0614
 8695W        W26899  15.015   5.675  12.691  0.0543  0.1900 -0.0780
 8696W        W26900   5.109   0.041  11.922 -0.0326 -0.0593 -0.0802
 8697W        W26901  14.900   6.238   1.488  0.1206 -0.0911 -0.0804
 8698W        W26902   9.364  17.878   3.124 -0.0005 -0.0730 -0.0802
 8699W        W26903   3.029   0.448  11.313 -0.1095  0.0610  0.2091
 8700W        W26904   1.277  13.110   4.539 -0.2107  0.0501  0.0338
 8701W        W26905   3.699  17.441  11.290 -0.0401  0.3438  0.0942
 8702W        W26906  15.707  15.015  14.617  0.3300  0.0956 -0.1676
 8703W        W26907  13.668   5.301  11.146 -0.1182  0.0099  0.1239
 8704W        W26908   9.594   2.947  12.446  0.3413  0.1329 -0.4216
 8705W        W26909   9.619   4.301  14.906  0.2235  0.1773  0.2321
 8706W        W26910   6.600   2.668   1.462  0.2164  0.4307 -0.0719
 8707W        W26911   7.156  17.005   2.823  0.0736 -0.1066 -0.2427
 8708W        W26912   6.681  14.497   3.117 -0.1296  0.0507  0.1618
 8709W        W26913   8.048   3.612  14.830  0.0608 -0.2857 -0.2410
 8710W        W26914   4.515   2.867  13.605 -0.0915 -0.0196  0.0992
 8711W        W26915   9.036   7.991   6.084 -0.1516 -0.4198 -0.0810
 8712W        W26916  11.809  15.515  14.087  0.1080  0.1253  0.1077
 8713W        W26917  15.789   4.017  12.534  0.0044  0.1483  0.0779
 8714W        W26918   7.325  15.885  14.231  0.0118 -0.1835  0.3429
 8715W        W26919  18.022  17.685  12.659 -0.0282  0.0353 -0.1469
 8716W        W26920   8.513   8.093   4.149  0.0934 -0.0943  0.0526
 8717W        W26921  13.086   6.443   0.394 -0.1118  0.0091 -0.2846
 8718W        W26922   3.877  10.829   2.892 -0.1731  0.0801 -0.0834
 8719W        W26923  11.474   8.660  14.347 -0.0985  0.0330  0.1118
 8720W        W26924  14.204   5.125  10.843 -0.2142  0.1455 -0.0382
 8721W        W26925   4.117   8.857  12.514  0.1091 -0.1444 -0.0650
 8722W        W26926   2.298  11.660   4.050 -0.3864 -0.1725 -0.1660
 8723W        W26927   1.086   9.982  12.458  0.0809 -0.4421  0.1077
 8724W        W26928  15.203   3.922   2.964  0.0562  0.1235 -0.0590
 8725W        W26929   1.384   9.225   0.543 -0.0502  0.0778 -0.0384
 8726W        W26930  10.973  13.847   4.647  0.0358  0.2563 -0.0955
 8727W        W26931   0.539   4.904  11.692 -0.2338 -0.1452 -0.1129
 8728W        W26932   9.877   3.309   3.318  0.0466 -0.0554  0.0804
 8729W        W26933  14.530  17.301  15.233 -0.1184  0.0572  0.3071
 8730W        W26934  17.489   6.378   0.773 -0.1792  0.0346  0.0522
 8731W        W26935  15.462  10.098   3.669 -0.2748  0.2831 -0.2760
 8732W        W26936   3.264  16.377   3.364  0.1206 -0.2008 -0.0824
 8733W        W26937   4.455   7.414  16.002 -0.2119  0.1646  0.2203
 8734W        W26938  13.374   2.464  12.422  0.0376  0.0327  0.2355
 8735W        W26939   8.453   6.341  14.951 -0.3794  0.1597 -0.1043
 8736W        W26940   5.441  15.811  11.401  0.0855  0.3106  0.2249
 8737W        W26941  11.673   2.531   2.179  0.0180  0.1190  0.3009
 8738W        W26942   8.059   5.314   1.214 -0.0911 -0.0988  0.1152
 8739W        W26943  15.729  13.777  11.960 -0.1621 -0.1085 -0.0709
 8740W        W26944   5.847  15.785  13.434  0.1420 -0.2537 -0.0381
 8741W        W26945  16.420   4.315  12.121  0.1539 -0.1276  0.1117
 8742W        W26946   6.730  16.925   1.682 -0.1091 -0.1046 -0.2293
 8743W        W26947   3.249  15.541   1.766 -0.4025 -0.0071 -0.1551
 8744W        W26948   4.243  17.609  15.693  0.0627 -0.1491 -0.3260
 8745W        W26949   5.188  12.025  13.984  0.3335  0.0667  0.0890
 8746W        W26950   6.232  16.908   2.489 -0.1716  0.0151 -0.3504
 8747W        W26951  12.247   0.264   4.958 -0.1355 -0.0425 -0.0748
 8748W        W26952   6.715   9.819  14.229  0.1130  0.1189 -0.1619
 8749W        W26953   7.264   9.669  12.404 -0.2744 -0.0507  0.0352
 8750W        W26954  14.377   6.788   0.388 -0.2445  0.3882 -0.2098
 8751W        W26955  10.433  13.272   3.276 -0.4159  0.0408 -0.1096
 8752W        W26956   0.211  11.808   0.590 -0.1003 -0.2146 -0.0855
 8753W        W26957   3.399   1.752   1.932 -0.0729 -0.1424  0.1414
 8754W        W26958   8.673  16.953   2.326  0.3409 -0.2929  0.0011
 8755W        W26959  17.049   8.278   5.993  0.3242 -0.0779  0.0615
 8756W        W26960  17.839  13.768  12.082  0.0038 -0.2069 -0.1035
 8757W        W26961   2.519  16.787   3.994  0.1184 -0.2934  0.1252
 8758W        W26962   5.251   6.607   1.394  0.0998 -0.0725 -0.0429
 8759W        W26963  17.725  12.440   1.327  0.2500 -0.1681 -0.0696
 8760W        W26964  16.449   7.101   3.485  0.0232  0.0870  0.1131
 8761W        W26965   7.932  15.525   2.004  0.1577  0.0124  0.2909
 8762W        W26966  11.225  10.553   2.526  0.2468 -0.1860 -0.0268
 8763W        W26967   9.576   3.682  14.792  0.0989 -0.0062  0.0470
 8764W        W26968  10.841   9.843  13.586  0.1050 -0.0004 -0.0357
 8765W        W26969   0.638  17.463  12.652 -0.1874  0.0685 -0.0524
 8766W        W26970  12.276  14.933   3.502  0.2227  0.2619 -0.0123
 8767W        W26971   3.947   2.585   4.085 -0.0759 -0.0719 -0.1738
 8768W        W26972   2.574  15.208  12.264 -0.0130 -0.0751 -0.0366
 8769W        W26973   9.506  13.729  14.593  0.1462  0.0172 -0.2631
 8770W        W26974  10.900  11.216  14.893  0.0448  0.0998 -0.1662
 8771W        W26975   3.959  10.969   4.585  0.1614 -0.1394 -0.2067
 8772W        W26976  12.217   5.249  14.047 -0.1390 -0.1672  0.5211
 8773W        W26977   2.505   9.415  12.035  0.0996  0.1860  0.2510
 8774W        W26978   1.864  13.121   2.303  0.0809  0.2388 -0.5263
 8775W        W26979  10.666  10.794   3.941 -0.0280 -0.1893 -0.1510
 8776W        W26980   3.945   7.548  15.892 -0.1537  0.3997  0.3379
 8777W        W26981  16.400   0.917  11.974 -0.1399  0.0878  0.1779
 8778W        W26982   7.604  10.025   0.386 -0.0288 -0.0525  0.2728
 8779W        W26983   5.190  13.572   3.649  0.0042 -0.2881  0.2124
 8780W        W26984  14.321   5.726  15.774  0.3395 -0.0038 -0.0701
 8781W        W26985   6.304  16.684  13.398  0.1510 -0.1890  0.3076
 8782W        W26986  16.976   9.636  11.760 -0.0308  0.1936 -0.0525
 8783W        W26987   3.312   2.531  12.389 -0.1482  0.1230  0.2082
 8784W        W26988   2.888  13.017   3.816  0.2056  0.0105 -0.2145
 8785W        W26989  15.334  10.400   5.045  0.0579 -0.2393  0.0525
 8786W        W26990  18.023  12.843  12.494  0.3059 -0.1709 -0.0705
 8787W        W26991  16.465   1.573  11.809 -0.1505  0.0989  0.0565
 8788W        W26992  14.771   7.726  13.225 -0.0395  0.2815  0.2805
 8789W        W26993   6.339   9.956   2.635 -0.0797  0.0674 -0.0643
 8790W        W26994   8.342   0.734  12.996  0.1196 -0.0643  0.0001
 8791W        W26995  11.219  13.690  11.107 -0.1503  0.0758  0.0614
 8792W        W26996  15.569  17.207  15.640  0.0072  0.0697  0.0147
 8793W        W26997  13.408  11.800   2.410  0.2207 -0.2217 -0.0516
 8794W        W26998   1.483  17.921  13.027  0.0585 -0.4477  0.3007
 8795W        W26999   5.246   6.137   3.908 -0.2140 -0.1159  0.1237
 8796W        W27000   2.608   5.900  11.554  0.3519 -0.1096 -0.0442
 8797W        W27001   5.904   0.243  15.187  0.1747 -0.1863  0.0781
 8798W        W27002  15.431  14.143   0.709 -0.1809 -0.1554  0.0739
 8799W        W27003  11.701  14.602   1.454  0.2207  0.1169  0.1835
 8800W        W27004   0.777  17.831  14.470  0.3480  0.1437 -0.0184
 8801W        W27005   8.045   0.093   4.950 -0.1376 -0.2001 -0.2212
 8802W        W27006  10.412  14.213   4.341  0.1916 -0.1920 -0.1753
 8803W        W27007   9.596  17.284  12.465  0.0977 -0.0714  0.0417
 8804W        W27008   0.151   6.589  12.005  0.0641  0.2107  0.0632
 8805W        W27009   8.365  11.898  15.855 -0.1334  0.0210 -0.0940
 8806W        W27010   4.250  13.284  12.140  0.1878 -0.0340  0.0433
 8807W        W27011   0.703   5.412   3.721 -0.1197 -0.1234 -0.3613
 8808W        W27012   2.335   1.432   0.810 -0.2736  0.0745 -0.0859
 8809W        W27013   9.535   5.281   5.046  0.0871 -0.1670  0.0893
 8810W        W27014  16.691  14.596  14.608  0.1017 -0.1805 -0.0886
 8811W        W27015   4.958   2.161   1.299  0.0878  0.1624  0.0359
 8812W        W27016   2.033   0.545   1.039 -0.0305 -0.0312 -0.0185
 8813W        W27017   7.796   9.945  14.823 -0.1488 -0.2443  0.1483
 8814W        W27018   2.947   2.040   4.053  0.0392  0.0499 -0.0771
 8815W        W27019   3.165   5.681   4.812  0.2526  0.2396  0.0554
 8816W        W27020   8.722  11.003   0.722 -0.0332  0.1242  0.1138
 8817W        W27021   1.950  11.194   3.444 -0.1946  0.2270  0.1815
 8818W        W27022   1.166   7.997   5.872  0.0241  0.0287 -0.3723
 8819W        W27023   9.258  10.310   5.296  0.4352  0.0185 -0.0635
 8820W        W27024   3.644  13.635   6.083 -0.0313  0.2385 -0.3160
 8821W        W27025  11.582   3.344   1.909 -0.1893 -0.1293 -0.2512
 8822W        W27026   7.293   5.176   2.837  0.0337  0.3350 -0.0608
 8823W        W27027  10.428  14.441   0.266 -0.2076 -0.2038 -0.0464
 8824W        W27028  10.739   1.487   0.373 -0.0242 -0.3530  0.3544
 8825W        W27029   7.555  12.899  10.604  0.2045  0.3413  0.0193
 8826W        W27030   8.254   7.374   5.064  0.2937 -0.0794 -0.3049
 8827W        W27031   7.092  16.272   3.214  0.0274  0.0440  0.2594
 8828W        W27032   6.534   6.168  14.866  0.4192 -0.1015  0.1347
 8829W        W27033   6.565   9.446  10.780 -0.0681  0.0239  0.1760
 8830W        W27034  14.963  11.346   0.641  0.2040 -0.1229  0.1420
 8831W        W27035   3.908   1.672  14.349 -0.0512  0.0243 -0.1576
 8832W        W27036  15.161   4.632  14.116  0.2704 -0.0104 -0.1807
 8833W        W27037  17.486   9.473   4.502 -0.1764  0.0488 -0.0680
 8834W        W27038   9.347   0.185   1.196 -0.0022 -0.2199  0.0982
 8835W        W27039   5.209   5.763   1.218 -0.0952  0.0272 -0.2313
 8836W        W27040   0.950   3.744   5.084  0.0619 -0.0287  0.0049
 8837W        W27041   5.670   7.338   2.220 -0.1558  0.0448 -0.0564
 8838W        W27042  16.463   6.063   3.700 -0.0736 -0.1312 -0.2031
 8839W        W27043   8.361  14.614   0.974 -0.0569 -0.0297  0.1578
 8840W        W27044  12.093  11.534  13.633  0.1547 -0.0213  0.1000
 8841W        W27045   4.442  16.183   3.695 -0.0814  0.0833  0.0359
 8842W        W27046  10.196   9.653   5.971  0.1345 -0.0660 -0.1094
 8843W        W27047   8.208   8.467   2.502 -0.0278 -0.1447 -0.0418
 8844W        W27048  13.810   0.066  11.658 -0.0270  0.2141  0.1572
 8845W        W27049   4.663  10.089   3.119  0.1151 -0.1040  0.1352
 8846W        W27050   8.798   9.233  11.423 -0.0967  0.1047  0.1725
 8847W        W27051   9.872   6.182  15.688  0.0325 -0.0228 -0.2411
 8848W        W27052  11.535   7.406  12.544 -0.3472 -0.1583  0.2136
 8849W        W27053  16.119   0.204   1.728 -0.0833 -0.1329  0.0881
 8850W        W27054  13.771  15.194   4.413 -0.2403 -0.0297  0.1435
 8851W        W27055  10.646   0.109   1.074  0.3203 -0.2706  0.1469
 8852W        W27056   8.872   9.615   1.567 -0.1305  0.0954  0.0257
 8853W        W27057   3.455   5.711  14.742  0.1293  0.0856  0.1166
 8854W        W27058  13.621   1.261   2.795  0.4913 -0.0169  0.0293
 8855W        W27059  11.321   1.289  15.815  0.0552  0.0103 -0.0209
 8856W        W27060  15.967   2.169   2.237  0.1790 -0.1593 -0.2131
 8857W        W27061   2.963  12.301   3.510 -0.3798  0.0248  0.0294
 8858W        W27062  13.116   0.917  13.734 -0.0057 -0.2002  0.2240
 8859W        W27063   2.477   9.290  15.238 -0.2209 -0.3786 -0.4857
 8860W        W27064   1.569   1.391   2.337 -0.2127 -0.1016  0.0919
 8861W        W27065   2.175   9.394   4.229 -0.1926  0.0970  0.0239
 8862W        W27066   5.188   3.276   3.531  0.2579 -0.0978  0.0568
 8863W        W27067  13.366  17.114  16.104 -0.2159  0.0645  0.3185
 8864W        W27068  11.734   8.576   3.484  0.0538 -0.3211  0.1439
 8865W        W27069  10.247  16.143  14.745  0.1945  0.1344 -0.0925
 8866W        W27070  10.299   6.707   1.718 -0.4170 -0.1528 -0.2206
 8867W        W27071   5.549  11.641  13.848 -0.0844 -0.1178  0.3038
 8868W        W27072  10.440   2.308  13.063  0.1442 -0.4609 -0.0088
 8869W        W27073  14.873  15.021   1.754  0.3747 -0.0488  0.1686
 8870W        W27074  15.789  16.189  13.072 -0.0517 -0.0060 -0.2444
 8871W        W27075   3.227   6.605  13.586  0.1308  0.0956  0.1406
 8872W        W27076   9.259  15.664  11.967  0.3514  0.0451 -0.1934
 8873W        W27077   3.539   5.250   0.356  0.0752  0.2150  0.0746
 8874W        W27078   5.406  17.276  12.827  0.0005 -0.2021  0.0231
 8875W        W27079   1.758   8.290  15.807  0.0028  0.3435  0.3166
 8876W        W27080  12.752   3.361   1.889 -0.0843 -0.1981 -0.0626
 8877W        W27081   5.253   4.557  11.653  0.1297 -0.1125  0.0093
 8878W        W27082   7.859  15.444   4.932 -0.1874 -0.0570 -0.0064
 8879W        W27083  10.296  14.918  13.635 -0.1529  0.0282 -0.1668
 8880W        W27084   2.603   5.268   4.666  0.0740 -0.2778  0.0128
 8881W        W27085  16.045   5.192   5.204 -0.0310 -0.2690 -0.1258
 8882W        W27086  11.975  11.253  12.145 -0.0188  0.1073  0.1137
 8883W        W27087   9.496  15.908  11.605 -0.4625 -0.3994 -0.1745
 8884W        W27088  15.003  13.861  12.970  0.0132  0.0077  0.0152
 8885W        W27089  12.756  14.007   5.380  0.1094 -0.0623  0.1967
 8886W        W27090  14.111  12.864  12.309  0.0207 -0.2898 -0.0739
 8887W        W27091  10.203   6.500   4.688 -0.0490 -0.2143  0.2588
 8888W        W27092   2.698  11.495  12.847  0.0992 -0.2935  0.1914
 8889W        W27093   5.665   5.968  12.768 -0.0781  0.2476 -0.0667
 8890W        W27094   8.523  13.985  12.876 -0.0787 -0.0859  0.2701
 8891W        W27095  12.383  14.393  12.251 -0.0028 -0.0603 -0.2098
 8892W        W27096   6.018  10.545   2.287  0.1746  0.1432  0.0885
 8893W        W27097  14.080  16.166   4.159  0.1169 -0.1194 -0.1053
 8894W        W27098  13.141   3.506   2.245  0.2417  0.3012 -0.1980
 8895W        W27099   4.554  14.515   4.416 -0.3375  0.0252  0.1966
 8896W        W27100   1.522  11.421   2.654  0.0567  0.0831 -0.0580
 8897W        W27101   8.049  12.840  13.641  0.1688 -0.0848 -0.1560
 8898W        W27102  15.228   6.868   1.933  0.2653  0.2069 -0.1138
 8899W        W27103   1.318   0.723  11.292  0.1499  0.0125 -0.1422
 8900W        W27104   6.824  14.010   0.680  0.2631 -0.2319 -0.1527
 8901W        W27105   2.586  10.999  13.800 -0.1932 -0.0238 -0.0398
 8902W        W27106   3.930  14.919  14.184 -0.0744  0.0807 -0.2891
 8903W        W27107  15.562   0.263  14.927 -0.0213  0.2295 -0.1891
 8904W        W27108   8.709  16.911  12.782  0.0557 -0.2390  0.0577
 8905W        W27109  12.734  12.095   1.845 -0.2337  0.1614 -0.1111
 8906W        W27110  10.082   6.963  13.847 -0.1247 -0.1001 -0.1320
 8907W        W27111   4.785   1.141  12.234  0.4019  0.1116  0.0216
 8908W        W27112  10.589  18.031  15.564  0.0624  0.3414  0.0310
 8909W        W27113  17.531   9.025   3.505 -0.1030  0.0025  0.2609
 8910W        W27114  17.078  11.742   2.424 -0.0431  0.3739  0.1420
 8911W        W27115  13.273  16.053  11.375 -0.1165  0.0427  0.1260
 8912W        W27116  15.681  10.326   1.306 -0.3190  0.0432  0.0271
 8913W        W27117   1.717   7.191  15.919  0.1116  0.2483  0.1650
 8914W        W27118   2.578   0.150  14.112  0.2152  0.0516  0.2430
 8915W        W27119   0.683  13.515  16.126 -0.0459 -0.1041  0.1713
 8916W        W27120   2.666  17.701  11.100  0.0028  0.1026 -0.1354
 8917W        W27121  13.523   7.286   0.330  0.3337  0.0791 -0.0259
 8918W        W27122   4.151   9.725  15.692 -0.0969 -0.1803 -0.0963
 8919W        W27123  10.239   5.406  12.190  0.0987  0.0313 -0.0740
 8920W        W27124  11.204  15.156  13.009  0.0043 -0.0855 -0.1724
 8921W        W27125  13.004   2.198  15.862 -0.1512 -0.1619  0.1222
 8922W        W27126   3.011   1.949  13.283 -0.1716  0.2088  0.3729
 8923W        W27127  17.213   6.204   3.342  0.0772 -0.0863  0.0449
 8924W        W27128  17.948   6.055   0.251 -0.1938 -0.0367 -0.0174
 8925W        W27129   2.915  11.144  11.874  0.1076 -0.1987  0.1065
 8926W        W27130   4.052  11.455  12.283 -0.4033 -0.3245 -0.1140
 8927W        W27131   2.355   4.018  13.958  0.2054  0.0836 -0.1167
 8928W        W27132  12.579   1.713   0.267 -0.0952  0.1991 -0.3274
 8929W        W27133   8.480  10.424  15.606  0.0364 -0.2548 -0.2035
 8930W        W27134  14.153   3.990   3.931  0.0789  0.1809 -0.0563
 8931W        W27135   8.375   7.555   0.452 -0.0719 -0.0296  0.0054
 8932W        W27136   6.362   7.922  11.127 -0.2360  0.0466 -0.1071
 8933W        W27137   6.251   4.746   6.019 -0.1553 -0.4275  0.0926
 8934W        W27138  16.761   4.527   3.816 -0.2542 -0.0851  0.1058
 8935W        W27139  14.549  10.473   3.978 -0.0996  0.2937  0.1545
 8936W        W27140   6.581   8.051  11.568 -0.1602 -0.1994 -0.0127
 8937W        W27141   7.841  12.598   4.425  0.1397  0.2144 -0.0736
 8938W        W27142  11.001   5.949  11.828  0.0193 -0.0730  0.0911
 8939W        W27143   8.195   1.874  13.215 -0.1651 -0.3261  0.1162
 8940W        W27144   8.023   5.453   0.607 -0.1583 -0.0935 -0.0347
 8941W        W27145   2.985   5.971   4.461 -0.0570  0.0707 -0.0898
 8942W        W27146  14.425   0.102  14.801  0.3230  0.1011  0.0954
 8943W        W27147   3.941   7.688  13.893  0.0982  0.3549  0.0334
 8944W        W27148  13.094   4.206  15.969  0.1947 -0.1255  0.1213
 8945W        W27149   7.169   2.765  12.683 -0.2325 -0.0803 -0.1724
 8946W        W27150   1.684  12.905  10.925  0.1887  0.2027  0.0590
 8947W        W27151   3.470  17.238  14.266 -0.0099  0.4890 -0.0841
 8948W        W27152  14.868   9.397  10.825  0.1941 -0.1596  0.2536
 8949W        W27153   6.516   5.435  10.698  0.3225  0.1472  0.0653
 8950W        W27154  13.364   8.246  14.631  0.1516  0.1944 -0.0888
 8951W        W27155  11.765   2.762   3.415 -0.1260 -0.1173 -0.1997
 8952W        W27156   2.462  11.418   0.431  0.1334  0.5031 -0.0564
 8953W        W27157   6.768  10.653   0.284  0.0943  0.1028  0.1405
 8954W        W27158   0.670  12.761   3.723 -0.2708  0.0122  0.1611
 8955W        W27159  11.533   1.640  14.482  0.0909  0.1002  0.0222
 8956W        W27160   0.955  12.399  15.118  0.1880 -0.0298  0.3242
 8957W        W27161  12.742   4.692  14.629  0.2169 -0.1733  0.1534
 8958W        W27162  10.657  15.507  15.039  0.0363 -0.0621 -0.0560
 8959W        W27163   8.107   8.447  16.000 -0.1614  0.0427  0.3011
 8960W        W27164   5.936  10.245   0.515 -0.0276  0.0067 -0.1984
 8961W        W27165  11.826   5.521   0.149  0.1047  0.0271 -0.4872
 8962W        W27166  13.217   4.679  11.917  0.1487 -0.1612  0.0277
 8963W        W27167  12.980  14.984  15.685 -0.2449  0.0530  0.0573
 8964W        W27168  10.607  16.428  12.781  0.0543 -0.2547  0.1283
 8965W        W27169   6.440  11.123   5.446  0.4320 -0.0968  0.0523
 8966W        W27170   9.194  16.893  14.690 -0.1891 -0.1022 -0.1498
 8967W        W27171   1.487  16.650   4.307 -0.1644  0.1001 -0.0382
 8968W        W27172   0.051   7.880   1.653  0.1134  0.2489  0.3758
 8969W        W27173   0.971   2.190   2.189  0.0991 -0.0897 -0.0974
 8970W        W27174  17.833  12.370  14.280  0.1539  0.0105  0.0843
 8971W        W27175   0.116  15.983  13.621 -0.0558 -0.0190  0.0336
 8972W        W27176   9.072   0.096   0.348  0.1499  0.3910 -0.0018
 8973W        W27177   0.424  12.862   0.492  0.1628 -0.0805 -0.1335
 8974W        W27178   1.727   8.929  11.296  0.0097  0.0281 -0.0704
 8975W        W27179   7.333  15.897   0.506 -0.2399 -0.1365  0.0246
 8976W        W27180  15.552  10.150   0.094  0.0106 -0.3777 -0.0073
 8977W        W27181   9.075  10.473   1.874 -0.0848  0.1281  0.1548
 8978W        W27182   2.400  12.460   0.256  0.1364  0.6146  0.2674
 8979W        W27183   4.531   9.904  12.536 -0.0744  0.2299  0.0894
 8980W        W27184   4.479   0.887  11.023 -0.1842 -0.2298 -0.1465
 8981W        W27185   6.093   1.841   1.850  0.0800 -0.1211  0.2870
 8982W        W27186   0.521   0.117  15.300 -0.0782  0.0451  0.1353
 8983W        W27187  14.679   1.307   4.033 -0.1087  0.1463 -0.2250
 8984W        W27188   9.292  14.373  14.857  0.0400 -0.0934 -0.1751
 8985W        W27189  12.624  17.033  14.687 -0.0463 -0.1212 -0.0471
 8986W        W27190   8.381   6.714   1.794 -0.0223  0.0992 -0.3233
 8987W        W27191   8.493  17.828  12.214  0.1206 -0.2640  0.1578
 8988W        W27192   8.400   8.601   0.296 -0.2679  0.0310  0.2592
 8989W        W27193  13.351   5.209  12.534 -0.1689  0.0848  0.0636
 8990W        W27194   7.926  17.686  12.103  0.2701  0.0067 -0.1287
 8991W        W27195  16.741  17.365  10.816 -0.1188 -0.3746  0.3294
 8992W        W27196   6.080   0.503   4.459 -0.0266 -0.0020 -0.1769
 8993W        W27197  16.195   3.556   0.516 -0.1394  0.1201 -0.1957
 8994W        W27198  14.237   2.808   0.440 -0.1108 -0.0774 -0.1148
 8995W        W27199  13.784   3.609   4.805  0.3233 -0.2570 -0.0923
 8996W        W27200  12.380   6.942   1.187  0.0980  0.0025  0.0166
 8997W        W27201   1.558  16.395   2.447  0.0121 -0.1056 -0.1156
 8998W        W27202  17.407  14.157   2.713 -0.1538 -0.0288 -0.1032
 8999W        W27203   6.604  16.202   1.994 -0.1338 -0.1508  0.2135
 9000W        W27204   8.553  17.693  11.242 -0.0794  0.2726  0.2118
 9001W        W27205   1.364  17.273   2.205 -0.1867 -0.2511 -0.3910
 9002W        W27206   0.282  10.515  11.423 -0.0815 -0.1865  0.1067
 9003W        W27207  13.545   0.084  10.970  0.1065  0.3077 -0.4493
 9004W        W27208   9.295   2.289  12.857  0.2164 -0.1033 -0.0597
 9005W        W27209  10.833   9.942   1.512 -0.0396 -0.1342  0.1881
 9006W        W27210   6.624   2.304   0.587  0.1099  0.0251  0.2731
 9007W        W27211  10.913  14.065   1.204  0.1114 -0.0068 -0.2863
 9008W        W27212  14.602   8.752  11.517 -0.0921  0.1159  0.0112
 9009W        W27213  12.945  10.750  12.065  0.0028  0.0671 -0.2199
 9010W        W27214  16.197  15.330   2.188  0.0954  0.1117  0.0415
 9011W        W27215   4.910   6.725   1.954 -0.0372  0.1835 -0.0332
 9012W        W27216  15.673  17.665  14.203  0.1714 -0.1005 -0.0040
 9013W        W27217   5.474   3.458   2.222 -0.1350 -0.0419 -0.1415
 9014W        W27218  17.385   5.653   4.794 -0.0465  0.0057 -0.0803
 9015W        W27219   2.663  11.910  16.076 -0.1567 -0.1003  0.1674
 9016W        W27220   0.829   5.248  15.648 -0.2951  0.1759 -0.1516
 9017W        W27221   5.048   9.662   4.684  0.0189 -0.1445 -0.0828
 9018W        W27222  13.559  15.296  13.064 -0.0666  0.2223  0.0362
 9019W        W27223   2.966   4.097   1.411 -0.0670  0.0725  0.0932
 9020W        W27224   2.052   7.102  15.161 -0.0724 -0.0038  0.2006
 9021W        W27225  17.624   5.185   2.662  0.2571 -0.1021 -0.5186
 9022W        W27226   1.986  17.999   0.630 -0.0736 -0.0996 -0.2135
 9023W        W27227   7.204   0.538   0.039  0.1226 -0.1503  0.0583
 9024W        W27228  15.029  16.128   3.932  0.0387  0.0569  0.2889
 9025W        W27229   8.694  17.761   0.926 -0.1393 -0.3157 -0.1582
 9026W        W27230   0.858   4.193   1.428  0.1292 -0.0100  0.1953
 9027W        W27231  11.041   7.050   2.064 -0.0547  0.0139 -0.2488
 9028W        W27232   1.921  15.267  12.649  0.2141  0.1131 -0.2400
 9029W        W27233  17.691   4.278   3.566  0.0682  0.1586 -0.1882
 9030W        W27234   3.630  13.572  13.754  0.0439 -0.0475  0.1026
 9031W        W27235   4.536   3.473  14.008 -0.2847  0.0026 -0.0460
 9032W        W27236  14.637  11.688   3.897 -0.0469  0.3303 -0.0388
 9033W        W27237  11.178  14.060  14.455  0.3087  0.0325 -0.0988
 9034W        W27238  15.618  14.518  14.860 -0.2308  0.0611 -0.0649
 9035W        W27239   3.155  10.960   3.274 -0.1034 -0.2408  0.1227
 9036W        W27240  13.072  12.895   1.429  0.2325 -0.1488 -0.4963
 9037W        W27241   0.426   2.722  10.860 -0.0329 -0.1083  0.4534
 9038W        W27242  12.630  17.868   4.165  0.2097  0.1227 -0.2312
 9039W        W27243  16.223   2.881   4.298  0.3480 -0.1124 -0.3032
 9040W        W27244   5.470   0.573   5.668  0.0837 -0.2460  0.0630
 9041W        W27245   2.926  13.449  14.254 -0.2290  0.1373  0.2409
 9042W        W27246  15.108   3.436   5.444 -0.1523 -0.1089  0.1023
 9043W        W27247  14.535   6.077   4.652  0.1159  0.0181  0.0166
 9044W        W27248   2.664  12.297   4.786 -0.2430  0.3190 -0.1003
 9045W        W27249  12.878   1.281  14.588  0.1862  0.0909  0.1610
 9046W        W27250   7.188   6.641  14.203  0.0056 -0.2966 -0.1061
 9047W        W27251   9.810  15.234  15.939  0.1610  0.0532 -0.0875
 9048W        W27252   0.535   1.003  15.383 -0.1261 -0.0564 -0.1255
 9049W        W27253   8.902   2.200  16.037 -0.0488  0.3595  0.0938
 9050W        W27254  13.224  17.023   3.406 -0.3284  0.4415 -0.2013
 9051W        W27255  14.660   9.923  15.428  0.1780 -0.0318 -0.1521
 9052W        W27256  15.350   9.452  11.530  0.0951  0.2472  0.2898
 9053W        W27257  12.676  11.157  15.692 -0.1806  0.0269 -0.0811
 9054W        W27258  12.486  14.927   4.404 -0.2110 -0.1776 -0.3497
 9055W        W27259  10.625  16.245  15.876  0.2965  0.0738  0.1361
 9056W        W27260  16.157  13.562  10.668  0.0841  0.2366  0.2535
 9057W        W27261  11.785   8.320   1.839 -0.0907 -0.2435 -0.0569
 9058W        W27262  16.843  16.724   3.257  0.2326  0.1144 -0.0100
 9059W        W27263   3.653   3.486   4.595 -0.1702 -0.1205  0.0991
 9060W        W27264  16.672   2.390   3.494  0.0328 -0.2953 -0.2084
 9061W        W27265  16.084   5.750  15.401  0.1302  0.1710 -0.1689
 9062W        W27266   3.482   5.729  12.679  0.2016 -0.0067 -0.3082
 9063W        W27267   8.942   8.118   3.218 -0.0968  0.0249  0.0801
 9064W        W27268   4.150  10.170  15.018 -0.1080 -0.3038 -0.2261
 9065W        W27269   4.657   2.892   0.035  0.1552 -0.0232 -0.1079
 9066W        W27270  17.677  12.088  13.486  0.2163  0.0998  0.0585
 9067W        W27271  12.207  10.419   1.696  0.1277  0.0623 -0.0875
 9068W        W27272  11.908   6.629   4.954 -0.2366  0.0716  0.0961
 9069W        W27273  17.302  10.007   3.102  0.0260  0.2023 -0.1409
 9070W        W27274   7.852  13.634   0.659 -0.1002 -0.0197 -0.0595
 9071W        W27275  14.644  10.923   1.234  0.1368 -0.1855 -0.1855
 9072W        W27276  11.265   9.199  12.018  0.1701 -0.0468 -0.0117
 9073W        W27277   0.201   7.081   1.157  0.2841 -0.3868 -0.0025
 9074W        W27278   0.215   5.169  13.761  0.0369  0.1015  0.3580
 9075W        W27279  11.964  11.889  14.918 -0.3613  0.2385  0.0496
 9076W        W27280  12.199   7.855   0.163 -0.0916 -0.0672 -0.3167
 9077W        W27281   5.553  13.648   3.988  0.0941 -0.1940  0.1066
 9078W        W27282   5.006  17.607  13.733 -0.1323 -0.0240  0.1678
 9079W        W27283   2.130   5.371   5.314 -0.2063  0.1473 -0.2621
 9080W        W27284   3.166  10.745   4.623  0.1730  0.4757 -0.2881
 9081W        W27285   5.519   6.476  11.567  0.1257  0.0730  0.0425
 9082W        W27286  14.187   2.023   5.073  0.1332  0.2958 -0.0112
 9083W        W27287  12.863   4.538  13.957  0.0185  0.1362 -0.2412
 9084W        W27288  11.879   1.243  10.890  0.0115 -0.2122  0.0079
 9085W        W27289   5.782   6.893   3.606 -0.0551  0.2361 -0.0198
 9086W        W27290   7.381  10.672   6.061  0.1392  0.1160 -0.1587
 9087W        W27291  13.392   3.487  16.027  0.1748 -0.1763  0.1096
 9088W        W27292   8.049   4.122   1.959  0.1939 -0.2131  0.0076
 9089W        W27293   6.343  16.625  14.788  0.1924  0.1558  0.0694
 9090W        W27294  10.702  16.743  16.098 -0.1713 -0.0298  0.3609
 9091W        W27295   6.885   0.829  13.587  0.0557  0.0225  0.0277
 9092W        W27296   4.505   0.788   3.870  0.1691  0.2224 -0.2247
 9093W        W27297   9.557  11.514  16.056 -0.1536  0.3940 -0.0541
 9094W        W27298   6.936   0.224  11.663 -0.3542  0.2877  0.0303
 9095W        W27299   8.460  12.414   0.503  0.0149  0.0060  0.1307
 9096W        W27300  14.316  17.804   2.117  0.1513  0.0628 -0.1196
 9097W        W27301   9.077   0.993  12.626 -0.1743 -0.1872  0.1933
 9098W        W27302  15.785  13.367  11.429  0.1045 -0.1653  0.2789
 9099W        W27303   3.453  17.598   4.263  0.1803  0.2075  0.1414
 9100W        W27304   1.252   5.160   1.913  0.0166 -0.0259  0.2605
 9101W        W27305   9.704  16.950  15.294 -0.2185 -0.1187 -0.0765
 9102W        W27306  11.832   1.804   2.570 -0.1447  0.0088 -0.2592
 9103W        W27307   7.829  15.980  12.342  0.3412  0.0051 -0.1241
 9104W        W27308   3.620   5.300  14.421  0.0336 -0.1447 -0.0585
 9105W        W27309  16.427  12.713   3.117 -0.1004 -0.3080 -0.0569
 9106W        W27310   9.718   1.856   2.363  0.0795  0.1863  0.1653
 9107W        W27311  12.817   0.137  12.115 -0.2455  0.1710  0.1753
 9108W        W27312   7.617   9.813   4.356 -0.0261 -0.2834  0.1075
 9109W        W27313  11.483   8.019  14.504  0.2933  0.3699  0.1865
 9110W        W27314   4.741   6.035   3.781  0.1879 -0.0677 -0.3243
 9111W        W27315  15.916   7.264   2.558  0.1249  0.1257  0.1957
 9112W        W27316  16.205   9.810   3.007  0.1052  0.0530  0.1431
 9113W        W27317   0.409   2.779   1.728 -0.1652 -0.0950  0.1565
 9114W        W27318   9.394   2.397   5.079 -0.1957 -0.1843  0.2797
 9115W        W27319   5.751   3.622  14.696 -0.1115 -0.1603 -0.2807
 9116W        W27320   5.961  14.067  14.440  0.0172 -0.0317  0.0965
 9117W        W27321  17.526   3.076  14.268 -0.0411 -0.0457  0.0693
 9118W        W27322  13.575   1.943   1.644  0.2582 -0.0369  0.1810
 9119W        W27323   9.515   9.990   2.381 -0.0701 -0.1460  0.1266
 9120W        W27324  12.085   3.029  15.116 -0.0671  0.0533 -0.0590
 9121W        W27325   5.203   5.286  13.390 -0.0465  0.0095  0.1003
 9122W        W27326  10.675  12.945  15.417  0.0508 -0.2070  0.1955
 9123W        W27327  11.335   6.853   1.557  0.0399 -0.3224 -0.2218
 9124W        W27328   0.700   2.238  13.209 -0.2289  0.0930  0.0566
 9125W        W27329  15.557  15.769   0.562  0.2229  0.1853  0.1075
 9126W        W27330   0.160  12.601  15.609  0.4131  0.0965 -0.1170
 9127W        W27331  14.530   3.467  14.958  0.0827 -0.0593 -0.0819
 9128W        W27332  16.432  15.288   5.752  0.0490 -0.0949 -0.2149
 9129W        W27333  11.153  11.896   2.261  0.0001 -0.0880  0.2727
 9130W        W27334  12.234  13.477   4.862  0.0331  0.1426  0.1691
 9131W        W27335  15.789   7.812   1.753  0.2238  0.1568 -0.1444
 9132W        W27336  13.381  13.263  14.202  0.2223 -0.4641  0.0170
 9133W        W27337  16.537  16.932   0.462 -0.1884  0.2806 -0.0750
 9134W        W27338   2.937   8.721  13.801  0.0437  0.0173  0.2121
 9135W        W27339   4.610   2.751   2.783 -0.0443  0.0683 -0.2663
 9136W        W27340  15.408  11.143  14.255  0.2571 -0.1443 -0.1450
 9137W        W27341  16.773   7.163  12.221 -0.0384 -0.0560  0.0697
 9138W        W27342  10.860  13.509   3.176 -0.0501  0.1069  0.1670
 9139W        W27343   6.729  13.687   4.265 -0.1307 -0.1796 -0.0341
 9140W        W27344   8.260   5.452   3.617 -0.0982  0.2134 -0.0353
 9141W        W27345  16.167  14.929   1.366 -0.3297 -0.0696 -0.1626
 9142W        W27346   6.792  11.448   5.359  0.0387 -0.0451 -0.1091
 9143W        W27347  14.915  16.321  13.769  0.2132 -0.2230  0.1160
 9144W        W27348  12.293   0.838  12.757 -0.0986 -0.2431  0.0057
 9145W        W27349  14.328  13.724  10.322 -0.1394 -0.0842  0.0532
 9146W        W27350   0.577  17.831   4.587 -0.0312 -0.1792  0.0887
 9147W        W27351  16.761  10.882   0.341  0.1107  0.3202  0.0915
 9148W        W27352  15.578   5.097   2.128 -0.0779 -0.2992  0.0379
 9149W        W27353   4.548  10.692   5.331 -0.1446 -0.1251 -0.0868
 9150W        W27354  15.813  11.998  12.566  0.0240 -0.0401  0.0213
 9151W        W27355  16.624  11.542   0.226 -0.0751 -0.2772  0.0943
 9152W        W27356   5.848   4.912   4.758  0.1645  0.2444  0.0736
 9153W        W27357  17.196  12.851  14.969 -0.0105 -0.1288  0.1218
 9154W        W27358   2.806  15.320   1.727 -0.1024  0.3238 -0.1052
 9155W        W27359   3.057  16.823   0.123  0.2176  0.1122 -0.1246
 9156W        W27360  13.186   0.404   3.564  0.2227  0.0161  0.3077
 9157W        W27361  15.244   0.172   2.941 -0.0078 -0.3724  0.1119
 9158W        W27362  12.132  10.042   3.276 -0.0485 -0.0394  0.0097
 9159W        W27363   5.858   0.873  15.581  0.0224 -0.1379  0.1652
 9160W        W27364  10.048  14.410   5.885 -0.1150  0.0025 -0.0575
 9161W        W27365   4.342  14.130  12.239 -0.4404  0.0067 -0.2727
 9162W        W27366   2.476  15.864  14.871  0.0892 -0.0496 -0.0670
 9163W        W27367  13.472   2.016   1.135  0.0601  0.0478  0.0396
 9164W        W27368  10.573   8.543  11.790 -0.3814 -0.0140 -0.5294
 9165W        W27369   8.402   8.052  15.795  0.0593 -0.0989  0.1016
 9166W        W27370  12.063   0.354   4.051  0.2724  0.0476  0.0583
 9167W        W27371   7.668   0.828   2.757 -0.0818  0.0502  0.1426
 9168W        W27372   2.924  14.699  12.247  0.0165 -0.0712  0.1167
 9169W        W27373  15.170   1.217   1.321 -0.1901  0.0102  0.1569
 9170W        W27374  12.625   5.491   4.284  0.1318 -0.3695 -0.1786
 9171W        W27375   4.402   4.751   2.335 -0.2204  0.0654 -0.1027
 9172W        W27376   4.792  12.852  14.492  0.0347  0.1762 -0.2347
 9173W        W27377   9.202  10.643   1.281 -0.1802 -0.2178  0.1042
 9174W        W27378  13.229  14.257  14.364 -0.0830 -0.0255 -0.1447
 9175W        W27379   2.851  12.181   5.255  0.0154  0.2167  0.1215
 9176W        W27380   0.027  14.725   4.587  0.1495 -0.1544 -0.2678
 9177W        W27381  14.513   1.983  14.686 -0.2687 -0.0163  0.1958
 9178W        W27382  13.729   7.014  14.105 -0.0319 -0.3561 -0.1207
 9179W        W27383   4.152   4.618   1.529  0.1773  0.0520  0.0715
 9180W        W27384  12.427   2.239  12.577 -0.1396 -0.0438 -0.0422
 9181W        W27385   2.180   8.005  14.126 -0.0649 -0.3537  0.1126
 9182W        W27386   6.684   4.291   0.814 -0.2545  0.1371  0.0314
 9183W        W27387   0.903  13.385  13.551 -0.0256 -0.0259 -0.0329
 9184W        W27388   6.363  11.178   3.157  0.2970  0.0865  0.2294
 9185W        W27389  12.166   0.776  13.599  0.0143 -0.5839  0.1198
 9186W        W27390   7.122  12.600   5.433 -0.0389 -0.1198 -0.2279
 9187W        W27391   9.590   9.346  13.547  0.0125 -0.0639 -0.1010
 9188W        W27392  15.992   0.444   3.710  0.1346  0.0954  0.0828
 9189W        W27393   6.003  14.616   0.496  0.3224 -0.2221 -0.1545
 9190W        W27394   2.888  15.910   4.135 -0.1644  0.1662 -0.0029
 9191W        W27395  11.983   5.197  15.960 -0.0891  0.0663  0.1145
 9192W        W27396   0.709   9.461   3.905 -0.0948 -0.0061 -0.3160
 9193W        W27397   1.486   4.046  14.128  0.1844  0.0001  0.1674
 9194W        W27398   4.606  14.305   4.896 -0.3573  0.0916 -0.1214
 9195W        W27399  17.786   1.231  11.400  0.1555  0.2083 -0.3990
 9196W        W27400   5.790   8.194   2.014 -0.0903 -0.3444  0.1595
 9197W        W27401   7.834  18.042  13.569  0.2089 -0.0571  0.0362
 9198W        W27402   7.952  10.566   3.810 -0.2487 -0.4122 -0.1554
 9199W        W27403  17.814  16.113   2.461 -0.0248 -0.0462  0.0245
 9200W        W27404  17.859  14.461  12.833  0.2529 -0.0138  0.1008
 9201W        W27405  11.698  12.296  12.640  0.0905 -0.0932  0.0311
 9202W        W27406  11.258  10.246   0.713 -0.0710  0.1365  0.0205
 9203W        W27407  16.046  12.918   1.849  0.3268  0.0579  0.0662
 9204W        W27408  14.242  17.246   2.873  0.1345  0.3433 -0.0349
 9205W        W27409  15.953  14.712  10.158 -0.3357 -0.0818 -0.0601
 9206W        W27410   9.693  15.362  15.460  0.2238 -0.1396  0.0759
 9207W        W27411   0.958  17.468   3.197 -0.0574 -0.0025  0.0186
 9208W        W27412  17.099   1.915  11.126 -0.4170  0.2269 -0.3483
 9209W        W27413  14.347   0.611  13.299 -0.1407 -0.3529  0.2075
 9210W        W27414   0.503   3.062   2.680 -0.2301  0.1260  0.0679
 9211W        W27415  10.259  17.140  15.946  0.5401 -0.1039 -0.1661
 9212W        W27416  11.049  16.719   5.060  0.0825 -0.1472  0.2410
 9213W        W27417   9.175   0.656  14.416 -0.2277 -0.0898 -0.3102
 9214W        W27418  10.261  15.105   4.377  0.1887  0.0611 -0.0457
 9215W        W27419  17.966  12.070   4.737  0.0758 -0.0878  0.2545
 9216W        W27420   4.343   0.344   3.999  0.2311  0.2939 -0.0040
 9217W        W27421   8.700  16.592   3.279  0.0439  0.1554  0.1055
 9218W        W27422   8.189   3.481   1.011  0.1458  0.2965 -0.0026
 9219W        W27423   1.417  10.313   3.718  0.0117 -0.0102 -0.5157
 9220W        W27424   4.034   5.345   0.448 -0.0402  0.3570 -0.3344
 9221W        W27425   0.582   9.681   2.932 -0.2370 -0.2913 -0.0295
 9222W        W27426   7.962   1.862  16.031 -0.2079 -0.0699 -0.1042
 9223W        W27427  10.559   1.722  11.265  0.1479  0.1288  0.0345
 9224W        W27428   3.265  16.586  12.475  0.0935 -0.0613  0.1424
 9225W        W27429  14.656  12.298   2.121  0.1138  0.1835  0.2120
 9226W        W27430   1.517   8.210   0.057  0.0932 -0.3121 -0.0015
 9227W        W27431   4.782  12.057   2.893  0.1361 -0.1071 -0.0672
 9228W        W27432  14.320   0.271   3.904 -0.0653 -0.1619 -0.0227
 9229W        W27433  15.434  10.084  15.687 -0.0517 -0.0827  0.2354
 9230W        W27434  12.782   3.325  13.752 -0.0938 -0.4064  0.0213
 9231W        W27435  11.026  13.381  15.462  0.3878  0.2442 -0.2110
 9232W        W27436  13.102   7.692  11.410 -0.0143 -0.4114  0.0596
 9233W        W27437   7.546  13.409   4.001 -0.2292 -0.2532  0.3114
 9234W        W27438  12.164  12.303   4.152 -0.1145  0.0630  0.2632
 9235W        W27439   8.937   9.476  15.589 -0.0446 -0.0418 -0.1502
 9236W        W27440  13.686   4.703   0.188  0.2865  0.1424 -0.3277
 9237W        W27441   3.866  13.926  10.338 -0.2373  0.0721  0.0728
 9238W        W27442   4.064  17.809  11.614  0.0823 -0.1492 -0.0713
 9239W        W27443   5.180   6.865   2.883 -0.0588  0.2935  0.3123
 9240W        W27444  17.151   6.890  12.892  0.1395  0.0310 -0.0279
 9241W        W27445   9.113   9.274   2.711  0.2294 -0.0214  0.1336
 9242W        W27446  15.099   8.401  11.469  0.0429  0.0858  0.0940
 9243W        W27447  10.534  13.805  11.866 -0.2031  0.0498  0.0721
 9244W        W27448  12.678  13.277   4.362 -0.0997  0.2806 -0.0075
 9245W        W27449  10.386  11.100   3.105 -0.0482 -0.1044 -0.0354
 9246W        W27450  16.971   7.164   0.438 -0.0925 -0.0753 -0.3759
 9247W        W27451   6.273   3.584  14.063 -0.5148  0.0165  0.1092
 9248W        W27452  11.489  13.971  12.345 -0.2555 -0.0495 -0.2456
 9249W        W27453   2.120   0.207  15.071 -0.1186 -0.0370 -0.1136
 9250W        W27454   0.493   7.842   1.885  0.0249  0.0828  0.0205
 9251W        W27455   1.760   4.338   2.402  0.2964  0.1004 -0.3097
 9252W        W27456   8.046   3.250  11.718 -0.2925 -0.3514  0.0141
 9253W        W27457   1.449   9.530   1.868  0.1074 -0.2130 -0.2089
 9254W        W27458   4.692  13.702  14.924  0.1662  0.0375 -0.1280
 9255W        W27459   2.585   5.714  14.999  0.0437  0.2073  0.0790
 9256W        W27460  14.543   1.914  12.408 -0.1099  0.0356  0.2480
 9257W        W27461   1.826  14.629  15.484  0.1550 -0.0605 -0.3303
 9258W        W27462   5.979   8.375  13.346 -0.0093 -0.0717  0.1648
 9259W        W27463  15.721   3.787  14.121 -0.1883  0.0048  0.0530
 9260W        W27464   6.851  16.473  13.766 -0.0539 -0.2818  0.0426
 9261W        W27465  11.792  11.749   2.817 -0.0960  0.4657  0.0689
 9262W        W27466   2.584   7.316  12.494 -0.0095 -0.0930  0.2739
 9263W        W27467  16.903   8.627   0.420  0.1150  0.3354  0.2604
 9264W        W27468   7.209   8.582  13.988  0.1768 -0.2583  0.2527
 9265W        W27469   0.923   1.616   0.982  0.2209  0.2319 -0.0699
 9266W        W27470   7.318   7.771  14.692 -0.0492 -0.0359  0.1560
 9267W        W27471   4.844  15.091  11.844  0.0269 -0.1190  0.0110
 9268W        W27472   3.628  10.008   3.871 -0.0478 -0.0980  0.3476
 9269W        W27473   6.826  10.395  12.106  0.0673  0.1322 -0.2713
 9270W        W27474   3.184   0.491  13.632 -0.1042 -0.3342 -0.3147
 9271W        W27475  14.175   4.737  13.365  0.1620 -0.0334  0.0062
 9272W        W27476   7.395  17.197  13.989  0.0812  0.0682 -0.2749
 9273W        W27477  13.978   6.955   6.122 -0.2352  0.0574  0.0791
 9274W        W27478   9.248  10.263   0.386  0.4051 -0.1069 -0.0890
 9275W        W27479   4.859   7.279  14.974  0.0530  0.2216 -0.0275
 9276W        W27480  15.898   2.944   3.876 -0.0821  0.0694 -0.0998
 9277W        W27481  14.781   8.122  12.229 -0.3657 -0.1600 -0.3597
 9278W        W27482   7.793  13.135  12.764  0.3512  0.3629 -0.1384
 9279W        W27483  14.834  14.876   2.801 -0.0081  0.2926  0.2321
 9280W        W27484   0.924  16.256  13.461  0.2009 -0.3109 -0.2750
 9281W        W27485  13.638   5.168  12.966  0.0241  0.0077  0.1628
 9282W        W27486   4.542   6.579  15.383  0.2234 -0.0798  0.1983
 9283W        W27487   4.943   1.269   1.613  0.1572  0.2807  0.0325
 9284W        W27488   5.233  10.792  13.036  0.0056  0.2493  0.0270
 9285W        W27489   8.549  12.383  12.777 -0.2422  0.0300 -0.1186
 9286W        W27490   5.142   8.899  14.034 -0.0216 -0.1123 -0.3037
 9287W        W27491  13.020   6.999   5.833 -0.0065  0.3565 -0.2073
 9288W        W27492   4.299   3.004   2.538 -0.0363  0.0990  0.0882
 9289W        W27493   0.540  17.199   2.586  0.0347 -0.1708 -0.1115
 9290W        W27494   5.357  11.818  12.972 -0.0860 -0.2782  0.1554
 9291W        W27495   9.205   0.106  12.196 -0.1749  0.2921 -0.0963
 9292W        W27496  13.339   0.080  13.925 -0.0214 -0.3570 -0.2388
 9293W        W27497   6.499  11.543  12.556 -0.2609 -0.2182  0.0523
 9294W        W27498   6.520  13.648  14.062 -0.1215  0.0889  0.6335
 9295W        W27499  11.088  17.014   0.790 -0.0688  0.1171 -0.2945
 9296W        W27500   3.651  17.040  12.941  0.0961 -0.2007  0.0353
 9297W        W27501  10.472  14.700  13.125  0.0715  0.0805  0.0249
 9298W        W27502  13.017   6.141   4.055 -0.3356  0.0226  0.1481
 9299W        W27503   7.331   8.780   2.678  0.0018  0.3235 -0.3253
 9300W        W27504   0.526  17.918   2.630 -0.0944  0.1663 -0.1105
 9301W        W27505   1.531  14.493  12.694  0.1760  0.1223 -0.2110
 9302W        W27506   0.176  10.310  12.198  0.0501 -0.0464  0.2643
 9303W        W27507  13.844  17.028   2.653 -0.0653  0.0008  0.1356
 9304W        W27508   6.591   3.571   4.214 -0.1862  0.2411 -0.0842
 9305W        W27509   0.597   8.464   0.161  0.0700 -0.1771 -0.1356
 9306W        W27510  17.903   1.424  14.458 -0.0017 -0.0644  0.0196
 9307W        W27511  14.590   7.253   3.602 -0.0442 -0.5190 -0.0825
 9308W        W27512   0.194   2.902   4.323  0.2866 -0.0426 -0.1003
 9309W        W27513  10.257  13.758  10.545  0.2008  0.0530 -0.1776
 9310W        W27514   7.975   7.612   2.521  0.4092 -0.1139 -0.0171
 9311W        W27515   8.770   9.082   4.896  0.1824  0.3208  0.3485
 9312W        W27516   8.474  11.006   3.761 -0.0394 -0.1748 -0.0160
 9313W        W27517  10.314   5.359  15.935 -0.0896 -0.0551  0.0145
 9314W        W27518   9.805  14.686  14.748 -0.1561 -0.2326  0.1007
 9315W        W27519  14.935  12.036   0.551  0.2804  0.2071  0.0762
 9316W        W27520   7.522   8.135  15.621 -0.2413  0.1593  0.1351
 9317W        W27521  10.703   5.167   0.835 -0.2890 -0.1671  0.2337
 9318W        W27522  10.263  11.222   5.691 -0.1100  0.0925 -0.1975
 9319W        W27523   9.828  16.234   3.423 -0.1086 -0.1340  0.1462
 9320W        W27524   8.663   5.884  10.641  0.1510 -0.2930 -0.0541
 9321W        W27525   8.621  11.662   2.767 -0.0700 -0.1418  0.0908
 9322W        W27526  10.288   9.268  11.528  0.0354 -0.1485 -0.0831
 9323W        W27527   4.729   9.523   0.902  0.0326  0.0882 -0.1025
 9324W        W27528  13.273   9.243   2.330  0.1372  0.0484 -0.4112
 9325W        W27529   3.104  12.203  13.456  0.0477  0.3902 -0.3860
 9326W        W27530   0.369   2.734   0.113  0.1746  0.1072 -0.0146
 9327W        W27531   4.011   6.025  14.095  0.0507  0.4703  0.1070
 9328W        W27532  17.459   8.439  13.855  0.1011  0.0397  0.0147
 9329W        W27533  11.239   0.758   0.858 -0.1095  0.2461 -0.0236
 9330W        W27534  11.402  12.810  13.741 -0.1689 -0.1169 -0.1034
 9331W        W27535   0.397   6.453  13.229 -0.3361 -0.0364 -0.0084
 9332W        W27536   7.725   6.891   0.028 -0.0648 -0.2184 -0.0888
 9333W        W27537   6.932   0.579   2.584  0.0348  0.1815  0.2427
 9334W        W27538  13.735  15.218  12.556  0.1150  0.0261 -0.1424
 9335W        W27539  17.106  10.970  12.270 -0.0434 -0.0708  0.1269
 9336W        W27540   5.538  16.763   5.392  0.3181 -0.0223  0.0823
 9337W        W27541  17.015   8.775   4.518 -0.1668  0.1040  0.0343
 9338W        W27542   9.783   6.739   1.538 -0.2783 -0.1839  0.2207
 9339W        W27543  16.102  10.396   0.347 -0.1590  0.1959 -0.0610
 9340W        W27544  16.503   0.987  12.573  0.1203  0.0239 -0.0488
 9341W        W27545   5.400   4.321  15.081  0.5171 -0.2432  0.1591
 9342W        W27546   4.630  13.904   1.866 -0.0166  0.1438 -0.0578
 9343W        W27547  12.738  11.410   3.135 -0.1214  0.0805  0.2397
 9344W        W27548   2.618   5.456   2.907  0.1713 -0.1822  0.0583
 9345W        W27549  14.186   8.483   5.046 -0.4131 -0.3332 -0.0588
 9346W        W27550  16.859  17.752   1.645  0.0305  0.1137  0.0621
 9347W        W27551   8.111  10.870  14.256  0.1863 -0.4083  0.0442
 9348W        W27552  12.165   6.923   4.604  0.0535  0.0678  0.0654
 9349W        W27553   4.594   4.490  12.661  0.0475 -0.0779  0.2478
 9350W        W27554   8.197   6.475   2.634 -0.1627  0.0506  0.1591
 9351W        W27555   4.699  16.442   3.289 -0.0529 -0.3387 -0.0279
 9352W        W27556   3.166  17.369  13.901  0.1150  0.0664 -0.0069
 9353W        W27557   5.313  11.195   1.960  0.1071  0.1303 -0.0145
 9354W        W27558   8.138  14.385   2.708 -0.2812  0.2009 -0.0222
 9355W        W27559  13.018  14.646   4.392 -0.1142 -0.0405  0.0760
 9356W        W27560   3.401  16.411   0.229 -0.1661 -0.0260 -0.1199
 9357W        W27561   9.030   4.155  14.433  0.0752 -0.3279 -0.2029
 9358W        W27562  17.589  16.586  12.780  0.1494  0.2577 -0.1648
 9359W        W27563   3.756  12.094   2.884 -0.1171  0.1193 -0.1598
 9360W        W27564   5.878   6.156  13.656 -0.4258  0.3850  0.2679
 9361W        W27565  10.845   2.404   3.642  0.1343  0.0489  0.2873
 9362W        W27566  10.693   0.397   4.133  0.0366 -0.0506  0.1895
 9363W        W27567  12.433  13.990   3.194 -0.1413  0.3075 -0.0650
 9364W        W27568  15.672   7.712   4.279  0.2560  0.1496 -0.0049
 9365W        W27569   7.992   4.417  15.078  0.1322  0.2115 -0.4232
 9366W        W27570  10.005  16.590  11.251  0.2933 -0.0404  0.0556
 9367W        W27571   7.210  16.820  12.079 -0.2081 -0.1936  0.1246
 9368W        W27572  12.693  14.892   2.708 -0.3346  0.1169 -0.1400
 9369W        W27573   5.839   2.618   0.178 -0.1567 -0.0068 -0.1096
 9370W        W27574   0.973  12.866  13.418 -0.2276  0.0289  0.2407
 9371W        W27575   6.064  16.368   2.364 -0.1130  0.0727 -0.3263
 9372W        W27576  12.070  10.143   0.774 -0.0817 -0.0314 -0.2753
 9373W        W27577   4.279   1.882   1.564  0.2366  0.4372  0.1530
 9374W        W27578   3.767   6.906   5.071 -0.4144  0.1222 -0.2818
 9375W        W27579   8.167   4.272   1.477 -0.0054 -0.0513  0.1087
 9376W        W27580  13.940  12.061   1.186 -0.3129  0.3490 -0.2931
 9377W        W27581   7.562   2.206   4.317 -0.0246 -0.4769 -0.0077
 9378W        W27582   5.471  11.812   4.097 -0.0739  0.0490  0.0193
 9379W        W27583   0.806  14.422   4.128  0.0233  0.0868  0.0632
 9380W        W27584  14.982   6.832  14.690 -0.0641 -0.1498  0.3391
 9381W        W27585  16.237   5.294  14.441  0.2798  0.5272  0.0454
 9382W        W27586  14.979  12.102  11.187 -0.0229 -0.0203 -0.1409
 9383W        W27587  12.112  17.282  11.765 -0.1709 -0.2236  0.1987
 9384W        W27588   0.283   0.257   2.287 -0.0875 -0.0929  0.2881
 9385W        W27589  12.569  14.785  15.213 -0.1205 -0.0669  0.1003
 9386W        W27590   6.136   2.088  14.656 -0.1574  0.1741 -0.2498
 9387W        W27591   4.159   0.287   0.689 -0.1073  0.1093  0.0619
 9388W        W27592   9.296   2.149  14.718 -0.1089 -0.1225  0.0580
 9389W        W27593   8.474  12.110   5.234  0.1663 -0.1598 -0.0037
 9390W        W27594   1.919  17.393  10.379 -0.0899 -0.3994  0.1254
 9391W        W27595  15.853   6.981   1.762 -0.2184 -0.2466  0.2003
 9392W        W27596   3.583   4.317   2.301 -0.1240  0.0631  0.2435
 9393W        W27597  17.603   2.809   5.214 -0.2883 -0.0129  0.2577
 9394W        W27598  14.824   4.639   4.908 -0.1354  0.1955  0.1363
 9395W        W27599  15.706  10.751   1.492 -0.3748  0.0304  0.1070
 9396W        W27600   1.039  15.718   4.580 -0.1464  0.0696  0.2859
 9397W        W27601   7.601   1.552  11.038 -0.1685 -0.1307  0.0119
 9398W        W27602  11.213  12.885  11.865  0.2319  0.0258  0.1351
 9399W        W27603   1.398  17.082   0.145 -0.2806 -0.2176 -0.0593
 9400W        W27604  10.711   8.607   4.447 -0.0145 -0.3918 -0.1522
 9401W        W27605  13.848   3.260   4.343  0.0430  0.2589 -0.2456
 9402W        W27606   2.264   3.842  11.479  0.0530 -0.1856 -0.0695
 9403W        W27607   2.811   3.074  11.794  0.0708  0.0097 -0.2460
 9404W        W27608  10.889  11.696  14.084 -0.0271 -0.1991 -0.0313
 9405W        W27609  13.228  16.949   0.892 -0.0930  0.1790 -0.1776
 9406W        W27610   5.694   6.448  15.975  0.1649 -0.0644 -0.3250
 9407W        W27611   8.728  10.572  13.440 -0.1072  0.1037  0.0985
 9408W        W27612   2.836  10.179   1.145  0.1181 -0.1298  0.1530
 9409W        W27613   0.015   0.535   2.660  0.0816  0.2210  0.4371
 9410W        W27614   5.642   4.855   1.804  0.0015  0.0505 -0.2479
 9411W        W27615  16.066  11.326  16.172 -0.0334  0.0775 -0.0872
 9412W        W27616  13.629   7.749  14.004  0.2258  0.0715 -0.1359
 9413W        W27617  12.758   5.522   0.360 -0.0813 -0.2711  0.0228
 9414W        W27618   4.759   9.753  13.972  0.2072 -0.1599  0.0567
 9415W        W27619  15.081   7.458   0.084 -0.0029  0.1793  0.4166
 9416W        W27620  17.625   0.345   5.168 -0.2852 -0.0535  0.0400
 9417W        W27621  16.411   1.649  14.368 -0.2794 -0.0229  0.0575
 9418W        W27622   0.193   5.378  13.235 -0.2503  0.2546 -0.0314
 9419W        W27623   8.594   3.732   0.095  0.0393 -0.2490 -0.1168
 9420W        W27624  14.910   8.072   1.254 -0.1316  0.0650 -0.1105
 9421W        W27625  14.313   4.518  12.953 -0.0437  0.0010  0.2256
 9422W        W27626  14.291  10.832   3.784 -0.1469  0.0042  0.0901
 9423W        W27627   9.942   6.983  11.515 -0.1612 -0.0102 -0.1614
 9424W        W27628   6.656  17.023   0.579  0.0428 -0.0066  0.1683
 9425W        W27629   4.172   9.710   5.840  0.0394 -0.1739 -0.1007
 9426W        W27630   1.025  14.535   1.915 -0.2314  0.2061 -0.4322
 9427W        W27631  17.624   6.113  12.616 -0.0828  0.0997  0.1572
 9428W        W27632   4.593  13.600   2.292 -0.0300  0.3583  0.1019
 9429W        W27633   6.945   4.354  13.102  0.1167  0.0270 -0.1933
 9430W        W27634  10.461  15.710  12.819 -0.0531 -0.3154 -0.0296
 9431W        W27635  17.753   7.669   0.282  0.0873 -0.0520  0.2705
 9432W        W27636   9.699   4.325  11.665  0.2176  0.0506 -0.1880
 9433W        W27637  13.528  17.258   4.888 -0.1970  0.1463  0.0642
 9434W        W27638   5.438  11.404   1.264  0.0753 -0.3101  0.0475
 9435W        W27639  11.083  14.435  11.551 -0.1486 -0.1651 -0.1046
 9436W        W27640   8.263  15.358   2.447 -0.2133 -0.3314  0.0258
 9437W        W27641   3.973   2.210   1.354  0.0544  0.0255 -0.0987
 9438W        W27642  12.947  11.496  12.522  0.2177 -0.1730  0.0292
 9439W        W27643  17.657   3.346   3.270  0.0844  0.2430 -0.0139
 9440W        W27644   6.285  12.825  14.211  0.0542 -0.2798 -0.1518
 9441W        W27645   8.936  11.876   3.654 -0.1841  0.0887 -0.1178
 9442W        W27646   0.788   2.429   1.553 -0.2264  0.1282  0.1135
 9443W        W27647   0.919  15.483  13.314  0.1153  0.0357 -0.3002
 9444W        W27648   1.175  14.669   2.817 -0.1295 -0.0099 -0.1629
 9445W        W27649  16.890   3.919   2.888 -0.0311 -0.0762 -0.2790
 9446W        W27650   5.330  16.803   0.553  0.1525 -0.1272  0.1431
 9447W        W27651  16.699  15.443  11.290  0.2117  0.1053  0.0659
 9448W        W27652   0.045   5.684  13.881 -0.1973  0.0987  0.2912
 9449W        W27653   3.949  16.563  15.714 -0.1917 -0.2662 -0.1488
 9450W        W27654  10.008   9.059  13.443  0.1991  0.0089 -0.0907
 9451W        W27655   4.240  12.890   0.943 -0.2448  0.1274  0.1628
 9452W        W27656   6.427  10.684   2.047 -0.0064 -0.0874  0.0405
 9453W        W27657   8.330   5.599  13.912 -0.1063  0.3413 -0.3088
 9454W        W27658  14.357   6.537  15.675  0.0020  0.0020  0.0546
 9455W        W27659   6.087   0.242   2.874  0.2403  0.1679 -0.1783
 9456W        W27660   5.900  13.738   2.107  0.1262  0.0335  0.1287
 9457W        W27661   3.252   5.318  14.046  0.2366  0.0597  0.2230
 9458W        W27662  12.672  13.730   4.943  0.1329  0.1169 -0.2794
 9459W        W27663  16.087  17.341  11.575  0.0584 -0.0743 -0.2299
 9460W        W27664  10.932  10.928  13.471 -0.3862 -0.2779  0.1694
 9461W        W27665  16.977   0.104  16.035 -0.1117 -0.2771 -0.1620
 9462W        W27666   1.347  16.009   1.629 -0.1414 -0.1417  0.1032
 9463W        W27667   0.361  13.510  13.991  0.1596  0.2232 -0.1208
 9464W        W27668   7.695  15.283   0.685 -0.1676  0.1734  0.0456
 9465W        W27669  13.830  11.389   4.526 -0.1439  0.0650  0.2602
 9466W        W27670  12.679   7.374   1.250 -0.3540  0.0163  0.0019
 9467W        W27671   0.960   7.601   4.379 -0.0518  0.1040 -0.0302
 9468W        W27672   2.145   5.277   3.233 -0.0954  0.1340 -0.1006
 9469W        W27673   6.250   4.976   2.871  0.0128  0.0689  0.0864
 9470W        W27674   6.394   5.914   0.254  0.0472 -0.0452 -0.0810
 9471W        W27675  14.295   0.825  14.383 -0.0182 -0.1546  0.0964
 9472W        W27676   0.092  16.763  13.494  0.2982 -0.0975  0.2529
 9473W        W27677   4.331   3.819   2.795  0.0602  0.2582 -0.0834
 9474W        W27678   8.200   2.808  16.135 -0.0043 -0.0054  0.1827
 9475W        W27679   6.605   3.667  15.018 -0.0478 -0.0834  0.1495
 9476W        W27680   9.509   5.427   0.037 -0.0126 -0.2597  0.1277
 9477W        W27681  12.132   0.835   1.567 -0.1916 -0.1814 -0.1912
 9478W        W27682  10.237  15.003  14.869  0.1886  0.3280 -0.3550
 9479W        W27683   9.869   7.502  13.885 -0.0425  0.2592  0.0320
 9480W        W27684   9.379   3.855  13.553 -0.1511  0.0184  0.0416
 9481W        W27685  12.008  12.338  13.897 -0.1094 -0.3324 -0.0321
 9482W        W27686   1.660   6.865  14.260 -0.0811 -0.0605 -0.1718
 9483W        W27687  16.402   5.931   4.634 -0.2659  0.0965 -0.0927
 9484W        W27688   8.315   9.103  13.471 -0.0294  0.2748  0.1085
 9485W        W27689   7.513  13.950   0.384 -0.4069 -0.2342 -0.1739
 9486W        W27690   0.894  14.872   2.303  0.3044 -0.0071  0.1078
 9487W        W27691   7.817  16.099   1.347 -0.0948  0.0568 -0.1585
 9488W        W27692   6.758  14.067  15.573  0.0013 -0.2380  0.0471
 9489W        W27693   4.604  15.014  13.386 -0.1537 -0.0639  0.1169
 9490W        W27694   2.958  15.889   2.017  0.2604  0.1575  0.2715
 9491W        W27695  14.711  17.095  13.762  0.0050 -0.0214 -0.3659
 9492W        W27696   9.391   8.582   5.192 -0.1033 -0.3845  0.1371
 9493W        W27697   6.965  10.434   1.715  0.0125  0.1226  0.0680
 9494W        W27698  10.725  15.975  14.137  0.0093 -0.0924  0.3701
 9495W        W27699  16.809   8.039  15.617 -0.1409  0.2819 -0.0016
 9496W        W27700  11.022   3.271   0.327 -0.0528 -0.2651  0.3236
 9497W        W27701   5.094   2.357  12.178 -0.4564 -0.0065 -0.0559
 9498W        W27702  16.957   3.947  14.330 -0.0434  0.0586  0.1384
 9499W        W27703   9.893   4.757   2.916 -0.0727  0.3054 -0.0897
 9500W        W27704   0.095   1.130   0.586 -0.0720  0.0512 -0.0449
 9501W        W27705   0.813   2.898   1.435  0.0547  0.2713 -0.1993
 9502W        W27706   1.196  14.088   4.830  0.0390 -0.0327 -0.0503
 9503W        W27707   8.856   4.667   2.093  0.2031  0.0291 -0.3138
 9504W        W27708   2.724   8.076   2.428 -0.5106  0.2566  0.1276
 9505W        W27709  11.290  12.599  12.381  0.0518  0.1737 -0.0219
 9506W        W27710  17.036  11.172  14.433 -0.0062 -0.1476  0.1605
 9507W        W27711  12.628   8.635  14.958  0.0795 -0.1047 -0.1638
 9508W        W27712   5.142   9.836  15.745 -0.2448 -0.2750  0.0752
 9509W        W27713  16.541   0.994   1.765  0.3511  0.2153  0.4059
 9510W        W27714   1.983  14.091   4.440 -0.1367  0.1448  0.1492
 9511W        W27715  17.417   7.112  13.677 -0.1460 -0.1963 -0.0102
 9512W        W27716   1.468   6.961   4.618 -0.1083 -0.3044  0.0156
 9513W        W27717  10.699   1.240  13.144 -0.1818 -0.1777  0.1396
 9514W        W27718   4.817   7.788   4.910  0.0205  0.0921 -0.0245
 9515W        W27719   1.132  11.833   2.788  0.0289  0.4428 -0.2590
 9516W        W27720  17.894  14.302   0.658 -0.1902 -0.2436 -0.0865
 9517W        W27721  17.517   7.885   4.758 -0.1572 -0.0169  0.5587
 9518W        W27722  15.687   7.140  14.026 -0.0790  0.0714 -0.1852
 9519W        W27723   5.138   1.464  15.615 -0.0916  0.0009 -0.0245
 9520W        W27724   3.577   4.463   4.537  0.0532 -0.1462  0.1956
 9521W        W27725   4.630  13.239   3.929 -0.1307 -0.0669 -0.0019
 9522W        W27726   2.572   2.190   4.376 -0.0194 -0.0226  0.1968
 9523W        W27727   3.965  11.797   1.969  0.1880  0.1245  0.1350
 9524W        W27728  16.236  11.098  11.202 -0.1001 -0.1248 -0.0141
 9525W        W27729   8.343  14.781   2.250  0.2703 -0.0965 -0.0298
 9526W        W27730   0.634  16.564   3.985  0.0088  0.1881 -0.2322
 9527W        W27731  11.185   2.510  15.509 -0.0140  0.0286 -0.1103
 9528W        W27732   9.604   8.850  13.747 -0.0291 -0.1038  0.3108
 9529W        W27733   8.307  13.069  13.963 -0.1623 -0.0593 -0.1942
 9530W        W27734   8.526  11.980   3.864 -0.2061  0.1506  0.0267
 9531W        W27735   6.763   2.849   2.248  0.1776 -0.3264  0.0174
 9532W        W27736   5.791  10.833  14.357 -0.1313  0.0614  0.1947
 9533W        W27737  13.220   7.067  12.149 -0.0865  0.1581  0.0433
 9534W        W27738  17.038   4.831  15.884  0.2407  0.0031 -0.0648
 9535W        W27739   7.778   0.545   3.651  0.3292  0.3574 -0.1318
 9536W        W27740   2.549   6.175  13.501  0.0567 -0.1422 -0.1282
 9537W        W27741   4.332   4.988   1.851  0.1208  0.4722 -0.3583
 9538W        W27742  17.443   3.694  14.948  0.1662 -0.2807 -0.0715
 9539W        W27743   5.431   7.388  11.744 -0.0934 -0.0773 -0.0803
 9540W        W27744   7.575  14.823   3.092  0.0005 -0.2895  0.2525
 9541W        W27745   3.440  16.682  16.019 -0.4133 -0.0617 -0.2623
 9542W        W27746   2.470  17.702  13.894  0.0471 -0.0270 -0.4039
 9543W        W27747  15.557   8.682   0.286 -0.1952 -0.2640  0.1290
 9544W        W27748   1.712   3.521  11.685  0.3889  0.0189  0.2149
 9545W        W27749   8.883   6.445   3.626 -0.0773 -0.0162  0.0974
 9546W        W27750  11.738  15.353  14.636  0.0044 -0.0119  0.2930
 9547W        W27751   7.179   6.372   4.296 -0.0898 -0.0528  0.0883
 9548W        W27752  11.353  12.517  15.571 -0.1935  0.0428 -0.0165
 9549W        W27753   2.263   9.447  13.495 -0.2587 -0.0101 -0.0160
 9550W        W27754   8.379  10.640   4.182 -0.1561 -0.0084  0.0240
 9551W        W27755   4.593   2.991  14.098 -0.0276 -0.0433 -0.1840
 9552W        W27756  12.909   3.427   4.496 -0.1478  0.0845  0.1566
 9553W        W27757   6.206  11.816  11.932  0.2444 -0.1670  0.0826
 9554W        W27758   5.212  11.088   4.291 -0.0991 -0.2975  0.3729
 9555W        W27759   2.459  10.038  11.920  0.2170  0.1254 -0.3493
 9556W        W27760  14.571   4.464  13.397  0.2130  0.0122  0.1327
 9557W        W27761   3.000  15.112   0.090  0.0489  0.1377  0.0439
 9558W        W27762  14.632  11.612  11.755  0.0511  0.0439  0.1173
 9559W        W27763  13.382  15.193   4.790  0.1966  0.1098  0.1280
 9560W        W27764  12.470   2.119   3.038  0.2554 -0.2367 -0.1639
 9561W        W27765  11.967  16.106   1.561 -0.1582  0.1415 -0.1845
 9562W        W27766   8.108  11.315   1.000 -0.0046  0.0171  0.0549
 9563W        W27767   8.940   0.708   3.705 -0.2588 -0.1914 -0.0828
 9564W        W27768  12.026  14.423  12.756 -0.0927 -0.1382 -0.1740
 9565W        W27769   1.002   9.946  11.942 -0.0119  0.1521 -0.1900
 9566W        W27770   2.771   6.897  14.827 -0.0320 -0.0090 -0.0543
 9567W        W27771  15.660   1.412   2.170  0.2655 -0.0216  0.2934
 9568W        W27772  12.850   0.120   1.453 -0.1226  0.0719 -0.2189
 9569W        W27773   6.314  14.445   2.331  0.1340  0.0087  0.0525
 9570W        W27774   7.213   8.723  14.890  0.2142  0.3227  0.0256
 9571W        W27775   5.411  14.784   5.202 -0.2647 -0.0494 -0.0813
 9572W        W27776   9.517  11.858   2.043  0.0702 -0.0286  0.2630
 9573W        W27777  13.343  15.785  13.184 -0.1033  0.2531  0.2041
 9574W        W27778   9.325   6.343  12.402  0.1165 -0.0815  0.0656
 9575W        W27779  15.243  11.815   2.338  0.0791 -0.0141  0.0640
 9576W        W27780   0.034   7.641  15.409 -0.0567 -0.1561 -0.2584
 9577W        W27781  16.780   3.177  13.241 -0.1433  0.0444 -0.0798
 9578W        W27782   3.748   6.492   2.473 -0.1231  0.2507  0.0561
 9579W        W27783  15.440  12.826   3.722 -0.1962  0.2262  0.2135
 9580W        W27784   3.592  12.712  12.698  0.2754  0.0272  0.1362
 9581W        W27785   7.489   9.401  14.114 -0.1435 -0.3302  0.0338
 9582W        W27786  16.128  17.035  13.826 -0.0283  0.0348  0.0147
 9583W        W27787  11.045  15.033   0.939 -0.0935 -0.1034 -0.0129
 9584W        W27788  11.808  10.133  15.545 -0.0014 -0.1182  0.2541
 9585W        W27789   1.467   2.641   0.848  0.2396 -0.0054  0.2226
 9586W        W27790   5.053   3.087  15.313 -0.2528  0.0798 -0.0233
 9587W        W27791   2.541  11.963   1.376 -0.5783 -0.1321  0.3426
 9588W        W27792  16.460   0.176   4.605  0.0512  0.0771  0.1382
 9589W        W27793  15.433   5.811   2.712  0.1526  0.1473 -0.2598
 9590W        W27794   0.766  14.246   3.061  0.3802  0.0228  0.0220
 9591W        W27795  16.502   8.365   1.734  0.2563 -0.0967 -0.0239
 9592W        W27796  15.642   9.023   2.203  0.0709 -0.1481 -0.1482
 9593W        W27797   1.000   2.967  12.301  0.0005  0.1566  0.1339
 9594W        W27798  10.403  12.752  12.353 -0.2942 -0.0255 -0.0729
 9595W        W27799   3.655   5.697   0.561 -0.0394 -0.0674  0.0301
 9596W        W27800  13.679  16.827   1.140 -0.4178 -0.2090  0.2877
 9597W        W27801  12.449   2.410  11.740 -0.0183 -0.1296 -0.1492
 9598W        W27802   1.526  15.239   1.228 -0.2374  0.0513  0.2977
 9599W        W27803   6.548  11.241  15.292  0.0369 -0.0296  0.2767
 9600W        W27804  11.270  15.749  11.158 -0.3744 -0.0742 -0.0933
 9601W        W27805   7.734  17.156  11.258  0.1649  0.0272 -0.0425
 9602W        W27806  16.282   9.004   0.702 -0.0647  0.0863 -0.1564
 9603W        W27807   8.562   3.281   0.706  0.3473 -0.0997  0.1718
 9604W        W27808   0.588  17.079   3.171  0.1534  0.0440 -0.2829
 9605W        W27809   5.899  12.691  15.416 -0.1752 -0.1661 -0.2169
 9606W        W27810   2.353  11.521  16.107  0.2598  0.0190 -0.5195
 9607W        W27811   7.726   8.451   0.701 -0.1664  0.0957  0.2232
 9608W        W27812  11.684   4.849  12.891  0.0044  0.2189  0.0280
 9609W        W27813   0.342   1.573  12.106  0.1717 -0.2102 -0.0498
 9610W        W27814   4.717   3.222   1.571  0.1866 -0.0812 -0.3044
 9611W        W27815   2.888   1.012  11.476 -0.0100 -0.1194 -0.0625
 9612W        W27816   2.556  17.215  15.235  0.0877 -0.2970 -0.1099
 9613W        W27817   0.071  15.177  12.385  0.1363  0.4206 -0.0003
 9614W        W27818   2.448   2.876   3.124  0.1887  0.2497 -0.0603
 9615W        W27819  13.893   5.140  13.512  0.3145  0.0890  0.0659
 9616W        W27820   2.801  17.458  12.077 -0.2950 -0.1359 -0.0364
 9617W        W27821  12.495   4.238  15.986 -0.1218 -0.0989 -0.0972
 9618W        W27822   3.940  17.975  14.371  0.2122  0.0252 -0.0105
 9619W        W27823  17.918   8.139  15.674 -0.0839 -0.0546 -0.2785
 9620W        W27824  12.699   9.452  15.720 -0.2084  0.4700 -0.0079
 9621W        W27825  17.390   4.268   0.549  0.2511 -0.1578 -0.0807
 9622W        W27826   6.477   0.788  15.684 -0.0338  0.2575  0.2422
 9623W        W27827   7.964   0.449  15.793  0.1953  0.0927  0.0027
 9624W        W27828   9.942  10.758  13.979 -0.2390 -0.0568 -0.0905
 9625W        W27829   9.027   1.284  15.156  0.0924  0.0067 -0.1723
 9626W        W27830   6.010   9.019  15.792 -0.1240 -0.1402 -0.3016
 9627W        W27831   6.212   3.813  14.664 -0.0771  0.2703  0.0426
 9628W        W27832  10.541  16.312  13.371 -0.1753  0.0787  0.1165
 9629W        W27833   1.136  17.981   0.304  0.0619  0.1210  0.0052
 9630W        W27834   0.084  17.378   2.119 -0.1957  0.1420 -0.0871
 9631W        W27835  13.653   3.039  15.952 -0.0369 -0.3115  0.1458
 9632W        W27836  13.671   5.561  11.909  0.1115  0.1695  0.0113
 9633W        W27837  13.650   6.083  13.595 -0.1119  0.0235 -0.1025
 9634W        W27838  14.147  13.830  16.072  0.1785  0.2926 -0.2866
 9635W        W27839   7.170   4.914   1.677 -0.2553  0.0681 -0.1808
 9636W        W27840  11.097  11.673  14.655 -0.0517  0.1678 -0.0907
 9637W        W27841   5.377   0.041   4.790  0.1295  0.0676 -0.0055
 9638W        W27842   9.517  11.982  14.307 -0.0826  0.1560 -0.3121
 9639W        W27843  14.849   5.676   2.372 -0.1375  0.2399  0.1221
 9640W        W27844  17.763   8.189   2.409  0.2358 -0.0368 -0.1792
 9641W        W27845   0.511   1.099   3.905 -0.2157  0.1153  0.3955
 9642W        W27846  11.656  14.106  11.893 -0.1501 -0.0204  0.2389
 9643W        W27847  15.136   4.817  12.757  0.0380 -0.0416  0.1534
 9644W        W27848   0.470  10.059   0.545  0.0677 -0.0203  0.2322
 9645W        W27849  12.265   6.976   3.727 -0.0585 -0.1104 -0.3240
 9646W        W27850  13.657  13.817  15.227  0.0309 -0.1193  0.1009
 9647W        W27851   0.244  13.562   1.040 -0.0747  0.1621  0.0073
 9648W        W27852   9.942   9.005   2.923  0.2331  0.1332  0.0644
 9649W        W27853   9.689   6.013  12.619 -0.0454 -0.1133 -0.0494
 9650W        W27854   3.768   7.929   0.002 -0.0037  0.0041  0.1773
 9651W        W27855   1.077   0.097  11.968 -0.2098 -0.2401 -0.2794
 9652W        W27856  12.372  14.316  16.097  0.1661  0.2991  0.1518
 9653W        W27857  12.384  11.557   4.435 -0.1360 -0.1787  0.1410
 9654W        W27858   3.826   4.859   1.943  0.1606  0.0307 -0.2918
 9655W        W27859   6.646  17.842  11.827  0.1365  0.1677 -0.0728
 9656W        W27860   5.701   9.311   0.789 -0.0825  0.1216 -0.0399
 9657W        W27861  14.810   9.564   2.143 -0.1703 -0.1020  0.1916
 9658W        W27862   4.327  17.210   5.524 -0.0423 -0.2588  0.1811
 9659W        W27863   1.051  14.208  13.512 -0.1453 -0.0521 -0.0120
 9660W        W27864  10.129   9.276   3.340  0.0476 -0.2270  0.2185
 9661W        W27865  13.479   9.954  16.151 -0.0342  0.0302 -0.0041
 9662W        W27866  13.638   0.327   2.985  0.0611 -0.3236  0.0708
 9663W        W27867  13.904   6.919   4.817  0.1618  0.0983  0.1995
 9664W        W27868   6.850  12.845  14.430 -0.2889  0.1418  0.1585
 9665W        W27869  17.188  17.333  12.271  0.3768  0.2394  0.0480
 9666W        W27870  11.716   6.129  14.734  0.1540 -0.0055 -0.2319
 9667W        W27871  16.863   3.077   0.256 -0.1305  0.0077 -0.0148
 9668W        W27872   3.644   1.979   1.001  0.2243  0.1133  0.0659
 9669W        W27873  11.241   0.468  14.378 -0.0695 -0.1727 -0.0254
 9670W        W27874   3.219   8.968  13.499 -0.1210 -0.0667  0.0873
 9671W        W27875   7.267  13.093   1.174 -0.2864  0.0659 -0.0318
 9672W        W27876  10.545  16.026   4.139 -0.4456  0.0694 -0.0290
 9673W        W27877   8.478   3.826  15.425 -0.1371 -0.0717 -0.1052
 9674W        W27878   5.674   8.382  14.429  0.1684  0.0015 -0.1980
 9675W        W27879   2.566   8.329  13.799  0.2141 -0.3337 -0.2334
 9676W        W27880   4.801   1.439  14.231 -0.2104  0.0239  0.2571
 9677W        W27881  17.402   8.578   3.619 -0.0375 -0.1780  0.1175
 9678W        W27882   8.524  17.069   0.566  0.2088  0.3239  0.2308
 9679W        W27883  17.318  15.462   3.388 -0.0167  0.2872  0.2725
 9680W        W27884  14.108   6.649  14.251 -0.3785 -0.0649 -0.1171
 9681W        W27885   9.051  15.338   0.409  0.0590 -0.1174  0.3004
 9682W        W27886   7.332   6.254  16.014  0.1758  0.0086 -0.0683
 9683W        W27887   3.090   0.935   0.462 -0.3490 -0.0152  0.3489
 9684W        W27888  17.085   8.136   4.997 -0.0703 -0.1443 -0.2774
 9685W        W27889  14.130   6.029  10.711  0.1326  0.2314 -0.1387
 9686W        W27890   7.288  14.149  15.597  0.0815 -0.3303  0.1028
 9687W        W27891  12.570  17.956  11.235  0.3368  0.3913 -0.1742
 9688W        W27892  10.188  12.602  13.196 -0.1488 -0.0638 -0.0416
 9689W        W27893   2.269   3.778  15.467  0.0256 -0.0296 -0.1473
 9690W        W27894  10.692   6.061   2.413  0.1203 -0.4055  0.0538
 9691W        W27895   9.416  17.745   1.297  0.1344 -0.2616  0.2064
 9692W        W27896  14.365   1.324   0.305 -0.3480  0.1950  0.3719
 9693W        W27897   2.023  15.970   0.049 -0.0608 -0.3301 -0.1249
 9694W        W27898   5.580   6.118  15.071  0.0872  0.1023  0.1515
 9695W        W27899   3.950  14.384   2.119 -0.3225 -0.1533  0.2397
 9696W        W27900  17.929  10.039   5.335 -0.3427  0.0926 -0.0635
 9697W        W27901  17.175   8.096  12.750 -0.0969  0.0031 -0.1506
 9698W        W27902   1.077   9.594   2.285 -0.0895 -0.0085 -0.4102
 9699W        W27903  12.076  13.069  15.925 -0.1499 -0.2626 -0.0120
 9700W        W27904  16.819  10.590  13.609 -0.3261  0.0224  0.0814
 9701W        W27905   7.510   4.642   3.603  0.2090 -0.0296 -0.2252
 9702W        W27906   8.519   4.217  11.312 -0.1045  0.0711 -0.1749
 9703W        W27907  12.386   1.537  14.785 -0.2454 -0.0910  0.0797
 9704W        W27908   5.055  13.141  14.845  0.1684 -0.0933 -0.0789
 9705W        W27909   6.444   4.145  13.693  0.1132 -0.0731 -0.3335
 9706W        W27910   5.125   1.412   3.774 -0.0342 -0.0661 -0.0802
 9707W        W27911   6.371  17.759  11.440  0.0698  0.1069  0.1015
 9708W        W27912   5.775  12.269   4.333  0.2094  0.0308 -0.2530
 9709W        W27913  16.934   8.400   3.549  0.0332 -0.2520  0.0315
 9710W        W27914   6.082  15.611   5.056  0.1774 -0.0723 -0.0099
 9711W        W27915  11.371   0.449  11.347  0.0991  0.0803 -0.0309
 9712W        W27916   8.800   4.647  13.117  0.2474  0.1670  0.0253
 9713W        W27917   8.276   1.345   3.341 -0.0031 -0.1417 -0.0085
 9714W        W27918  11.995   8.367   6.185 -0.1201 -0.2014  0.0939
 9715W        W27919   1.980   4.795   0.057 -0.0994 -0.1135  0.0267
 9716W        W27920   5.562   2.526  12.370 -0.1597 -0.0902  0.2942
 9717W        W27921  13.563   7.294  14.481 -0.2466 -0.2096  0.1673
 9718W        W27922  16.409   0.586   0.975  0.3437  0.0366  0.1092
 9719W        W27923   6.138  16.177  13.391  0.0994 -0.0243 -0.0583
 9720W        W27924   8.001   6.737  11.650  0.1344  0.1289  0.1882
 9721W        W27925  14.706  15.515   3.984  0.2366 -0.0690 -0.0190
 9722W        W27926  10.149  15.575  15.759 -0.1216 -0.3296  0.0299
 9723W        W27927   1.587   9.721   4.309  0.1136  0.0105  0.0100
 9724W        W27928  10.353   8.211   4.280 -0.1053  0.0086  0.1770
 9725W        W27929  14.206   5.641   5.874  0.1657 -0.2321 -0.1293
 9726W        W27930  11.489  11.173   3.540  0.0217 -0.2357 -0.0498
 9727W        W27931   3.193   2.444   4.480  0.1562 -0.3951  0.1060
 9728W        W27932  13.945   1.480  10.340 -0.0974 -0.0170 -0.0705
 9729W        W27933   3.086  15.388   2.252  0.3386 -0.0067 -0.0274
 9730W        W27934  10.024  12.726   0.644 -0.4787 -0.0167  0.1406
 9731W        W27935   8.876  10.124   5.666  0.1387 -0.3446  0.1503
 9732W        W27936  13.608  11.078   0.022  0.2721 -0.0702 -0.2098
 9733W        W27937  16.320  13.353  14.462  0.4513 -0.1235 -0.1494
 9734W        W27938  10.832   4.700  12.060 -0.1458  0.0482 -0.1963
 9735W        W27939   2.385   3.393   3.300  0.1570 -0.0674 -0.1558
 9736W        W27940   9.205  17.364   4.006  0.3869  0.0010 -0.2253
 9737W        W27941  16.212  11.935   2.883  0.1134  0.0501 -0.1694
 9738W        W27942  12.972   1.221  13.355  0.2602 -0.1352 -0.2406
 9739W        W27943  14.525   1.641   3.719  0.0276 -0.0488  0.4681
 9740W        W27944   8.567  13.077  13.013  0.1715  0.3986 -0.3273
 9741W        W27945   8.263  10.661  13.756  0.0384  0.1443  0.1192
 9742W        W27946   1.125   6.744  12.252 -0.0978  0.1788 -0.1808
 9743W        W27947   4.053   6.704  15.259 -0.1087 -0.2044  0.0999
 9744W        W27948  17.564   3.698  13.545 -0.0145  0.1069 -0.1015
 9745W        W27949   7.899   5.174   2.929 -0.1497  0.1289  0.0845
 9746W        W27950  14.504   8.806   4.058 -0.0292 -0.2212  0.0621
 9747W        W27951  16.124   2.120  15.264  0.0937  0.1429  0.2754
 9748W        W27952  16.349   7.632  11.473 -0.0681  0.3501  0.0499
 9749W        W27953   7.095  12.062   4.254 -0.0466 -0.1515 -0.1047
 9750W        W27954  15.837   1.371  13.800  0.1149  0.0886 -0.2227
 9751W        W27955   4.597  11.375   0.554 -0.0707  0.2245  0.1727
 9752W        W27956   4.021   2.997  13.357 -0.0420 -0.0898  0.1853
 9753W        W27957   4.811   9.648   2.324 -0.1777  0.3092  0.2049
 9754W        W27958   6.667   1.332  15.502  0.0497 -0.1202  0.1571
 9755W        W27959   0.631  10.907  11.585  0.2358  0.0339 -0.1725
 9756W        W27960   1.149   3.873  13.253 -0.1664 -0.1839 -0.0901
 9757W        W27961   2.976  15.415  11.838 -0.1363  0.2486  0.1136
 9758W        W27962  11.976   5.513   0.614  0.0521  0.1714 -0.1036
 9759W        W27963  13.071  15.962   2.504 -0.0296 -0.1097  0.2621
 9760W        W27964  16.337  16.528  13.865 -0.2520  0.1420  0.2754
 9761W        W27965  16.514   7.929  10.488 -0.0761  0.0230  0.0648
 9762W        W27966   9.166  11.986  12.563 -0.1842 -0.1572 -0.1152
 9763W        W27967   7.563  16.345  12.550  0.1720  0.1544  0.1138
 9764W        W27968   1.590   6.991  13.410  0.0799  0.0151  0.1094
 9765W        W27969   2.974   5.163  12.238 -0.2578 -0.0360 -0.2832
 9766W        W27970  11.534   7.368   3.995 -0.0266  0.2672  0.2478
 9767W        W27971  15.280  11.993  13.527 -0.0927  0.1080 -0.0137
 9768W        W27972   7.330   8.854  13.051 -0.4970  0.0721 -0.0051
 9769W        W27973   8.684  17.844   0.415  0.0151  0.0767 -0.2244
 9770W        W27974   0.722  11.581   3.292  0.3043  0.1419 -0.1158
 9771W        W27975  12.836  14.768  14.258  0.1345  0.0306 -0.0595
 9772W        W27976  11.993  12.229   3.023  0.1759  0.0273  0.0791
 9773W        W27977  11.392   8.258  14.014 -0.0053 -0.1629  0.2252
 9774W        W27978   6.525  15.754  12.329 -0.0794 -0.3783  0.2406
 9775W        W27979   6.316  17.659   1.221  0.1693 -0.3276  0.3123
 9776W        W27980   3.547  14.808  16.164 -0.1853  0.1555  0.0470
 9777W        W27981   1.186   9.892   4.057  0.0313  0.1064 -0.2310
 9778W        W27982  10.099   5.805   0.908 -0.0868 -0.0776  0.0501
 9779W        W27983   8.383   1.370  10.723 -0.0968 -0.0067 -0.0397
 9780W        W27984   7.955  14.377   1.211  0.2360  0.0302 -0.1851
 9781W        W27985  13.009   0.351  13.037 -0.1268  0.1151  0.1473
 9782W        W27986   9.488   7.044  15.201  0.0254 -0.0693 -0.1653
 9783W        W27987  14.087   4.719  14.733  0.0008  0.0485  0.0584
 9784W        W27988  12.159   5.313  14.599 -0.1560 -0.0767  0.3088
 9785W        W27989  15.548  14.867   2.554  0.3009 -0.0997 -0.0902
 9786W        W27990   9.096  11.484  12.470  0.0695  0.2093  0.0701
 9787W        W27991   2.697   8.806  11.075  0.0263  0.0262 -0.1757
 9788W        W27992  15.781   9.472  13.019  0.1224 -0.0090  0.0498
 9789W        W27993  16.388  13.089  15.308  0.1485 -0.0986  0.2041
 9790W        W27994  14.270   3.460   4.210  0.2188  0.3717 -0.1502
 9791W        W27995  14.984  15.580  10.737  0.2658  0.0230 -0.0578
 9792W        W27996   7.121  13.750   1.668 -0.0599 -0.4597  0.1871
 9793W        W27997  15.734  10.590  15.001  0.3870  0.0687  0.1628
 9794W        W27998   7.160   4.291   4.338 -0.1031 -0.1277  0.0039
 9795W        W27999   1.569   8.852   5.184 -0.0353 -0.4097  0.0775
 9796W        W28000  13.408  17.967   3.464  0.3081  0.0839  0.0412
 9797W        W28001   6.036  16.343  14.256 -0.3001  0.0507 -0.1314
 9798W        W28002  10.604   5.210   2.741  0.2065  0.0637  0.0749
 9799W        W28003   7.008   1.501   3.095  0.0949 -0.0057  0.3048
 9800W        W28004  17.294   2.638  11.361  0.0653 -0.2146 -0.0935
 9801W        W28005  11.639  10.678   2.938  0.2088  0.0863  0.0309
 9802W        W28006  14.491  11.716   4.788 -0.2241 -0.0615 -0.0514
 9803W        W28007   3.914   2.431   0.275  0.2217 -0.1070 -0.3509
 9804W        W28008  11.267  16.429  12.002  0.2510 -0.0005 -0.1715
 9805W        W28009   3.093  15.475   1.345  0.1345  0.0074  0.1982
 9806W        W28010  16.444  11.501   2.867 -0.1701  0.1582  0.3229
 9807W        W28011   0.059   5.172   4.196 -0.1542  0.1082 -0.0997
 9808W        W28012  16.936  16.704  15.467  0.0219  0.2087 -0.2918
 9809W        W28013   2.556  13.789   0.910  0.0424 -0.0833 -0.1643
 9810W        W28014  11.222   5.668   1.789  0.2228  0.1566 -0.1157
 9811W        W28015  15.070   3.043  15.542 -0.0265  0.0916  0.2836
 9812W        W28016  11.048   2.605  12.634 -0.1258 -0.0365 -0.0482
 9813W        W28017  12.023  11.428   1.195  0.1990  0.0043  0.1408
 9814W        W28018   3.205   3.960   2.342 -0.0660 -0.1135  0.1003
 9815W        W28019   8.786   6.711  12.474  0.2792  0.2411 -0.0079
 9816W        W28020  17.834   2.244  13.521 -0.2061  0.2606 -0.1270
 9817W        W28021   3.270  14.161  12.126 -0.0308 -0.2652 -0.1330
 9818W        W28022  12.759   9.830  13.319 -0.0368  0.1297 -0.0596
 9819W        W28023  16.832   5.779  13.205 -0.0535 -0.1954 -0.1157
 9820W        W28024   7.114   8.227   0.678 -0.2270  0.1259 -0.4737
 9821W        W28025   3.948  14.150  11.575 -0.2258  0.4643 -0.0830
 9822W        W28026  11.288  13.914   4.281  0.0464  0.1383 -0.2438
 9823W        W28027   6.640  11.957  14.505 -0.3305  0.0090  0.0718
 9824W        W28028  17.027  10.060  14.565 -0.2410  0.0012 -0.1734
 9825W        W28029   7.698  14.367  12.577 -0.1727  0.1154 -0.1360
 9826W        W28030   1.063   0.993   3.587  0.3431  0.0401  0.1162
 9827W        W28031  11.406  12.904  13.275 -0.1012 -0.0739  0.0104
 9828W        W28032  13.506   9.447   0.395 -0.0265 -0.2474 -0.0328
 9829W        W28033   1.977   3.318  12.948  0.0005  0.0882  0.2070
 9830W        W28034   8.385   2.116   3.900 -0.0355  0.1816 -0.0958
 9831W        W28035   5.365   4.832  15.178  0.3882  0.1952  0.0220
 9832W        W28036   3.100   6.859   2.513 -0.0640  0.2778  0.1927
 9833W        W28037  16.940   7.060   1.746 -0.4473 -0.2404 -0.1167
 9834W        W28038  16.170  16.605  14.443  0.1240 -0.0601 -0.3596
 9835W        W28039   7.654   8.485   1.717  0.5885  0.1118 -0.0482
 9836W        W28040  13.860   3.611   2.902  0.1170  0.0380  0.0827
 9837W        W28041  17.178   9.502   0.610  0.0909 -0.3832 -0.2012
 9838W        W28042   0.162  11.792  11.644  0.1051  0.1747 -0.0679
 9839W        W28043  12.008  15.458  13.092 -0.1512 -0.1867  0.3532
 9840W        W28044  14.177   0.054   0.150 -0.1116 -0.1533  0.0605
 9841W        W28045  11.855   3.166   1.498  0.1658  0.0556  0.3667
 9842W        W28046   3.410   4.501   3.537 -0.0317 -0.1732  0.2307
 9843W        W28047  11.823  12.450   1.164 -0.0549  0.2212 -0.2026
 9844W        W28048   8.923   7.897  13.543  0.0042  0.1734 -0.1460
 9845W        W28049  14.238   3.826   2.620  0.2331  0.0809 -0.2295
 9846W        W28050  10.144  14.143   0.718  0.1007 -0.0547  0.1053
 9847W        W28051   3.970  10.666  11.963  0.1256  0.0251  0.1074
 9848W        W28052   4.339   2.439   4.552  0.3271 -0.0766  0.0778
 9849W        W28053  10.859   6.830  15.643  0.0536 -0.1341  0.1586
 9850W        W28054   9.072   7.842  14.040  0.3440 -0.2381 -0.0973
 9851W        W28055  14.633   0.347   0.292 -0.2295  0.0031 -0.1371
 9852W        W28056   9.130   5.833   3.529  0.2880  0.1893 -0.2401
 9853W        W28057   2.688   7.022  15.722 -0.2396 -0.0256  0.0720
 9854W        W28058  12.143   6.206  11.780  0.1308 -0.0302 -0.1504
 9855W        W28059   5.982   9.989  14.157  0.0492 -0.3784  0.1804
 9856W        W28060   0.665   6.554  11.387 -0.1115  0.1776 -0.0918
 9857W        W28061   9.173   0.786   2.634  0.0576  0.3725 -0.0426
 9858W        W28062  11.187  17.520   2.578 -0.0471 -0.0150  0.0900
 9859W        W28063   4.881   1.847  12.036  0.0016 -0.2966  0.1189
 9860W        W28064   9.882   9.139  14.769 -0.0826 -0.0811 -0.1466
 9861W        W28065   7.363   7.867  11.771 -0.2420 -0.0967  0.0120
 9862W        W28066   9.270   6.285  14.600  0.0711  0.0788 -0.0543
 9863W        W28067  13.565   8.813  15.499 -0.1227  0.2474 -0.1927
 9864W        W28068   8.930  13.736  12.705 -0.3084  0.0303 -0.0529
 9865W        W28069   5.755   0.137   2.470  0.2026 -0.2746 -0.2650
 9866W        W28070  16.143   3.990   1.311  0.0484  0.1343  0.1577
 9867W        W28071  18.025  14.923   3.992 -0.1736 -0.0287  0.0089
 9868W        W28072  10.653   1.069   3.615  0.0474  0.1303 -0.1364
 9869W        W28073  17.636   0.271  12.420  0.0377  0.0286  0.1289
 9870W        W28074  17.077   1.456  13.818  0.0474  0.1108 -0.0541
 9871W        W28075   9.288   4.351  15.285 -0.0526  0.3333 -0.0418
 9872W        W28076  11.300  16.435   2.479 -0.1038 -0.0903  0.2007
 9873W        W28077   2.432   7.301  14.774 -0.1044  0.1986 -0.2523
 9874W        W28078   3.777  15.830   1.904 -0.1959  0.1864  0.0740
 9875W        W28079   1.847  11.520  16.027  0.1818  0.2198 -0.2723
 9876W        W28080  15.401   0.256   4.552 -0.1349 -0.0069 -0.3127
 9877W        W28081   6.367  17.392   4.373  0.0802 -0.0951 -0.1049
 9878W        W28082  10.785  11.379   0.274 -0.1408  0.0592 -0.1318
 9879W        W28083   0.928  10.419  14.297 -0.2689 -0.1164 -0.0778
 9880W        W28084   3.573  10.806   4.278 -0.1049 -0.0871  0.1320
 9881W        W28085  17.946   3.156  15.856 -0.2102  0.1734  0.2461
 9882W        W28086   5.066  11.036  14.410  0.1283  0.0113  0.0195
 9883W        W28087  14.491   1.909   1.386 -0.0993 -0.1133  0.0088
 9884W        W28088   7.349   8.553   0.292  0.0874  0.0000  0.0516
 9885W        W28089  12.649   4.348   4.830  0.1055  0.3591 -0.1587
 9886W        W28090  12.493   4.612  15.610  0.1376 -0.1608  0.0238
 9887W        W28091   6.134   8.242   4.841 -0.0460 -0.0947 -0.3640
 9888W        W28092  15.447   6.957   3.224 -0.1272  0.1939  0.0051
 9889W        W28093   8.896   6.679  14.593 -0.1835 -0.0355  0.1976
 9890W        W28094  10.944  12.743   3.686 -0.0036  0.1579  0.1702
 9891W        W28095  16.952  10.063  13.582 -0.1003 -0.0035  0.1307
 9892W        W28096  17.573  14.136  14.553  0.2590 -0.2195 -0.3778
 9893W        W28097  16.057  12.370   2.120  0.0822  0.1093  0.1452
 9894W        W28098   0.596   3.987   5.941 -0.1997 -0.0705  0.0476
 9895W        W28099  13.897   8.217   4.627 -0.0791 -0.0006  0.0577
 9896W        W28100  14.333  10.812   4.257 -0.0211  0.1194  0.1566
 9897W        W28101   0.150  12.669   0.092 -0.1019 -0.0257 -0.0210
 9898W        W28102   8.665  11.438   4.074  0.0273 -0.2487 -0.4504
 9899W        W28103   6.547   7.853  13.770  0.0790 -0.0602  0.1035
 9900W        W28104   8.719   8.879  12.535  0.0715  0.0392 -0.2777
 9901W        W28105  12.361   6.095  13.119  0.3270 -0.0733  0.2975
 9902W        W28106  14.028   3.098  14.296 -0.1271 -0.0679  0.2557
 9903W        W28107  12.743   2.665   3.582  0.0325  0.0578  0.2295
 9904W        W28108   3.982  15.775  11.344  0.0155 -0.1665  0.0844
 9905W        W28109   8.237  15.971   1.172 -0.1096  0.2020 -0.2402
 9906W        W28110  14.452  12.018  14.663 -0.0562 -0.1085  0.2887
 9907W        W28111  13.363  13.633  12.525 -0.0130  0.2822  0.2248
 9908W        W28112   0.633   8.493   2.970  0.1180  0.1410  0.3636
 9909W        W28113   1.815  12.567  13.057 -0.0859 -0.1736 -0.0307
 9910W        W28114  14.006   1.897  10.666  0.0046  0.1159 -0.2360
 9911W        W28115  16.769  11.790   4.722 -0.1842  0.1020 -0.2600
 9912W        W28116  16.588  13.163   1.484  0.1294  0.2236  0.2632
 9913W        W28117   9.855  11.719  12.972 -0.3479  0.2277  0.0017
 9914W        W28118   3.044   5.581  15.822  0.4773 -0.0508  0.1991
 9915W        W28119   6.157  13.383  16.035  0.2050 -0.2258 -0.1596
 9916W        W28120  12.331  13.103   2.787  0.1584  0.1616  0.1184
 9917W        W28121  14.278   1.761   2.237 -0.1359  0.2339 -0.2039
 9918W        W28122   2.342  14.407  13.748  0.0153 -0.0782  0.1240
 9919W        W28123   0.749  11.663   0.664  0.1881 -0.2877  0.0116
 9920W        W28124  16.148  17.770  14.298 -0.1183 -0.0514 -0.0444
 9921W        W28125  11.422  14.935  10.513 -0.0966  0.3231 -0.0492
 9922W        W28126   2.481  18.003  12.221 -0.4321  0.0802 -0.2897
 9923W        W28127  14.929   2.232   2.560 -0.1197  0.1267 -0.0103
 9924W        W28128   3.519  12.704  15.774 -0.0402 -0.3894 -0.2519
 9925W        W28129  15.799  15.555  11.486  0.2804 -0.3011 -0.1567
 9926W        W28130  17.027   0.767   1.626  0.2408  0.0671 -0.1968
 9927W        W28131  12.256   4.759   4.751  0.0205 -0.0061  0.0147
 9928W        W28132  17.279  16.991  15.241  0.1065 -0.0421 -0.0252
 9929W        W28133  15.728   3.069  14.876 -0.3331 -0.0520 -0.1386
 9930W        W28134  17.504   2.541   0.830  0.1472 -0.0569 -0.0315
 9931W        W28135  17.847   4.952   1.836  0.0363 -0.0341 -0.1528
 9932W        W28136   4.700  17.467   1.095  0.4040  0.0375 -0.1726
 9933W        W28137   8.816  14.307   3.251 -0.0639  0.0083  0.2009
 9934W        W28138  17.770   2.676  14.002 -0.1833  0.2191  0.1630
 9935W        W28139  14.836  15.250  15.183 -0.2835 -0.1382 -0.0394
 9936W        W28140   8.220   3.737  10.385 -0.2998 -0.0491  0.1228
 9937W        W28141   5.418   5.160   3.325 -0.0188  0.2861 -0.2063
 9938W        W28142  13.678   2.101   4.329  0.0866 -0.1649  0.1786
 9939W        W28143  11.883  15.191  11.271 -0.1453 -0.3879 -0.0721
 9940W        W28144  13.817  11.598   0.679  0.2697 -0.1864 -0.1968
 9941W        W28145   7.982  13.368   4.870  0.1982  0.1181  0.0568
 9942W        W28146  16.679   0.909   0.271 -0.1942  0.1142 -0.0458
 9943W        W28147   9.687  15.093   1.483 -0.0503 -0.1154  0.2422
 9944W        W28148   2.009  15.583  12.315 -0.0775  0.0371 -0.3498
 9945W        W28149   0.728  16.685   2.461  0.0171  0.0446 -0.3306
 9946W        W28150   9.326  13.210  15.300  0.0757  0.1773 -0.1323
 9947W        W28151   7.086  18.026   3.632  0.1881  0.1790 -0.0098
 9948W        W28152  14.786  11.103   3.130 -0.1231 -0.1724  0.1442
 9949W        W28153   5.346  14.752   2.313 -0.0083 -0.0010  0.2235
 9950W        W28154  16.738   7.095  10.790 -0.1333  0.0630 -0.2354
 9951W        W28155  16.493  13.097  11.577 -0.0238 -0.0426 -0.0690
 9952W        W28156  10.153  13.154  13.923  0.0689 -0.2317  0.1751
 9953W        W28157  13.535  17.318   5.448  0.1489 -0.1306 -0.1017
 9954W        W28158   4.309  14.213   3.010 -0.2597 -0.0149 -0.0755
 9955W        W28159  10.863  12.720  12.136  0.3687 -0.0707 -0.1699
 9956W        W28160   6.214  13.138  11.705  0.0683 -0.0564  0.2788
 9957W        W28161  10.873  10.903  11.756  0.2976  0.1007 -0.1694
 9958W        W28162  17.532  12.167  11.555  0.3009  0.3513 -0.0952
 9959W        W28163  13.966  17.499  11.781  0.0007 -0.2192 -0.0144
 9960W        W28164   7.058   1.351   3.858  0.0345  0.3001  0.0623
 9961W        W28165  15.848  14.721   2.920 -0.1104 -0.3382  0.1428
 9962W        W28166   5.699   4.579  15.481 -0.2005 -0.0615 -0.0805
 9963W        W28167   9.772   9.747   0.960 -0.2969  0.1026  0.0117
 9964W        W28168  13.540   0.391  12.952  0.0126  0.1587  0.0813
 9965W        W28169  15.919   5.534   4.388  0.1164  0.5061 -0.2379
 9966W        W28170   8.459   0.456   1.596  0.3183  0.1357 -0.0437
 9967W        W28171   6.872  17.877  15.552 -0.1451  0.2224  0.4883
 9968W        W28172   6.298   5.602  12.011 -0.1465 -0.0094  0.2392
 9969W        W28173  11.424   1.954  12.902  0.0213  0.0334 -0.1907
 9970W        W28174  10.238  15.614  14.141  0.4707 -0.2271 -0.0764
 9971W        W28175   6.308  11.219   1.756  0.0387 -0.0856  0.0842
 9972W        W28176   9.708  10.211   0.644 -0.1253 -0.0028 -0.1273
 9973W        W28177  16.552  10.188   4.481  0.2524 -0.1047 -0.1105
 9974W        W28178   0.123  17.877  15.054 -0.2428 -0.1071 -0.3845
 9975W        W28179  11.750   0.326  14.353 -0.2399  0.1132  0.3320
 9976W        W28180   6.917  14.042   2.081  0.1625  0.3747 -0.1852
 9977W        W28181  17.944   5.677   1.235  0.0972 -0.0162  0.0383
 9978W        W28182  16.366   5.885  12.356  0.0141  0.0513 -0.3620
 9979W        W28183   0.299   3.643  15.720  0.1123  0.3533 -0.0739
 9980W        W28184   3.513  15.892   3.545  0.0371  0.2388 -0.3444
 9981W        W28185  11.488   3.666  13.450  0.0805 -0.2046 -0.2402
 9982W        W28186   1.998  10.328  10.664 -0.0453 -0.0686  0.1289
 9983W        W28187  15.061  11.793  15.907 -0.1101 -0.2378  0.0401
 9984W        W28188   4.873   5.081   2.850 -0.0899  0.0441  0.1296
 9985W        W28189   2.112   4.446  14.692 -0.2565  0.1247  0.0601
 9986W        W28190  15.660   3.722   0.368  0.2648 -0.2906  0.5038
 9987W        W28191   5.974  11.558   1.445  0.1464 -0.1545 -0.1820
 9988W        W28192   5.553  13.671  11.945  0.1272 -0.2782  0.2644
 9989W        W28193   2.590   3.906  15.071  0.2838 -0.0054  0.3473
 9990W        W28194   7.913  10.329  13.759 -0.2399 -0.1473 -0.1455
 9991W        W28195  10.482   0.396   0.741  0.1741 -0.1421  0.1443
 9992W        W28196   2.735  10.045  14.070  0.2294 -0.2923 -0.1267
 9993W        W28197   7.826  13.816   4.071 -0.1058 -0.1524  0.0272
 9994W        W28198  10.330   8.416   3.001  0.3590  0.1092  0.2025
 9995W        W28199   9.129   8.947   0.851  0.3159 -0.1919  0.1834
 9996W        W28200   0.575  15.765   4.484  0.0601 -0.2569 -0.1746
 9997W        W28201   5.601  12.487   2.401  0.3020  0.2323 -0.1452
 9998W        W28202   8.366  17.661   4.106  0.1373 -0.1256  0.0992
 9999W        W28203  13.758  12.667   3.431  0.1446  0.0201 -0.0507
10000W        W28204   6.798  10.453  13.948  0.1163  0.0731  0.1262
10001W        W28205  14.535  15.569  13.845  0.0056 -0.1583  0.1286
10002W        W28206   4.229  10.359   3.912  0.0659 -0.0150  0.1723
10003W        W28207   4.576   6.574  12.839 -0.1194  0.0284  0.2382
10004W        W28208  17.037   2.626   0.445  0.0405  0.1253  0.3218
10005W        W28209  15.489   4.569   4.803 -0.2513  0.0035 -0.2515
10006W        W28210   5.741  16.614  11.337 -0.0151 -0.2187 -0.1771
10007W        W28211   7.846  10.723   4.252  0.2454 -0.3453  0.1901
10008W        W28212  11.137  15.187  12.529  0.3076 -0.0856  0.1011
10009W        W28213  13.428   0.783   0.311 -0.2322  0.2886  0.0536
10010W        W28214   8.730  14.338   6.177  0.0056  0.1866  0.3722
10011W        W28215  17.081   2.721  13.179 -0.0650 -0.1261 -0.0926
10012W        W28216   2.019   3.811  11.936 -0.2243  0.0797  0.1886
10013W        W28217  10.273  13.480   5.002 -0.0170  0.0169  0.0217
10014W        W28218  11.858  13.792   2.405  0.1350 -0.0765  0.0112
10015W        W28219   3.032   5.156  11.710 -0.0278  0.2371  0.1823
10016W        W28220   7.394   1.688  13.696 -0.1124  0.3067 -0.2899
10017W        W28221  10.692   8.182   2.386  0.0187 -0.0920 -0.0668
10018W        W28222  14.852   7.151  11.884  0.0023  0.2760 -0.1166
10019W        W28223   7.898  17.557  15.777  0.1818  0.1014  0.1563
10020W        W28224   6.855  11.501   3.193  0.0077  0.0765 -0.1767
10021W        W28225   7.597  18.025  12.318  0.0956 -0.2477 -0.1341
10022W        W28226  15.972   4.018  13.286 -0.1027 -0.0769 -0.2837
10023W        W28227   9.595   7.310   1.589 -0.2862 -0.0626  0.1126
10024W        W28228  10.567  11.731   4.289 -0.0438 -0.1677 -0.0429
10025W        W28229   1.336   7.479  11.654  0.1845 -0.0395  0.0816
10026W        W28230  17.334  10.999   1.002 -0.0045 -0.1199 -0.1178
10027W        W28231  17.361  10.500  12.225  0.1838  0.1209 -0.3139
10028W        W28232  12.291  11.349   2.519 -0.1070  0.0791  0.1078
10029W        W28233   3.945   9.316   2.478 -0.0423  0.4167 -0.1609
10030W        W28234   1.652   3.028   3.809  0.0969  0.4484  0.0631
10031W        W28235   6.550   2.417  11.941  0.2526  0.1304  0.1113
10032W        W28236   4.785  16.742   1.080 -0.2077 -0.0997 -0.0464
10033W        W28237   4.777   2.570  14.265  0.1217 -0.1574  0.2349
10034W        W28238   8.522   5.165  12.408  0.0089 -0.3643 -0.0839
10035W        W28239   4.742   5.791   3.364  0.0961  0.1865 -0.1624
10036W        W28240  17.820   1.045   2.350  0.0616  0.0704 -0.1607
10037W        W28241  12.234   4.646  15.178  0.2518 -0.0354 -0.1189
10038W        W28242   2.305  11.905   2.647  0.1019 -0.1636  0.0582
10039W        W28243   1.234  16.391   2.038 -0.0362 -0.0817 -0.1527
10040W        W28244   8.594   3.098   1.235  0.0991  0.0191  0.0623
10041W        W28245  17.774  15.407  13.779  0.1749 -0.1263 -0.1016
10042W        W28246   0.723   0.563  13.942 -0.0442 -0.1061 -0.1500
10043W        W28247   8.993   6.843   5.232 -0.0674  0.0298  0.1107
10044W        W28248  11.101  16.522  15.809  0.2245 -0.0875  0.1393
10045W        W28249   4.563   5.458   1.916 -0.1581  0.0315  0.4610
10046W        W28250   7.914   7.425  13.141  0.4127 -0.0628 -0.1644
10047W        W28251   9.496   5.908  13.582  0.1091  0.0888  0.0550
10048W        W28252  17.053  13.044  11.444 -0.1750  0.1275 -0.0201
10049W        W28253   3.895  10.129   3.436 -0.1884 -0.0813  0.0957
10050W        W28254  10.916   8.783   1.226  0.1200  0.3187 -0.1256
10051W        W28255   1.633  10.220  13.301  0.0152  0.1245  0.1419
10052W        W28256   2.505   3.799   2.969  0.0558 -0.0925 -0.0821
10053W        W28257   7.520  10.835   3.873  0.0984  0.0169 -0.0090
10054W        W28258   5.958   6.765  11.433  0.3681  0.1290  0.2854
10055W        W28259   2.076  13.983  11.668  0.0093 -0.0832  0.1157
10056W        W28260   6.669   8.131   5.164  0.0795 -0.0948 -0.1088
10057W        W28261   5.100  16.293  14.847 -0.2245  0.0810 -0.1942
10058W        W28262  17.477   8.843  12.175 -0.2615  0.0256 -0.1091
10059W        W28263  16.802  11.247   4.743  0.0175 -0.0922 -0.1864
10060W        W28264   7.247   5.158   0.740 -0.1413 -0.0402  0.0593
10061W        W28265  17.430  10.319  12.750  0.1919 -0.2048 -0.1100
10062W        W28266  15.353  16.547   1.842 -0.0720  0.0839  0.1560
10063W        W28267  15.725   3.085   1.079 -0.3155  0.0180  0.0637
10064W        W28268  12.555  15.960  12.391 -0.1108 -0.1291 -0.0462
10065W        W28269   5.201   8.939   3.034 -0.3241  0.0719 -0.1473
10066W        W28270   5.973  12.466   3.363  0.0368  0.2724 -0.0093
10067W        W28271   1.576   9.771   4.831 -0.1608 -0.1167 -0.0786
10068W        W28272  16.555   0.641  14.550  0.0051 -0.4451  0.0368
10069W        W28273  10.486   1.872  12.679 -0.0879 -0.0491  0.0518
10070W        W28274   6.087   3.971  11.843  0.1282 -0.0901 -0.2078
10071W        W28275   0.073   9.677  15.811 -0.0927 -0.1828 -0.1956
10072W        W28276   4.132  14.201   4.774 -0.0616  0.1189 -0.0447
10073W        W28277  11.080   7.755   3.151  0.0629 -0.0426  0.1283
10074W        W28278   8.094  16.327   0.808 -0.1987 -0.1237 -0.1037
10075W        W28279  12.600   4.947   1.728  0.0361  0.0206  0.1781
10076W        W28280   0.953   5.197   0.667 -0.2016  0.0851 -0.4473
10077W        W28281   5.335   7.176   5.230 -0.3182  0.1043  0.0078
10078W        W28282   4.333   2.502   2.525 -0.1201 -0.1458 -0.0928
10079W        W28283   9.583   3.273   0.001 -0.3956  0.0818 -0.0554
10080W        W28284   7.372  17.816   4.099  0.2206  0.2752  0.1332
10081W        W28285  14.921  10.177  14.458  0.0390 -0.3160 -0.0400
10082W        W28286  15.757   2.490   4.154  0.0955 -0.0676  0.0746
10083W        W28287   9.882   7.090  12.643  0.0095 -0.0052 -0.0074
10084W        W28288   5.716  12.581  13.460 -0.0546  0.1922 -0.1387
10085W        W28289  17.741   9.364  13.739 -0.1172 -0.2258  0.0343
10086W        W28290   4.976   1.765  14.737 -0.0934 -0.1141 -0.0833
10087W        W28291   6.727   6.783   0.204  0.2473 -0.1547  0.0842
10088W        W28292   2.659   6.115   1.749 -0.0280  0.3095  0.0147
10089W        W28293  10.698  10.196   3.687 -0.1684 -0.3966 -0.2161
10090W        W28294   5.593   4.163  11.534 -0.2289  0.0550 -0.0247
10091W        W28295   4.723   7.738   3.259 -0.2648  0.0129  0.2645
10092W        W28296   4.071  17.060  15.719 -0.1819 -0.2305  0.2140
10093W        W28297   4.331  13.220   3.150 -0.0605 -0.2563  0.0545
10094W        W28298  14.653   6.176   5.288  0.0719 -0.0504  0.1565
10095W        W28299   3.017  13.245  14.890 -0.0037 -0.0356 -0.0610
10096W        W28300  12.811   2.077   4.708 -0.1137  0.2967  0.2514
10097W        W28301  16.274   7.692   2.721 -0.1640 -0.0733  0.0569
10098W        W28302   8.924  17.731   4.050  0.2353 -0.1975 -0.1656
10099W        W28303  10.480  17.696  12.728 -0.0094  0.0134 -0.1749
10100W        W28304   0.256   7.078   3.750  0.1365  0.0890  0.2457
10101W        W28305   5.921  15.186   3.437 -0.1094 -0.2247  0.1681
10102W        W28306   8.866  11.796  15.641  0.0003 -0.1777  0.1040
10103W        W28307  15.675  13.854   2.158 -0.1027 -0.1585  0.0982
10104W        W28308   4.530  18.020   0.316 -0.0296  0.0758  0.0842
10105W        W28309   3.085  17.901   3.114  0.2149 -0.0226  0.2180
10106W        W28310   3.444   4.102   0.717 -0.3853 -0.0716  0.2003
10107W        W28311   6.368  13.249   0.809 -0.0922  0.1543  0.0951
10108W        W28312  10.209  14.444  15.970 -0.2119 -0.0698 -0.0077
10109W        W28313  11.943  10.862   3.284  0.2939  0.3101  0.0511
10110W        W28314   4.677  13.784  13.130  0.0029  0.1746  0.1014
10111W        W28315  10.346  15.749   0.468 -0.1293  0.1598 -0.0521
10112W        W28316  12.700   0.896  11.298 -0.1175 -0.0149  0.4428
10113W        W28317   5.993   4.871   1.088 -0.2128  0.0722  0.2750
10114W        W28318   5.979  13.548  14.526  0.1164 -0.2677  0.1664
10115W        W28319  11.909  11.968   1.484  0.0165 -0.3681  0.0294
10116W        W28320   4.525  13.559  10.587  0.1996 -0.0055  0.1544
10117W        W28321   2.386  10.154  12.430 -0.2985  0.0883 -0.0145
10118W        W28322   0.505   4.852   2.939  0.0964  0.2074  0.0428
10119W        W28323   8.058   0.823   4.042 -0.2199 -0.1975  0.0535
10120W        W28324   0.138   8.477   3.124 -0.2104 -0.1770  0.1715
10121W        W28325  15.289  12.767  12.314 -0.0179  0.1013  0.0970
10122W        W28326   4.885   7.014   0.571 -0.1156 -0.2524  0.0971
10123W        W28327   0.356  11.286  13.620  0.2855  0.3604  0.1796
10124W        W28328  17.361   5.387  15.193  0.0901 -0.1016 -0.1643
10125W        W28329   3.387   1.136  12.379 -0.2443  0.3036 -0.0977
10126W        W28330  17.534  14.357  15.064  0.1234 -0.0890  0.1677
10127W        W28331   7.796  17.639   3.248  0.0183 -0.0678  0.4152
10128W        W28332   9.493   5.468   2.340 -0.0853 -0.0252  0.1842
10129W        W28333   3.721  12.926   0.694  0.1827 -0.4884 -0.1362
10130W        W28334  15.522  16.036  14.452  0.2164  0.4308  0.0781
10131W        W28335   4.343  14.932  11.993  0.0619  0.1841 -0.0151
10132W        W28336   2.529   8.064   0.868 -0.0552 -0.0035  0.0243
10133W        W28337  11.886   3.993  13.548 -0.1233 -0.0003 -0.3045
10134W        W28338   8.795   0.345   4.608 -0.0740 -0.1234  0.3325
10135W        W28339   0.048  10.914  13.349 -0.0785  0.0569  0.3563
10136W        W28340  10.538   9.068   0.972 -0.4504  0.0727  0.0392
10137W        W28341   3.538  16.010  13.225 -0.1821 -0.0375 -0.1267
10138W        W28342   2.487   7.388   1.518  0.0141 -0.2085 -0.1071
10139W        W28343  10.090  11.801  13.440  0.0524  0.1438  0.0342
10140W        W28344   1.377  10.490  13.640  0.0147  0.1904  0.3149
10141W        W28345   8.749  10.513  11.834  0.0183  0.0446  0.1053
10142W        W28346  15.603  12.950  14.858 -0.1674 -0.2963 -0.1505
10143W        W28347  15.251   4.352   1.708 -0.2442 -0.1099  0.0664
10144W        W28348   3.757   9.188  12.638 -0.1682 -0.1546  0.1973
10145W        W28349   7.395  13.101  15.697  0.0054 -0.0314  0.0239
10146W        W28350  10.389   2.884  13.995 -0.0665 -0.0202 -0.0571
10147W        W28351   3.142   3.453  15.527  0.2364  0.0373 -0.1614
10148W        W28352  17.011  12.537   1.979 -0.1918 -0.1809 -0.1485
10149W        W28353  11.652   6.158   2.848 -0.1562  0.0901  0.1245
10150W        W28354  11.195  17.289   0.402  0.1554  0.0533 -0.0067
10151W        W28355   9.596  14.521   5.781  0.0396  0.3262 -0.0459
10152W        W28356  16.741  16.446   0.655  0.3243  0.0881  0.0617
10153W        W28357   3.645  16.180  14.262 -0.0653 -0.0692  0.1552
10154W        W28358   9.440  16.583  13.427 -0.2258  0.0679 -0.0381
10155W        W28359   6.860   0.690  11.721  0.1902 -0.1979  0.0033
10156W        W28360   5.887   5.401   3.600 -0.0369 -0.3549 -0.0478
10157W        W28361   5.248   3.545  15.462 -0.3549 -0.3071 -0.1595
10158W        W28362   8.177  11.453   5.136 -0.0092  0.1579  0.1402
10159W        W28363  16.478  14.932   0.732  0.1403 -0.0593 -0.1365
10160W        W28364   1.125   8.209   1.297 -0.2716  0.2355 -0.1154
10161W        W28365   9.088   7.237   1.340  0.1124 -0.0102 -0.0524
10162W        W28366  12.361  10.622   3.526  0.0991 -0.0399  0.2005
10163W        W28367   1.575   2.815  11.726  0.0967  0.1860  0.0840
10164W        W28368   3.010  17.691  13.008  0.2668  0.0455 -0.0389
10165W        W28369  10.039  15.370  13.720  0.1283 -0.1314 -0.2350
10166W        W28370  14.365  14.171   1.656 -0.2633  0.1859 -0.2128
10167W        W28371  11.873  16.973   3.387 -0.1384  0.1863  0.1353
10168W        W28372   9.147   4.089   4.899  0.1974 -0.0332 -0.0617
10169W        W28373  16.749   4.739  14.033 -0.1565 -0.0390  0.1324
10170W        W28374   1.484  14.889  13.843 -0.0929  0.1959 -0.0903
10171W        W28375   5.874   3.181  11.358  0.1197  0.1395  0.2455
10172W        W28376   9.135  16.710   3.953  0.5435  0.1317 -0.4073
10173W        W28377  11.734  13.993  12.777 -0.0944  0.2354  0.0819
10174W        W28378  12.053  11.550  15.534  0.2211 -0.1688  0.0592
10175W        W28379  13.107  13.889  14.077  0.0292  0.0292  0.1238
10176W        W28380   7.167  11.893  10.481 -0.0031  0.1001  0.2035
10177W        W28381  17.696   2.388   1.307  0.0770  0.0671  0.1167
10178W        W28382  16.936   1.538  15.870  0.0456 -0.1380  0.2467
10179W        W28383   4.640  18.014   4.412 -0.0532  0.1620  0.1203
10180W        W28384   1.783  14.803   0.900  0.2024 -0.4062  0.2142
10181W        W28385   5.344   7.901   3.275 -0.0957  0.0042  0.0933
10182W        W28386  15.963  13.279   0.356 -0.1197  0.2390 -0.0367
10183W        W28387  14.806   3.465   1.962 -0.0437  0.0144 -0.1840
10184W        W28388   3.358   9.946  11.065  0.0880 -0.1917 -0.0157
10185W        W28389   7.604   4.320  15.442  0.4152 -0.2273  0.0078
10186W        W28390  11.746  13.413   2.015 -0.0237 -0.1658 -0.3307
10187W        W28391   8.805   7.113   2.141  0.0058  0.1321  0.0057
10188W        W28392  12.856   9.259   4.095 -0.0726  0.1264 -0.0169
10189W        W28393  15.576   6.810   5.359 -0.2970 -0.1542  0.2434
10190W        W28394  16.574  17.622   3.635 -0.0153  0.0965 -0.2239
10191W        W28395   5.672   9.375   0.270  0.0806  0.0024  0.2368
10192W        W28396  15.126  12.864  14.504 -0.3425  0.0368  0.0981
10193W        W28397  17.218   6.538  13.445 -0.1892 -0.0830  0.3196
10194W        W28398  17.940  11.587   1.371 -0.0491  0.1374 -0.0397
10195W        W28399   7.916   1.723   3.461 -0.3472  0.0737  0.0311
10196W        W28400  13.481   2.807   2.891  0.0585 -0.0211  0.2786
10197W        W28401  13.234   4.270   5.526  0.1644  0.0334  0.2102
10198W        W28402   0.802  15.676   3.441 -0.0675  0.1470  0.1025
10199W        W28403  17.431  15.195   1.547  0.3906 -0.2336 -0.0602
10200W        W28404   6.984  11.696   5.726  0.2817 -0.1264 -0.0738
10201W        W28405  16.563  14.041  14.979  0.0716  0.0812  0.0498
10202W        W28406  15.347  15.114   3.497  0.0140  0.1864 -0.0884
10203W        W28407  15.301  15.738  10.392 -0.1235  0.0056 -0.1870
10204W        W28408   4.630   7.814  11.367  0.1645 -0.2361 -0.4752
10205W        W28409   4.526   8.046  15.446  0.1845  0.1908  0.1533
10206W        W28410   7.664  16.352  15.946  0.0967  0.2446  0.3909
10207W        W28411  16.623  12.176   3.152  0.1811 -0.0390  0.2706
10208W        W28412  15.862  12.973  13.846  0.1584 -0.0144  0.0207
10209W        W28413   5.034  11.373   1.619  0.2445  0.0032 -0.0586
10210W        W28414  11.916  17.174   0.501 -0.1885  0.2330 -0.2107
10211W        W28415  12.531   6.049   5.105 -0.1686  0.1147 -0.1236
10212W        W28416   8.044   2.627   2.520 -0.0160  0.3275 -0.0954
10213W        W28417  17.879   1.638   4.046 -0.0020 -0.0808 -0.0466
10214W        W28418   3.244  10.914  11.445  0.2547  0.2059  0.0986
10215W        W28419  11.639  15.680   3.793 -0.2678  0.1912  0.0582
10216W        W28420   8.302   2.976  13.796  0.0283  0.3714  0.2569
10217W        W28421   2.080   7.503  12.445 -0.2214  0.0770  0.1097
10218W        W28422   6.994  13.295   3.465  0.1687  0.1996 -0.0492
10219W        W28423   4.474  17.065   1.269 -0.1851  0.4703 -0.0662
10220W        W28424  17.804   3.540   1.843 -0.1111 -0.2639  0.1844
10221W        W28425   6.070   0.606   2.408 -0.0387  0.4030  0.1965
10222W        W28426   7.543   5.980  11.546  0.0113 -0.1331 -0.1939
10223W        W28427   2.168   5.561  14.285 -0.1074 -0.2367  0.1412
10224W        W28428  13.538   7.293  15.523  0.0009  0.1004  0.3557
10225W        W28429   6.445   0.897  12.848 -0.1966  0.1234 -0.1046
10226W        W28430  15.024   3.774  14.850 -0.0960  0.0140  0.2824
10227W        W28431   6.422   0.303   4.166 -0.0633 -0.1352  0.2188
10228W        W28432  16.665   4.763   2.384 -0.0650 -0.4149 -0.0838
10229W        W28433  13.782   5.281  10.582 -0.0545  0.3344 -0.0234
10230W        W28434   2.987  11.980   0.679 -0.0358  0.0227 -0.1199
10231W        W28435   8.276   2.012   3.191 -0.2758  0.1946 -0.2111
10232W        W28436  13.619  16.675   2.369  0.0056  0.0348  0.1097
10233W        W28437   2.654   1.194   0.318  0.1868 -0.0395 -0.0835
10234W        W28438   9.430  14.389  12.141 -0.1251  0.0355  0.2348
10235W        W28439   6.445  12.873  14.695  0.1633 -0.0752  0.4275
10236W        W28440  10.796  13.316   5.760 -0.4762 -0.2870  0.0698
10237W        W28441  12.131   9.886   5.234  0.0517 -0.0944  0.2507
10238W        W28442   8.598  11.869   4.805 -0.1311 -0.0354 -0.0694
10239W        W28443   3.705  13.990   1.221  0.0380  0.1955  0.0835
10240W        W28444   8.866   1.879  13.793  0.1494  0.3575 -0.0229
10241W        W28445  13.298   4.391   3.433 -0.1185  0.0072  0.2329
10242W        W28446   7.056  10.707  11.740  0.2257 -0.0052  0.0176
10243W        W28447  10.222  10.896  15.231  0.2350  0.1383 -0.4184
10244W        W28448  16.036  16.684   5.122  0.1589  0.0628  0.1898
10245W        W28449  10.653   7.872   3.632 -0.1801  0.1927 -0.0598
10246W        W28450   0.137   3.020  11.560 -0.2051 -0.2948 -0.0492
10247W        W28451  16.544  11.730  12.227 -0.1060 -0.2190  0.0703
10248W        W28452   3.430   4.957   1.686 -0.1978 -0.3651  0.0231
10249W        W28453   3.964  10.493  12.699  0.2045 -0.2575  0.0146
10250W        W28454   1.795   5.731   1.795 -0.0578 -0.4254 -0.4280
10251W        W28455   3.280   1.744   0.344 -0.0034 -0.0835  0.1913
10252W        W28456  14.664  11.943   5.219 -0.2242  0.2751  0.1371
10253W        W28457  10.414  17.080   4.322  0.1401  0.0746 -0.2202
10254W        W28458  11.835  15.659  11.212  0.2684  0.1745  0.2163
10255W        W28459  11.840  11.483  13.192 -0.1592  0.0277 -0.0723
10256W        W28460  16.815   5.982   2.908  0.0580  0.0278  0.3000
10257W        W28461   0.576  10.296  13.182 -0.0024  0.0104 -0.0165
10258W        W28462   7.052   0.762  15.789  0.2547  0.0995 -0.0741
10259W        W28463  17.575   2.551  15.251 -0.3769  0.0865 -0.0660
10260W        W28464   5.895   0.379  10.391  0.1347 -0.0151 -0.0864
10261W        W28465  14.771   5.731   3.999 -0.2703 -0.0971  0.0531
10262W        W28466  18.003   3.696  13.796  0.0376  0.3017 -0.2156
10263W        W28467   5.540   3.086   1.820 -0.2554 -0.3357 -0.0569
10264W        W28468  11.192  12.958  15.542 -0.0611  0.0945 -0.1035
10265W        W28469   0.489   0.079  11.074 -0.0634  0.0150 -0.1740
10266W        W28470  12.066  10.928   3.788  0.1001 -0.0259 -0.0586
10267W        W28471   5.737  17.048  15.353  0.1119  0.0157  0.3115
10268W        W28472   9.779   0.131  13.331 -0.0918  0.0013 -0.2762
10269W        W28473   9.342   2.325   3.964  0.0764  0.0021 -0.2254
10270W        W28474   3.213  12.555  12.992 -0.1652  0.4329 -0.0157
10271W        W28475   4.360  17.673  14.450 -0.3288  0.1752 -0.0778
10272W        W28476   5.417  15.586   1.617  0.2216  0.1537  0.2012
10273W        W28477   8.093   8.982   4.118  0.0997  0.2553  0.1834
10274W        W28478  12.079  10.383  15.875  0.0872  0.0637 -0.2689
10275W        W28479  13.682   7.004   3.644  0.0177 -0.2151 -0.2178
10276W        W28480  16.264  14.269   2.544  0.2283  0.1901  0.0795
10277W        W28481   3.221   9.710   1.945 -0.3423 -0.1386 -0.1759
10278W        W28482  11.339   7.186  14.826  0.1000 -0.2188 -0.3576
10279W        W28483  14.602  15.104  14.031 -0.0800  0.2744  0.2067
10280W        W28484   1.390  16.359  12.935 -0.0346 -0.1624 -0.1422
10281W        W28485   6.402   2.638   3.469  0.0390 -0.0167  0.0532
10282W        W28486   2.036   1.546  12.393  0.2164  0.0427 -0.1056
10283W        W28487   4.353   7.667   4.642  0.2144 -0.0435  0.1589
10284W        W28488  11.417  11.266  14.863  0.1295  0.2224 -0.0019
10285W        W28489   8.416   8.907   4.549 -0.3264 -0.2670 -0.1614
10286W        W28490  11.435   8.979  16.035 -0.2090 -0.3598 -0.0158
10287W        W28491  10.036  10.802  16.176 -0.0549  0.2106  0.0568
10288W        W28492   1.605  11.609   1.036  0.1687 -0.2767  0.1628
10289W        W28493  14.170   0.314   5.037 -0.1125  0.1052  0.0008
10290W        W28494   0.522   2.626   0.590 -0.0251 -0.2064 -0.1701
10291W        W28495  17.359   8.976  15.079  0.1316 -0.2040  0.1979
10292W        W28496  14.432  16.362   2.784  0.0270 -0.0634  0.3931
10293W        W28497   2.595  16.246  15.415  0.2362 -0.0417  0.2034
10294W        W28498  14.563  11.293   3.616 -0.0608  0.0348  0.0055
10295W        W28499   1.527  11.233  15.845 -0.2615  0.0635  0.0388
10296W        W28500  12.459  16.576   1.869 -0.0519 -0.3575  0.0452
10297W        W28501  16.047  15.824   0.644  0.1368  0.2653 -0.3618
10298W        W28502   6.048   6.021   0.880  0.1050  0.0177 -0.0987
10299W        W28503  17.851  17.212  13.564  0.0708  0.0405 -0.1792
10300W        W28504  15.215   8.378   3.766 -0.3658  0.0325 -0.2295
10301W        W28505  11.501   6.280   4.978 -0.0342 -0.1201 -0.0328
10302W        W28506  15.749  14.655  11.278 -0.0905 -0.1092 -0.0922
10303W        W28507  17.735   6.970   2.355 -0.0776 -0.3035 -0.1536
10304W        W28508   5.880  13.448   4.392 -0.4101  0.1415 -0.1637
10305W        W28509   8.926   2.942  11.800  0.0782 -0.0165 -0.0079
10306W        W28510   1.722   4.727  13.049 -0.1689  0.4750  0.0212
10307W        W28511   3.270  14.222  10.964  0.0973  0.0663 -0.1394
10308W        W28512   9.474   9.524  13.041 -0.1936 -0.0969 -0.0868
10309W        W28513  14.874  11.498   1.462  0.0300 -0.3272  0.1293
10310W        W28514   4.095   0.711   0.475 -0.2007 -0.0839  0.0665
10311W        W28515  11.424   9.606   3.883  0.2178 -0.0407  0.2627
10312W        W28516  14.686  17.913   0.108 -0.2635 -0.4303 -0.0364
10313W        W28517  12.417  12.042   3.200 -0.1702 -0.1639 -0.0974
10314W        W28518   1.327   8.722  13.004 -0.0224 -0.3092  0.1559
10315W        W28519   2.122   4.520  15.846 -0.1449 -0.2595  0.0704
10316W        W28520  17.670  16.907   1.922  0.1103 -0.2469 -0.2046
10317W        W28521   6.605   7.331   0.153  0.1012  0.1064  0.0187
10318W        W28522  17.633   7.836   0.713  0.0074 -0.2677  0.0346
10319W        W28523  17.612   3.572  14.029  0.2639  0.3727 -0.0671
10320W        W28524  10.080  17.077   2.698  0.0396 -0.0641 -0.0279
10321W        W28525   6.508   8.336  14.625  0.2326 -0.0574  0.3178
10322W        W28526  15.179   6.999  13.619  0.0913  0.1539  0.0517
10323W        W28527   9.976   4.253   5.084  0.0258  0.3984  0.4146
10324W        W28528   7.714  10.480   0.225 -0.2462 -0.1131 -0.1100
10325W        W28529  17.781   4.422  11.612 -0.1376  0.1431 -0.3063
10326W        W28530   3.142  13.797  12.499  0.2106 -0.1131  0.0342
10327W        W28531  12.160  12.639   2.608 -0.4040 -0.0513  0.3179
10328W        W28532   4.084  16.138   4.704  0.1054 -0.0107  0.1932
10329W        W28533  11.748  16.469  13.944 -0.1398  0.0549 -0.1134
10330W        W28534  14.350  14.103  14.844 -0.1672  0.0061 -0.1203
10331W        W28535  17.929  16.701   3.343 -0.1136  0.0175  0.0402
10332W        W28536  15.557  12.654   5.062 -0.2908  0.0823  0.1064
10333W        W28537   2.925  17.312   3.121  0.1338  0.0869  0.0337
10334W        W28538   3.160   7.349   4.301 -0.3293  0.0950 -0.0630
10335W        W28539  10.185   4.460   4.051 -0.4256 -0.3185  0.2844
10336W        W28540  15.859   7.728   2.253 -0.1108  0.0689  0.1297
10337W        W28541   2.179  11.219   5.185 -0.1528  0.2749 -0.0576
10338W        W28542   5.582  14.181   1.230  0.2219  0.2888  0.2307
10339W        W28543   2.575  13.335  11.805  0.0736  0.2319 -0.0539
10340W        W28544  14.449   8.398   0.787 -0.0292 -0.0880  0.0572
10341W        W28545  15.880  13.991   4.509 -0.0161  0.3671  0.1542
10342W        W28546   7.573   4.658   0.716  0.0228  0.0625 -0.0219
10343W        W28547   6.897   5.935   4.272  0.1493  0.1456  0.1009
10344W        W28548  13.191  15.217   1.492 -0.0584 -0.0878  0.1205
10345W        W28549   7.202  16.207   5.183  0.0851  0.2752  0.1665
10346W        W28550   0.197  17.337  12.411 -0.2023 -0.0296  0.0846
10347W        W28551   2.470  13.984  14.107 -0.2603 -0.0262  0.0321
10348W        W28552   2.338   3.031  13.767  0.2910  0.2045 -0.1749
10349W        W28553   8.553  13.987  14.690  0.0267 -0.0201 -0.0815
10350W        W28554   3.383  14.257  14.863  0.0379  0.0087 -0.0104
10351W        W28555  15.217  15.605   3.716  0.1702 -0.0612  0.0455
10352W        W28556   5.459   5.301   1.281  0.0947  0.0000 -0.0081
10353W        W28557  10.973   4.667   2.022 -0.0071  0.0206  0.1496
10354W        W28558  15.910   7.261   3.540 -0.1069  0.1220  0.0109
10355W        W28559   9.131  12.767   1.015 -0.0509 -0.0256  0.1964
10356W        W28560   2.956  11.000  14.170 -0.1953  0.1482  0.0060
10357W        W28561  11.521   9.010   3.816 -0.1478 -0.0378 -0.0439
10358W        W28562   6.635   0.384  13.568  0.1984  0.0079  0.0918
10359W        W28563  17.508  13.133  16.004 -0.0457 -0.0216  0.1639
10360W        W28564  17.178   8.855   6.054  0.1627 -0.0620  0.0088
10361W        W28565   0.008   3.531  14.282  0.2670  0.1629  0.0799
10362W        W28566   9.943  12.536  13.642  0.1455 -0.0358  0.1887
10363W        W28567  10.077   0.540  15.114 -0.4201 -0.1080 -0.0134
10364W        W28568   9.375  11.204  13.067  0.0420  0.1165  0.1899
10365W        W28569   9.882   4.735  11.969 -0.1594  0.2885  0.2334
10366W        W28570   2.551  17.822   2.016 -0.0002 -0.0423  0.1291
10367W        W28571   6.758  12.989   0.412 -0.5168  0.3998  0.0815
10368W        W28572   7.165   4.561  15.166  0.0526 -0.0661  0.0807
10369W        W28573  17.360  15.190  12.380  0.2005 -0.0549 -0.1097
10370W        W28574   0.467   3.754  14.025 -0.0864  0.0112 -0.3465
10371W        W28575   7.568  12.228   4.051 -0.2355 -0.1929 -0.3036
10372W        W28576   7.750   9.626   0.732 -0.0172 -0.1471  0.1251
10373W        W28577   9.637   2.472   1.116 -0.1174 -0.0987  0.0033
10374W        W28578  17.616  11.231   4.892  0.0462  0.1070 -0.0191
10375W        W28579   4.960  11.488  15.727  0.0449  0.3089 -0.1109
10376W        W28580   2.696  10.103  12.815  0.0750  0.0421 -0.3654
10377W        W28581   4.025  15.742  13.152 -0.3535 -0.2868 -0.0596
10378W        W28582  11.307   6.704  15.932  0.0260  0.1437  0.2191
10379W        W28583   0.695   7.953   2.764 -0.2979 -0.1387  0.0257
10380W        W28584   7.214   7.761   2.414  0.0570  0.0167  0.1361
10381W        W28585   3.635  10.055   4.885 -0.0606 -0.1512  0.0709
10382W        W28586   8.291   4.011   1.090  0.2274 -0.0454  0.1404
10383W        W28587   8.102  14.979   2.744  0.0659 -0.2961  0.0271
10384W        W28588   3.487   2.370  10.447  0.2500  0.0551 -0.1494
10385W        W28589   6.771  15.942  13.932  0.0920 -0.4352 -0.3069
10386W        W28590   9.442  13.538   3.543 -0.3277 -0.0237  0.1884
10387W        W28591   6.503   8.494   4.552  0.0024 -0.0370  0.0935
10388W        W28592  16.421   1.894   2.194  0.1205 -0.1735 -0.1394
10389W        W28593   2.056  11.889   1.433  0.1531 -0.3424 -0.2494
10390W        W28594  12.900   9.429   3.620  0.0936  0.0606  0.0624
10391W        W28595   5.663   9.244   2.337  0.1028 -0.2386  0.2262
10392W        W28596  13.951  17.623  12.298  0.0569 -0.2485  0.4212
10393W        W28597   5.296   5.609  13.903 -0.3750  0.0376 -0.0579
10394W        W28598  10.716  15.669   1.114  0.1745  0.1255 -0.1046
10395W        W28599  10.776   8.286   1.547  0.2569  0.1897  0.0796
10396W        W28600   3.659  13.823  15.028 -0.1298  0.0324  0.3215
10397W        W28601   2.295   8.726  13.932 -0.2947 -0.1859 -0.2524
10398W        W28602   6.612   0.352   3.661  0.0301  0.2990  0.0583
10399W        W28603  12.229  13.699  13.874 -0.0407  0.1223  0.1964
10400W        W28604   1.981   2.067   0.923 -0.0659 -0.1627 -0.0895
10401W        W28605   7.321   5.695  12.851  0.2253 -0.0155 -0.3073
10402W        W28606   0.327   8.517  12.824  0.0195 -0.1250  0.0861
10403W        W28607   5.422  12.899   1.590 -0.1287  0.1809  0.0707
10404W        W28608   4.782   2.370   0.006  0.0068  0.0302 -0.4043
10405W        W28609  11.353  10.896  15.729 -0.1041 -0.0662  0.1272
10406W        W28610   0.985   2.184  15.379  0.2080  0.1388  0.2306
10407W        W28611  15.378  14.882  13.009 -0.0060 -0.0799 -0.3197
10408W        W28612  11.659   7.907  16.106  0.0415 -0.0507 -0.1563
10409W        W28613   8.504  17.715  13.201  0.0840  0.0556  0.3107
10410W        W28614  10.438  15.823  12.247  0.1682  0.4020 -0.2546
10411W        W28615  14.875  13.838   3.619 -0.2480  0.0545  0.1673
10412W        W28616  13.117   2.944   4.452  0.1686 -0.2221  0.2090
10413W        W28617   6.575  14.597   1.336  0.0684  0.0564  0.0642
10414W        W28618   7.433   3.350   4.281  0.2375  0.0239 -0.2985
10415W        W28619   3.713  12.903   2.546 -0.0544  0.3102  0.1504
10416W        W28620   8.907  15.755  13.648 -0.1820  0.2614 -0.1206
10417W        W28621  13.453  14.272  14.837 -0.0793  0.3597 -0.1220
10418W        W28622   5.287   5.676  12.028 -0.0746  0.2802  0.0307
10419W        W28623   2.378   8.803  15.249 -0.2972 -0.1513 -0.3349
10420W        W28624  12.511   7.387  11.506 -0.0278  0.0423 -0.0399
10421W        W28625  11.878   3.942   3.574  0.0654  0.2998  0.0329
10422W        W28626   2.006  17.014   3.095  0.1086 -0.3650  0.2167
10423W        W28627  12.980   9.170   1.769  0.0979 -0.0528  0.1043
10424W        W28628  11.363   3.440  11.942  0.1611 -0.2064  0.2223
10425W        W28629  12.817   6.530   3.252 -0.3151  0.0598 -0.2827
10426W        W28630   9.602   4.207   1.002 -0.0545 -0.0300 -0.0254
10427W        W28631   5.342  11.571   0.748  0.0072  0.2478  0.1412
10428W        W28632  13.194  13.774   1.207  0.3381 -0.0573  0.3530
10429W        W28633   1.297   1.771   0.122 -0.3828 -0.0200  0.2408
10430W        W28634  14.660   7.516   2.711  0.2310  0.2642  0.0945
10431W        W28635   4.424  15.732   3.951  0.2956  0.2150 -0.1320
10432W        W28636  16.043  10.056   1.078  0.3284 -0.4071  0.2218
10433W        W28637  10.322  10.198   2.416  0.3121 -0.1124  0.3318
10434W        W28638   5.190   9.388   3.281  0.1802  0.1049 -0.1091
10435W        W28639   8.217  11.271   2.018 -0.0739  0.0295 -0.1477
10436W        W28640   9.695   2.688  10.876 -0.1665 -0.2068 -0.3117
10437W        W28641   3.779  12.291  13.000  0.0289 -0.0023  0.2292
10438W        W28642  13.462  12.084  12.259  0.0129  0.0746  0.2690
10439W        W28643   8.449  12.364  14.733  0.0779  0.0652  0.2539
10440W        W28644  11.936  17.686  13.384 -0.1022 -0.1721 -0.1264
10441W        W28645   0.742  12.500   0.261  0.1408  0.0409 -0.0447
10442W        W28646  12.494   4.210   3.217 -0.2119 -0.4458 -0.0536
10443W        W28647  11.240   6.484  15.493 -0.0892  0.0365 -0.1254
10444W        W28648   6.769   6.348  14.002 -0.1371 -0.2096 -0.3286
10445W        W28649  17.084   7.401   5.515 -0.2163  0.2873  0.2060
10446W        W28650  15.508   8.117   2.048  0.1875 -0.0224 -0.1067
10447W        W28651   8.606   2.505   1.963 -0.0275  0.0466  0.0288
10448W        W28652  14.623  15.555  14.798  0.0009 -0.1013 -0.2339
10449W        W28653   2.881   2.329   3.199 -0.1300  0.0002  0.0001
10450W        W28654   0.124  10.218  15.600  0.0633 -0.0373 -0.2687
10451W        W28655   0.955  11.149  15.253  0.0067 -0.0084  0.2687
10452W        W28656   8.119  14.913   0.540 -0.1116  0.1424  0.0857
10453W        W28657  15.363   6.599  13.955 -0.0733 -0.0074  0.2500
10454W        W28658   4.391  14.259  11.299  0.2788  0.1267  0.0054
10455W        W28659   6.734   7.260   5.422 -0.0258  0.3382  0.1735
10456W        W28660   1.386   1.799   2.993  0.0155 -0.3954 -0.1507
10457W        W28661  17.762  14.678   1.685 -0.2095  0.0162  0.0906
10458W        W28662   2.103   0.696   2.228  0.1325  0.0675  0.0961
10459W        W28663  12.851  13.887   3.966 -0.0994 -0.1284 -0.0614
10460W        W28664  11.584  10.326  14.697 -0.1110  0.1093  0.3536
10461W        W28665   0.098   3.266   2.956  0.1580 -0.0543 -0.0611
10462W        W28666   8.857   5.616   0.539 -0.0899 -0.1439  0.0234
10463W        W28667   6.718   8.219   3.630 -0.0380  0.2005  0.2165
10464W        W28668  17.623  17.322   2.848  0.2378  0.0918  0.0330
10465W        W28669  17.204   7.739   2.288 -0.2112  0.3434 -0.1650
10466W        W28670   0.586  14.264   1.633 -0.2402 -0.3387  0.1214
10467W        W28671   4.805  13.975  11.349 -0.1648 -0.0618  0.0354
10468W        W28672   7.096   1.188  15.574  0.0124 -0.0792 -0.0462
10469W        W28673  13.350   8.722   1.042  0.1898 -0.1067  0.1669
10470W        W28674   6.542  12.537   0.193 -0.0972 -0.2725 -0.2413
10471W        W28675  14.396  10.327   1.797  0.2529  0.0160  0.0738
10472W        W28676   3.947  14.825   2.921 -0.1515  0.0514 -0.2088
10473W        W28677   4.265   0.587   1.910 -0.0261  0.2141  0.2132
10474W        W28678   8.655  13.713   5.066 -0.0986 -0.1017 -0.0824
10475W        W28679  12.060   1.454   4.440  0.1711  0.1776  0.0896
10476W        W28680   0.853   8.334  14.649  0.1494  0.1369  0.0211
10477W        W28681   6.857   9.814   0.059  0.3757  0.0211  0.1846
10478W        W28682  11.091   9.232  13.002  0.4249 -0.0394 -0.0389
10479W        W28683  14.365   6.023  13.149  0.0579 -0.0244  0.0069
10480W        W28684   0.380  12.236  16.077  0.0388 -0.0370  0.2919
10481W        W28685  14.390  16.083  13.922  0.0127 -0.0870  0.0655
10482W        W28686  16.534   3.614   3.670 -0.0897 -0.0433 -0.2915
10483W        W28687  16.651   7.996  14.298  0.1128 -0.1381 -0.0948
10484W        W28688  10.591   3.928  14.458  0.0060  0.1828  0.1011
10485W        W28689  17.127   0.256  14.162 -0.2016  0.1550  0.0340
10486W        W28690   7.385   4.440   1.525 -0.0464 -0.3366 -0.3398
10487W        W28691  17.322  13.664   3.073  0.0087 -0.1377 -0.1955
10488W        W28692   0.364  16.389  12.207  0.1504  0.1490 -0.1206
10489W        W28693   4.065  11.169  16.113 -0.1502  0.1015 -0.0269
10490W        W28694   3.859   7.105  14.989  0.1868 -0.1153  0.2147
10491W        W28695  11.287   8.178  11.904  0.1153  0.0172 -0.0770
10492W        W28696   0.819   0.200  14.812 -0.0184  0.1798  0.1656
10493W        W28697   1.779  10.514   2.772 -0.1110  0.1721  0.1827
10494W        W28698   0.887   8.558   1.643  0.0182 -0.2487 -0.1410
10495W        W28699   1.824   3.735  15.290  0.0105 -0.0615 -0.2989
10496W        W28700   0.805   8.869   2.633 -0.0891  0.0969  0.0042
10497W        W28701  10.696   9.548   1.241  0.0690  0.0328  0.3426
10498W        W28702   7.682   7.791   2.889  0.1172  0.0141  0.4441
10499W        W28703  12.345   6.701  15.821 -0.2490 -0.3267  0.0926
10500W        W28704  16.453  16.977  15.241 -0.0551  0.3335  0.0707
10501W        W28705   3.896   8.878  11.619 -0.1552  0.1529 -0.0149
10502W        W28706   5.786  15.641   2.868 -0.2138 -0.3121  0.0490
10503W        W28707   2.411  11.914  14.274  0.2267  0.3022  0.0943
10504W        W28708   9.907   9.403  11.906  0.0154  0.0676  0.1275
10505W        W28709   0.234  11.011  15.640  0.0313  0.2267  0.1904
10506W        W28710   4.308  15.471  14.671 -0.2148 -0.0226 -0.2186
10507W        W28711   9.803  11.342  10.707  0.2666  0.1826  0.2362
10508W        W28712  17.088   3.197  12.858  0.0814  0.1565  0.0858
10509W        W28713   4.741   1.139   2.145  0.0224 -0.0825 -0.0405
10510W        W28714   9.793  16.425   2.483 -0.3449 -0.1180  0.3688
10511W        W28715   7.455  14.556  14.684 -0.1019  0.0720 -0.3334
10512W        W28716   5.639   1.355  15.726  0.0912 -0.0957 -0.2073
10513W        W28717  10.352   2.254  14.812  0.1732  0.1017  0.1666
10514W        W28718   7.081   6.705   0.568  0.1360 -0.0728 -0.2448
10515W        W28719   6.949   6.659   1.090 -0.0417  0.2150  0.0315
10516W        W28720   2.019   9.846  13.323  0.0476 -0.1420 -0.2422
10517W        W28721   2.491  16.418  13.118  0.3480 -0.1089  0.0175
10518W        W28722  10.013  16.849  12.653  0.0965 -0.3149  0.1153
10519W        W28723   7.752  15.616   5.521 -0.0591 -0.1966  0.0809
10520W        W28724   5.776  16.361  14.674 -0.0469 -0.3199  0.1467
10521W        W28725  16.939   5.443   1.950  0.0852  0.0191 -0.2889
10522W        W28726   2.071   1.248   0.303  0.0036  0.2559 -0.1203
10523W        W28727   1.782   1.688   2.025 -0.1860 -0.2967  0.0024
10524W        W28728  15.554  17.991  14.592 -0.0139 -0.2116  0.0464
10525W        W28729  10.483  12.861  10.868 -0.0643 -0.3074 -0.0139
10526W        W28730  17.141  10.111   1.222  0.2058  0.2164 -0.2190
10527W        W28731  13.786  17.721   3.659 -0.0982 -0.1784  0.1270
10528W        W28732   8.222   1.959  15.528  0.0363 -0.0353 -0.1266
10529W        W28733   7.182  14.564   4.005  0.0266 -0.2565 -0.1363
10530W        W28734   4.845   6.739  14.909 -0.4339 -0.0295 -0.0409
10531W        W28735  10.831   9.075  14.637  0.0634 -0.0139  0.0111
10532W        W28736  17.086   8.107  14.070  0.0949 -0.0946 -0.2105
10533W        W28737   8.472  13.895   1.912  0.0451 -0.0183  0.0119
10534W        W28738  11.669  13.927   1.431 -0.0784 -0.1857  0.1222
10535W        W28739  10.173   4.165  11.656  0.0535  0.0605  0.0413
10536W        W28740  11.796  13.439   1.476 -0.1133  0.0189  0.1826
10537W        W28741  17.892  13.204  14.923  0.0694 -0.0191 -0.0361
10538W        W28742   1.436  11.197  14.754  0.2045  0.1158 -0.0253
10539W        W28743   8.999  14.685  14.423 -0.1600 -0.0106  0.1549
10540W        W28744   2.115  12.611   3.327  0.0589  0.0194 -0.0088
10541W        W28745   4.072   0.648  13.557 -0.0719 -0.0238 -0.1006
10542W        W28746   3.623  11.080   3.253  0.0221 -0.0993 -0.1224
10543W        W28747   6.725  13.692  13.338  0.1761  0.1153 -0.0260
10544W        W28748   2.473   6.148   2.226  0.0113 -0.0637 -0.1691
10545W        W28749   2.257   5.330   2.322 -0.0077  0.3168  0.1760
10546W        W28750   4.859  16.258  16.047  0.2969 -0.0773 -0.0942
10547W        W28751   9.257   6.861   2.302  0.0226 -0.1982 -0.0836
10548W        W28752   7.999   1.797   3.985  0.0730 -0.2247 -0.0879
10549W        W28753   6.084  13.500  11.315 -0.0035 -0.1668 -0.4935
10550W        W28754   4.059   2.018  14.847  0.2928  0.0427 -0.2917
10551W        W28755  16.995   7.784  13.092 -0.1975  0.1674  0.0355
10552W        W28756   7.589   3.662  14.813  0.1084 -0.3144 -0.0679
10553W        W28757  13.344   3.296   4.784 -0.1543 -0.0574  0.0289
10554W        W28758  14.808  10.480  13.119 -0.6723  0.3623  0.0493
10555W        W28759  16.436  16.590   3.489 -0.0015  0.0336  0.0604
10556W        W28760  14.219  14.234   2.403  0.2094 -0.0860  0.0653
10557W        W28761  17.552  13.978  15.511  0.1635 -0.0916  0.3383
10558W        W28762   0.773  16.785  12.121 -0.0046  0.0876 -0.0520
10559W        W28763   2.400   0.661   1.387 -0.0302 -0.2203 -0.1553
10560W        W28764  17.355   7.721   2.776  0.3172  0.0588 -0.3704
10561W        W28765  17.622   7.355   4.978  0.2405 -0.0811  0.0090
10562W        W28766   2.350   1.694  11.946  0.1499 -0.0772 -0.0912
10563W        W28767   2.164   0.477  14.109  0.1435 -0.3087  0.0989
10564W        W28768   5.949  15.846   2.437  0.1617 -0.0058 -0.1150
10565W        W28769   0.253  15.384   1.286 -0.1201 -0.1634  0.0818
10566W        W28770  11.988  15.881  13.384  0.3414 -0.0445  0.0594
10567W        W28771  11.868  16.701   0.291 -0.0788 -0.2407 -0.1043
10568W        W28772  10.954  12.777  14.703 -0.2335  0.1450 -0.1677
10569W        W28773   6.805  17.366  13.292  0.2590 -0.0468 -0.0619
10570W        W28774   0.041   5.253  12.238 -0.1060  0.2876  0.1797
10571W        W28775   6.839  12.282  15.492 -0.0886 -0.2075 -0.1321
10572W        W28776   5.062   3.223  15.802  0.3741  0.2580 -0.1452
10573W        W28777  14.458   8.060  15.849  0.1039 -0.1254 -0.1500
10574W        W28778   1.006  16.281  16.068  0.1658  0.1048 -0.0936
10575W        W28779  16.828   1.537   3.587  0.0089  0.0326 -0.0919
10576W        W28780   8.810  16.104   5.119 -0.1419 -0.3733  0.2102
10577W        W28781  11.068   5.435  12.558 -0.1162  0.5138 -0.0005
10578W        W28782  11.596  15.351  10.228 -0.0402 -0.2444 -0.0502
10579W        W28783   0.368   0.794   2.453 -0.0690  0.0352 -0.0154
10580W        W28784   2.972   9.172  14.483  0.2236 -0.1049  0.2299
10581W        W28785  10.944   1.559  15.597  0.1093  0.1091  0.2933
10582W        W28786  17.452   2.789   1.617  0.1267 -0.0218 -0.1206
10583W        W28787  10.668   1.488   3.235 -0.2238 -0.0565  0.0288
10584W        W28788   4.167   3.199  11.856 -0.2282 -0.0381 -0.1940
10585W        W28789  14.977  13.243   1.130  0.0292 -0.1392 -0.0810
10586W        W28790  12.897   3.122   4.037 -0.2536  0.3030 -0.0409
10587W        W28791  10.531   0.269  15.995  0.3427  0.0672 -0.0143
10588W        W28792   2.116   6.242   1.927  0.1695  0.0774  0.3014
10589W        W28793  15.792   6.568  12.500  0.2051  0.1627  0.1085
10590W        W28794   4.077  10.847   4.087 -0.1312 -0.1405  0.0672
10591W        W28795   2.413  14.155   4.094 -0.2814  0.0950 -0.2220
10592W        W28796  13.023   1.822  13.325 -0.0283  0.4703  0.0650
10593W        W28797  13.369   2.554   4.068 -0.1763 -0.0740 -0.4229
10594W        W28798  14.282   1.721   3.224 -0.1976  0.0648  0.0962
10595W        W28799   8.023  10.837   0.987  0.0943 -0.3010  0.0380
10596W        W28800   4.995   0.507  12.460 -0.3712 -0.0306 -0.1682
10597W        W28801  12.212  13.544  14.458 -0.0426 -0.2148 -0.0700
10598W        W28802   9.440   1.658  12.159  0.3455  0.1821  0.0315
10599W        W28803  15.604   2.575   3.178 -0.0666 -0.0433 -0.2188
10600W        W28804  11.604  14.258  10.618 -0.2188 -0.1074 -0.1135
10601W        W28805  17.408  11.371   0.177 -0.1764 -0.0307  0.0254
10602W        W28806   7.401  17.496   3.612 -0.1115 -0.0630  0.0590
10603W        W28807  16.514  11.121  16.024  0.1141 -0.3243  0.2420
10604W        W28808  14.879   6.603   4.426 -0.1043  0.1976 -0.2085
10605W        W28809  15.005  10.023  13.452  0.1785 -0.1175  0.0628
10606W        W28810  12.805   0.902   3.552  0.2509 -0.1457  0.0515
10607W        W28811  15.793   1.454   5.546  0.2134  0.2699 -0.1347
10608W        W28812   3.958   2.198  14.115 -0.0864  0.1613 -0.4148
10609W        W28813  14.446   3.113  13.395 -0.4763  0.1027 -0.1457
10610W        W28814  16.182   0.006  15.458 -0.0231  0.1779  0.2999
10611W        W28815   4.599  13.635   2.894 -0.0178 -0.0631  0.1123
10612W        W28816   1.187  16.001  15.351 -0.1434  0.3989 -0.4278
10613W        W28817  16.017  17.755   1.915  0.1038  0.0390 -0.0529
10614W        W28818   1.018   9.013  11.637  0.1559  0.2803 -0.0252
10615W        W28819   8.960   7.628   0.977  0.1576 -0.0915  0.0444
10616W        W28820  10.675  10.150  13.175  0.1436 -0.0106  0.0022
10617W        W28821  11.957  14.078  14.820 -0.3611 -0.0908  0.1806
10618W        W28822  15.259   7.881   3.563  0.0773  0.3318  0.0733
10619W        W28823   2.244   7.393   0.417 -0.1774  0.0082 -0.1483
10620W        W28824  16.353   9.554   2.574  0.0545 -0.0608 -0.0303
10621W        W28825   3.591   5.313  11.962 -0.0877 -0.1483  0.1023
10622W        W28826  16.736  13.200  12.568  0.1712 -0.2784 -0.2732
10623W        W28827  14.870   6.272   4.036 -0.1019  0.3011 -0.1616
10624W        W28828   4.491   9.407  14.903  0.1674 -0.1698 -0.0594
10625W        W28829   6.081  10.876  15.609 -0.0253 -0.0997 -0.0729
10626W        W28830  12.841  11.490   1.795  0.0285 -0.2154  0.2430
10627W        W28831   5.723   7.534   0.345  0.1109  0.1644 -0.1526
10628W        W28832  10.718  13.698   3.716 -0.2571 -0.0504  0.0844
10629W        W28833  11.341  15.409   1.679  0.0529  0.0735 -0.2123
10630W        W28834   1.573  10.640  11.920 -0.0266  0.0411  0.0325
10631W        W28835   7.822  11.643   1.516 -0.0099 -0.5907  0.1665
10632W        W28836   6.672   8.458  10.405 -0.0347 -0.0524 -0.0219
10633W        W28837  17.933   0.540   3.128  0.0468 -0.0160 -0.1130
10634W        W28838   3.087   5.860  13.877 -0.0372 -0.1390 -0.1123
10635W        W28839   3.996  17.778   2.322 -0.0803  0.0553 -0.0849
10636W        W28840   8.508  11.597  11.960  0.1034 -0.2046 -0.0031
10637W        W28841  18.001  17.396  14.290  0.1402 -0.1500 -0.2788
10638W        W28842   6.508  11.473   5.802  0.1130 -0.0295 -0.0242
10639W        W28843  16.316   0.294  14.178  0.1533  0.0248 -0.0572
10640W        W28844  10.543   3.137  15.062  0.3058 -0.0893 -0.2108
10641W        W28845   2.165   4.509  13.946 -0.0176  0.0908 -0.0252
10642W        W28846  13.922   9.839   1.123  0.1922 -0.2629 -0.1935
10643W        W28847   2.124   9.117   2.851  0.2204 -0.3183 -0.2242
10644W        W28848  17.021   9.053  13.137 -0.2086  0.0308 -0.0571
10645W        W28849   3.449   3.635  15.197 -0.0076  0.0538 -0.2799
10646W        W28850   4.161   9.413   0.322 -0.3533 -0.1968  0.0603
10647W        W28851   1.118   5.413  12.804 -0.1086 -0.3558 -0.2059
10648W        W28852  12.609  10.216   3.166 -0.0502 -0.1591  0.0668
10649W        W28853  13.857   0.034  12.156  0.0347 -0.2022 -0.1989
10650W        W28854   2.084  12.098   3.077  0.1111 -0.0025  0.4001
10651W        W28855   2.638  16.679  15.212  0.2446 -0.0727 -0.0067
10652W        W28856  12.333  14.085   4.089 -0.1836 -0.0727  0.0695
10653W        W28857   6.112   8.256   3.395  0.1591 -0.1037  0.1677
10654W        W28858   7.273   6.084   0.374  0.0247 -0.0866  0.0491
10655W        W28859  10.007  11.191  14.417 -0.2422  0.3155  0.3869
10656W        W28860  11.334   2.437  13.136  0.1830 -0.0557  0.0797
10657W        W28861   6.116  14.530  11.951  0.0896 -0.1446  0.1683
10658W        W28862   6.716  15.729   3.323 -0.0009 -0.0434  0.0443
10659W        W28863  10.852   2.564  12.123 -0.2543 -0.0332 -0.0534
10660W        W28864  17.317  14.121  14.046  0.1239  0.1512 -0.0301
10661W        W28865  13.044  15.942  12.560 -0.0655  0.0348 -0.1680
10662W        W28866   4.481  17.976  15.442 -0.3265 -0.2721 -0.1982
10663W        W28867   4.269  15.004  13.848 -0.2230 -0.1483 -0.3571
10664W        W28868   0.887   8.026  12.613  0.0548  0.2125 -0.0201
10665W        W28869   6.410  14.237   1.019  0.3723  0.1847  0.2479
10666W        W28870   4.894   6.004   4.864  0.1781  0.1409 -0.1516
10667W        W28871  14.724   9.963   3.262 -0.1332 -0.3168  0.0323
10668W        W28872   4.520   5.170  13.996 -0.0309 -0.2167 -0.0263
10669W        W28873   9.468   0.230   2.174 -0.4229  0.0991 -0.0014
10670W        W28874   0.645   8.961   3.715 -0.0260 -0.0621  0.0128
10671W        W28875  12.574   1.690   3.867  0.1866  0.0824  0.1319
10672W        W28876   2.262   5.734   1.992  0.0352 -0.2418  0.4211
10673W        W28877  17.185  11.941   4.963 -0.2080  0.0314  0.0083
10674W        W28878   0.714  14.286  11.472 -0.0228  0.1339 -0.0689
10675W        W28879  12.004  14.450  11.923 -0.0050 -0.0648 -0.0765
10676W        W28880   5.414  16.145   4.094 -0.0863  0.0576  0.0460
10677W        W28881   5.174  14.268  13.293 -0.0433 -0.0105  0.0664
10678W        W28882   0.200   3.260   4.830  0.0110  0.1021  0.1307
10679W        W28883   3.169   1.122  11.921  0.0498 -0.2404  0.0431
10680W        W28884  10.287   1.704   0.573 -0.1424 -0.0133 -0.1939
10681W        W28885   7.402  17.492   1.680 -0.1189  0.0897  0.3561
10682W        W28886  13.089   6.417   2.793 -0.2399  0.6145 -0.1527
10683W        W28887   0.764  13.511  14.855  0.0712 -0.0719 -0.4260
10684W        W28888   4.889   7.737   1.480 -0.2101  0.0587  0.2426
10685W        W28889  13.943   1.915  14.764  0.0995  0.0367 -0.2391
10686W        W28890   6.723   0.756  12.207 -0.0980  0.0473  0.1896
10687W        W28891   2.033  12.706  11.905  0.1667  0.2086 -0.2194
10688W        W28892   9.158   8.396   1.077 -0.2321  0.0512  0.2332
10689W        W28893  10.903  16.382   4.544 -0.3522  0.1132  0.0267
10690W        W28894  14.861  17.296  10.496 -0.2999 -0.2402  0.0242
10691W        W28895   6.364   7.068   5.051  0.0242 -0.3991  0.0410
10692W        W28896   0.756   4.746  13.050 -0.0827  0.2340  0.4587
10693W        W28897  17.999  16.419   4.710 -0.0039 -0.0077  0.1845
10694W        W28898  15.031   1.365   2.179 -0.1681  0.0309 -0.0433
10695W        W28899   2.066  12.736  16.124 -0.1780 -0.1688  0.1513
10696W        W28900   3.576  15.695  12.847 -0.3257  0.1389 -0.0331
10697W        W28901  10.246   8.315   2.451  0.0804  0.1156  0.1399
10698W        W28902   0.447  15.087  15.793 -0.2434  0.0578 -0.3937
10699W        W28903   2.759  17.236   4.866 -0.0310  0.4216 -0.2009
10700W        W28904   9.757  17.897  16.145 -0.1736 -0.3336 -0.0045
10701W        W28905  14.211  15.240  15.022  0.0769  0.1602  0.1180
10702W        W28906   3.377   5.881  13.215 -0.1752  0.1274  0.2729
10703W        W28907   8.191  11.757   1.155 -0.3044 -0.1695 -0.0572
10704W        W28908  11.712   8.865   2.274 -0.0312 -0.1225  0.0634
10705W        W28909  14.058  17.446   3.301 -0.0100  0.1190  0.2546
10706W        W28910  11.321  16.790   0.396 -0.1007  0.1236  0.2285
10707W        W28911   6.075   0.224   5.482  0.1232 -0.0302 -0.0300
10708W        W28912  11.903  17.708  12.139 -0.2894  0.2918  0.0534
10709W        W28913  15.149  16.979   2.639 -0.0051 -0.0777 -0.1936
10710W        W28914   9.811   5.807   1.913  0.6219  0.1244  0.0600
10711W        W28915   2.252  17.232   0.551 -0.0370 -0.0456 -0.1888
10712W        W28916   8.462   1.947   2.115 -0.0065 -0.2028 -0.2599
10713W        W28917  10.851   5.641   2.185 -0.1557 -0.1939 -0.1388
10714W        W28918  10.333  17.968   0.141  0.1480  0.0567 -0.1801
10715W        W28919   8.004  17.902  13.117 -0.1810  0.0507 -0.1622
10716W        W28920   5.415   7.923   2.766 -0.2548 -0.0873 -0.1080
10717W        W28921   4.561   0.402  11.119  0.0405 -0.0923  0.2135
10718W        W28922   7.755  10.349   1.185  0.0270  0.2564 -0.1711
10719W        W28923  17.978   1.145   5.444 -0.1253  0.0515 -0.0340
10720W        W28924   2.254   2.905   3.598 -0.0431  0.1683 -0.0678
10721W        W28925   8.080  17.588  11.360 -0.3370 -0.1055  0.3116
10722W        W28926  15.859   1.688  14.956 -0.2563  0.2373  0.0002
10723W        W28927   0.336   6.225   3.380 -0.0455 -0.0591 -0.3213
10724W        W28928  17.234  17.797   3.622  0.2504  0.0500  0.2096
10725W        W28929  17.787   8.294   0.910 -0.4097 -0.1015  0.0778
10726W        W28930  14.495   8.145   1.508 -0.0013  0.1146 -0.0597
10727W        W28931  10.045   8.234  14.111  0.2416 -0.3845  0.0566
10728W        W28932   3.016   9.013   2.603 -0.0816 -0.3769 -0.0361
10729W        W28933   7.644  11.122  15.366  0.0845 -0.1445  0.0202
10730W        W28934  13.012  16.171  13.099  0.2962  0.1360 -0.0246
10731W        W28935   4.553   9.450   1.768 -0.1178 -0.0864 -0.3487
10732W        W28936  16.618   8.173   1.160  0.0631 -0.0421  0.3817
10733W        W28937  14.346  15.571  11.608 -0.0045  0.1964 -0.0242
10734W        W28938  10.968  15.194   3.332  0.2807  0.0054 -0.0579
10735W        W28939  17.712  13.747   3.874 -0.3897 -0.0535 -0.0360
10736W        W28940   4.667  13.715   0.865  0.0739  0.1136  0.0195
10737W        W28941  13.398   9.354   3.923 -0.0607 -0.2832  0.0737
10738W        W28942   9.980   9.566  15.667 -0.0187 -0.1993 -0.0039
10739W        W28943  10.874   3.722   1.344 -0.2423  0.0156 -0.0524
10740W        W28944  11.409   7.920   5.849 -0.1599  0.2170  0.1905
10741W        W28945   6.845   6.701  12.848  0.2184 -0.0774  0.4054
10742W        W28946   9.660   0.261   0.225  0.1250  0.0864 -0.3217
10743W        W28947   4.893  16.861  10.465 -0.0214  0.0676  0.0365
10744W        W28948   3.453   4.632  15.014 -0.1680  0.1064  0.0104
10745W        W28949   4.367  10.025  13.869  0.0493 -0.1030 -0.0334
10746W        W28950  15.624   5.726   3.547  0.2508  0.1056  0.0358
10747W        W28951  11.287   5.983   1.051 -0.1671  0.0610  0.0956
10748W        W28952   5.807  16.158  11.181 -0.5884  0.0133 -0.2926
10749W        W28953   3.434   2.222   2.471  0.2707 -0.1404 -0.4072
10750W        W28954   9.851   5.165   2.022  0.2825  0.2669  0.0505
10751W        W28955   3.745   8.453  16.040 -0.1094 -0.0592  0.1468
10752W        W28956   3.792   2.085  11.710  0.1347  0.1116 -0.1726
10753W        W28957   1.644   6.160   2.132 -0.0038  0.1713 -0.0583
10754W        W28958   0.045   5.409   4.647  0.1224 -0.2868 -0.2383
10755W        W28959  17.355   7.754   1.486 -0.1868 -0.0763 -0.1487
10756W        W28960  13.967   4.941   2.156  0.2515 -0.2074 -0.2204
10757W        W28961  13.774  11.452   1.686  0.2457 -0.4106  0.0566
10758W        W28962  10.502   9.589   0.775  0.0626  0.2098 -0.1717
10759W        W28963  16.512   6.747  12.295 -0.2614 -0.3104  0.3251
10760W        W28964  17.427   7.123   0.131  0.0417 -0.0236  0.1184
10761W        W28965   3.560   8.923   2.593 -0.1012  0.0845  0.0563
10762W        W28966  15.974   8.170   0.406  0.0672 -0.1649 -0.0004
10763W        W28967  10.347  15.948   2.767  0.1558  0.3759 -0.1056
10764W        W28968  16.439   7.336  13.946  0.0929 -0.0390 -0.2801
10765W        W28969  12.100  15.433   0.303  0.3456  0.1788 -0.2810
10766W        W28970   8.064   8.749  15.222  0.1865  0.0394 -0.0059
10767W        W28971   4.794  17.779  14.630 -0.1822 -0.0036 -0.2263
10768W        W28972  11.995   8.772   5.842 -0.2443 -0.0026  0.0972
10769W        W28973   8.146  16.998   2.226 -0.1951  0.1406  0.1051
10770W        W28974   8.269   8.391   4.748  0.2693  0.4227 -0.2134
10771W        W28975   1.913  15.720  14.233 -0.1343 -0.1330 -0.1393
10772W        W28976   3.566  12.666   4.372 -0.2193 -0.2612 -0.0105
10773W        W28977  13.087   2.590  11.430 -0.2335  0.3537  0.2734
10774W        W28978  16.929  13.389  11.894  0.3309  0.0237  0.0186
10775W        W28979   5.318  15.457  11.079 -0.0146  0.1033  0.2334
10776W        W28980  10.804   1.528  13.583 -0.1089  0.2666 -0.0271
10777W        W28981  16.825   3.079   3.762 -0.0941 -0.0670 -0.4406
10778W        W28982   3.681   6.954  12.771  0.0947  0.0768  0.0313
10779W        W28983   1.014  10.818   1.580 -0.0756  0.1061  0.1016
10780W        W28984   1.155   0.624   4.219  0.2467 -0.0288 -0.2861
10781W        W28985   7.668  16.747  15.149 -0.0189  0.1019 -0.2136
10782W        W28986   3.489  12.420   2.540  0.0127  0.1146  0.0403
10783W        W28987  13.497  17.460   1.984  0.0203 -0.3157 -0.1649
10784W        W28988  12.883  14.940   4.004 -0.0397  0.1338  0.0162
10785W        W28989  15.619  13.265   4.482  0.0151  0.1613  0.0394
10786W        W28990   8.751  17.868  13.895  0.0873  0.1683  0.2076
10787W        W28991   3.733   0.007   1.455 -0.3674 -0.0240  0.0124
10788W        W28992  13.256  15.005   1.960  0.0158  0.0197 -0.0404
10789W        W28993   9.671   0.654  14.768 -0.1220  0.0274 -0.2116
10790W        W28994  12.064   7.150   2.003  0.1025  0.0471  0.2516
10791W        W28995  13.162   7.190   0.816  0.1200 -0.0031  0.4264
10792W        W28996   5.122  11.044   5.666  0.2003 -0.0957  0.0416
10793W        W28997  11.612  12.219  12.152  0.1483  0.0454  0.3159
10794W        W28998  11.638   4.817   1.915 -0.1786  0.0078  0.1407
10795W        W28999   4.090  10.420  14.069 -0.0914  0.1092  0.1918
10796W        W29000  15.928  13.928  12.787 -0.1193 -0.0429  0.2291
10797W        W29001   1.500   7.873   1.412 -0.0312  0.0850 -0.0102
10798W        W29002   9.458  16.867  13.873  0.3444 -0.3544 -0.0178
10799W        W29003   0.122   6.993  12.462 -0.0643 -0.1152  0.0728
10800W        W29004  11.733   2.128  15.141 -0.0687 -0.1519 -0.2653
10801W        W29005   6.477   1.928   0.303  0.0375 -0.1336 -0.1620
10802W        W29006   4.713  14.046  15.279  0.2568 -0.0148 -0.0967
10803W        W29007   6.469  11.042  13.386 -0.2568  0.0554 -0.3882
10804W        W29008   6.884   4.557   1.426  0.1528 -0.2192  0.2611
10805W        W29009   7.674  10.588  15.507  0.0703  0.0096  0.2556
10806W        W29010  15.816  13.032  15.328  0.0824  0.0291 -0.0058
10807W        W29011  16.419  16.707  13.417 -0.1764 -0.0502 -0.1831
10808W        W29012  14.522   0.387  11.105 -0.1129  0.2206 -0.3458
10809W        W29013   4.792  16.760   0.037  0.3351  0.1824  0.0598
10810W        W29014   2.482  17.085  12.186  0.0215  0.5394  0.1378
10811W        W29015  14.193   8.783   4.540 -0.0228  0.0768  0.0994
10812W        W29016   8.995  17.432   0.571 -0.1183 -0.1355 -0.0713
10813W        W29017   8.307   0.248  14.379  0.1609  0.2667 -0.3607
10814W        W29018  15.822   3.072  15.479 -0.0691  0.1094  0.0446
10815W        W29019   4.530   1.513   0.884 -0.0824 -0.1836  0.0925
10816W        W29020   2.012  10.347  11.977 -0.1496 -0.0680  0.0798
10817W        W29021   3.407   3.217   4.239 -0.2653  0.0105  0.0818
10818W        W29022   4.414  12.830  12.135 -0.1591 -0.1912 -0.1712
10819W        W29023   2.597  15.722   3.659 -0.2138  0.1250 -0.1368
10820W        W29024   8.670   5.775   2.873  0.4395  0.1201  0.0276
10821W        W29025   2.019   3.362   3.674 -0.0832 -0.0684  0.3698
10822W        W29026   6.640  17.873  12.879 -0.0980  0.0911 -0.1584
10823W        W29027   1.242   5.187   4.497 -0.2733 -0.0733 -0.0096
10824W        W29028   3.789  10.401  13.133  0.1683 -0.2295  0.0971
10825W        W29029   7.509   8.473  13.489 -0.0128  0.2652  0.1168
10826W        W29030  12.065   5.627  15.186  0.0323  0.4147 -0.1158
10827W        W29031  14.088  13.003  13.671  0.1013 -0.1109  0.1023
10828W        W29032  11.032  14.587   3.622  0.1986 -0.0940 -0.0345
10829W        W29033  14.268   9.410   4.157  0.1223  0.0985 -0.0169
10830W        W29034  17.350   0.764  14.028 -0.0080  0.0731 -0.2628
10831W        W29035   4.889   8.516   4.805 -0.2249 -0.1455 -0.5774
10832W        W29036  13.711   9.133   4.328  0.3470  0.0645 -0.2444
10833W        W29037  13.909  10.189  16.026  0.0106  0.0369 -0.0969
10834W        W29038  15.646   7.335  13.571 -0.3219 -0.1332 -0.1261
10835W        W29039   9.638   4.478   3.423 -0.0510  0.0311  0.1696
10836W        W29040   9.790  12.189  13.285  0.0906 -0.0829 -0.1510
10837W        W29041   2.314  14.420   4.943 -0.1827  0.3703 -0.3444
10838W        W29042   5.340   2.233   2.585 -0.0370 -0.0188 -0.1137
10839W        W29043   5.767   8.402   0.789 -0.1292 -0.0385  0.0551
10840W        W29044  15.045   4.171  13.179  0.1676  0.0502 -0.0525
10841W        W29045  15.030   1.736  13.352 -0.0907  0.1844  0.0507
10842W        W29046  10.633  16.495  12.254  0.1482 -0.1554 -0.3736
10843W        W29047   4.110  17.745   0.011 -0.1216 -0.0249 -0.1392
10844W        W29048   4.735   7.936   4.089 -0.2719  0.0653 -0.0111
10845W        W29049   8.872  10.799  15.924  0.0997 -0.0930 -0.0923
10846W        W29050   9.913  12.191   4.125 -0.0475  0.3120 -0.0160
10847W        W29051   5.629  14.429   2.523 -0.0153  0.0007 -0.1580
10848W        W29052   1.930  12.776  14.695  0.0187  0.0782  0.1369
10849W        W29053   6.080   9.027   2.696  0.1856 -0.1137 -0.0108
10850W        W29054  17.718  12.787   2.722  0.0003 -0.1858 -0.2612
10851W        W29055  11.383  17.843  15.094  0.0985  0.6529 -0.0437
10852W        W29056  17.113   6.206  14.890 -0.0960 -0.1351  0.0006
10853W        W29057   3.042   1.580  15.671  0.0856 -0.0598  0.2769
10854W        W29058  13.497   2.842   1.726  0.1552 -0.0037 -0.2811
10855W        W29059   3.861   5.940  14.953 -0.0722 -0.1470 -0.0318
10856W        W29060   1.724   2.567  16.028  0.0624 -0.3935 -0.0764
10857W        W29061   4.415  12.975  13.727  0.0365  0.1820  0.1459
10858W        W29062   7.048  11.833   5.205  0.1828  0.2791 -0.1129
10859W        W29063  16.885   0.500  13.569  0.0423 -0.0472  0.0574
10860W        W29064  16.145   6.974   3.914 -0.0545 -0.0485 -0.1653
10861W        W29065   0.187  14.503   2.766 -0.0392 -0.1586 -0.1188
10862W        W29066   3.304   2.797  11.446  0.0137 -0.0786  0.1570
10863W        W29067  15.763  11.149   5.420 -0.0110  0.1606  0.1421
10864W        W29068   4.031   3.517  16.102  0.2479  0.1286  0.1172
10865W        W29069  16.399  15.442   5.098  0.2023 -0.2112  0.1342
10866W        W29070  14.222   5.997  13.619  0.2808  0.0883 -0.0292
10867W        W29071   8.361   5.291   4.966 -0.0047 -0.0529  0.1379
10868W        W29072   5.294   7.266   2.623 -0.3899 -0.2517  0.0088
10869W        W29073  17.142   4.714   5.268  0.1960  0.0595 -0.0171
10870W        W29074  12.144   8.054   3.794  0.0345 -0.1905 -0.1484
10871W        W29075   4.894  12.425  15.446 -0.2216 -0.0599 -0.0673
10872W        W29076  13.834   1.645   3.038  0.2885  0.1240 -0.1622
10873W        W29077   4.230   6.255   1.181 -0.2767  0.2006  0.0939
10874W        W29078   9.490   9.407  14.587  0.1319  0.0290  0.0619
10875W        W29079  11.023  17.859   4.823 -0.0672 -0.2431 -0.1824
10876W        W29080   1.792  16.505  14.787  0.1011 -0.0277 -0.1022
10877W        W29081   3.697  10.820   0.427  0.0902  0.0123 -0.2158
10878W        W29082  17.086  15.358   4.565  0.0424  0.3128  0.0476
10879W        W29083  10.699  16.852   2.887 -0.1094 -0.1326 -0.1334
10880W        W29084   0.442  17.527   2.926 -0.3697 -0.0773 -0.0297
10881W        W29085  14.258   0.176  13.546  0.2327 -0.0712 -0.2075
10882W        W29086  10.077  15.907   1.335  0.1582  0.1846  0.3398
10883W        W29087   0.480  12.887  12.746  0.2415  0.0497  0.1945
10884W        W29088   3.286   3.475  11.631  0.2085  0.2809 -0.3261
10885W        W29089   3.317  16.180  15.849 -0.2094  0.0007 -0.1469
10886W        W29090   3.496  13.820  11.761  0.2847 -0.3056  0.0690
10887W        W29091  14.405   5.825   0.730  0.0937  0.0408  0.2975
10888W        W29092  14.414   7.061   5.270 -0.0843  0.2804  0.2404
10889W        W29093  17.904   7.633  12.877 -0.1080 -0.0601 -0.3933
10890W        W29094  11.352   3.176   2.676 -0.2576  0.4327  0.0098
10891W        W29095   1.749   9.047  10.789  0.1180  0.1211  0.1770
10892W        W29096  16.631   1.889  12.168 -0.2222  0.2965 -0.0853
10893W        W29097   4.591   9.515  11.201 -0.1787 -0.1069 -0.0845
10894W        W29098   8.305  17.149   4.236  0.0076 -0.1738 -0.0452
10895W        W29099   2.904   5.064   0.905 -0.0086  0.2710  0.0986
10896W        W29100  15.903   5.000  15.016 -0.1932 -0.3279 -0.2549
10897W        W29101  12.628   0.374   0.203 -0.0771  0.0901  0.2569
10898W        W29102   9.345  16.168  15.091  0.3066 -0.1783 -0.0813
10899W        W29103  16.043   9.667   3.936  0.1750 -0.1868 -0.2015
10900W        W29104   5.718  16.446   1.963  0.1146 -0.0158 -0.0330
10901W        W29105   4.092   2.463  12.266  0.1829  0.3116 -0.1949
10902W        W29106   1.385   5.512   1.640  0.1110 -0.1042  0.0923
10903W        W29107   9.635  10.313  14.692  0.1145  0.0562  0.0351
10904W        W29108  14.553   5.567   3.172 -0.1569  0.1145 -0.2370
10905W        W29109   0.541   6.284   5.274  0.1421 -0.4734 -0.2071
10906W        W29110   4.768  10.688   3.211 -0.2282  0.3673 -0.2219
10907W        W29111  14.447   0.588   0.942 -0.2368  0.3055  0.2006
10908W        W29112   2.633   8.835   2.970 -0.2496 -0.0570 -0.1450
10909W        W29113   2.271   1.401  10.060 -0.0177  0.0189 -0.0697
10910W        W29114  11.047   1.782   4.561 -0.1083  0.0668  0.0801
10911W        W29115  14.119   3.986  12.783  0.0143 -0.0414  0.1202
10912W        W29116   4.682   2.705  11.520 -0.1816  0.0650  0.0947
10913W        W29117   8.142   0.713   1.287 -0.0295  0.0219 -0.0126
10914W        W29118  13.762  11.825  15.735 -0.0962 -0.0322 -0.1693
10915W        W29119   8.524  11.181   2.577  0.0005 -0.3424  0.2984
10916W        W29120  17.816  16.840   2.804 -0.1808 -0.0247  0.1103
10917W        W29121  10.074  13.523  12.000  0.1114 -0.2103  0.0170
10918W        W29122  12.999   6.894  12.555 -0.1465  0.0335  0.1495
10919W        W29123  10.414   6.363  14.858 -0.0174  0.0684  0.2388
10920W        W29124   1.082  17.590   0.733  0.1991  0.0257  0.1734
10921W        W29125   7.498   5.709  15.753  0.0333  0.1716  0.0599
10922W        W29126   2.081   3.647   4.128 -0.1440 -0.0280 -0.0057
10923W        W29127   1.807  11.421  12.569  0.1630 -0.0008 -0.3027
10924W        W29128   6.409   5.250   1.005  0.1331  0.1487 -0.0306
10925W        W29129  13.124   7.325  14.712 -0.3298  0.0217 -0.3229
10926W        W29130   9.531  11.481  11.543 -0.3852  0.2222  0.0213
10927W        W29131  10.236  10.037  13.407  0.0506 -0.0262  0.0435
10928W        W29132   5.108  12.653   2.081 -0.0683 -0.0947 -0.3139
10929W        W29133   0.494   3.603   1.996  0.1378 -0.2100  0.2601
10930W        W29134   3.254  13.827   1.007  0.0686  0.0331  0.1347
10931W        W29135  15.475  15.085   0.626 -0.1019 -0.0159  0.0581
10932W        W29136  16.120  11.595   1.517 -0.0255 -0.2785 -0.1325
10933W        W29137   0.363  11.821  15.350 -0.1754  0.3922  0.0817
10934W        W29138   8.153   0.179   0.122 -0.1579 -0.0055  0.0508
10935W        W29139  16.723  10.557  13.013 -0.2477 -0.0563 -0.1181
10936W        W29140  10.005  17.369  15.053 -0.1426 -0.0286 -0.0198
10937W        W29141   3.644   6.995  11.696 -0.0020  0.0019  0.4941
10938W        W29142  11.350   6.508  12.199 -0.0384  0.0786  0.1499
10939W        W29143   5.633   0.239   3.515 -0.0954 -0.0684 -0.2477
10940W        W29144   1.058   1.487   9.890 -0.0869 -0.1126 -0.2331
10941W        W29145   9.323   0.114   3.970  0.0913  0.2425  0.1440
10942W        W29146   4.165  12.751   3.217  0.0852 -0.0743  0.0142
10943W        W29147   8.166  14.221   4.184  0.0160  0.1648 -0.0385
10944W        W29148   2.934  10.394   5.897 -0.0133 -0.1974 -0.2362
10945W        W29149   2.552  10.342   3.375  0.2717 -0.2804  0.0645
10946W        W29150   2.496   1.270  11.612  0.0050 -0.2569 -0.0819
10947W        W29151   4.688   4.211   3.887  0.0660  0.2725 -0.1224
10948W        W29152   6.955   2.798  15.419 -0.3441 -0.2246  0.0808
10949W        W29153  10.995   8.739  12.021  0.0571  0.1129  0.0563
10950W        W29154  14.600   2.900   4.721  0.1006 -0.0359  0.0138
10951W        W29155  12.299  13.492  12.097  0.0284  0.0044  0.0585
10952W        W29156   3.319  17.348  12.035 -0.2320  0.2727  0.0404
10953W        W29157   2.759  14.632   0.370  0.0920  0.0662  0.0697
10954W        W29158  15.354   1.691  15.791 -0.0843  0.0164  0.2037
10955W        W29159   0.160  16.044  15.397  0.1068 -0.1628  0.0518
10956W        W29160   8.845  14.574   4.492 -0.1200  0.1705  0.1037
10957W        W29161  12.824  17.544  13.905 -0.0436  0.2790  0.0703
10958W        W29162   1.390   4.990  11.225 -0.0517 -0.0237  0.0652
10959W        W29163   1.538   8.221  14.805  0.0071  0.1972  0.3987
10960W        W29164   3.623  11.544   3.673  0.0414 -0.3169  0.0795
10961W        W29165  11.231  14.759   0.066 -0.0178  0.0439  0.0229
10962W        W29166   8.231  16.422  12.014 -0.1062 -0.0473  0.2973
10963W        W29167   8.832   6.773   1.582  0.0906 -0.0200  0.1305
10964W        W29168   3.814  15.164   4.475  0.0018  0.3044  0.0134
10965W        W29169   1.543  14.296   2.658  0.0411  0.0450 -0.0279
10966W        W29170   8.012  10.920   5.027 -0.1736 -0.0673  0.2028
10967W        W29171  15.511   0.272   4.018  0.2111  0.3043  0.0167
10968W        W29172  15.795   4.974   4.829  0.1349 -0.1833 -0.2145
10969W        W29173   6.396   4.760  15.816  0.0177  0.2517  0.2735
10970W        W29174  11.393   1.767   4.926 -0.0704  0.0157  0.0004
10971W        W29175  15.676  15.007  12.463  0.0365 -0.1496  0.1232
10972W        W29176   5.811   0.668   4.067  0.0271 -0.1354 -0.2308
10973W        W29177  15.004   2.436  12.060  0.0264 -0.2167 -0.2102
10974W        W29178   1.009   3.415   3.338 -0.0288  0.1230 -0.1174
10975W        W29179  11.357  13.863  13.447 -0.0700 -0.0190 -0.0417
10976W        W29180   9.503  10.623  13.707  0.0553  0.1321  0.0752
10977W        W29181   9.827  11.089   1.781  0.2345 -0.0440  0.2507
10978W        W29182   6.871   2.515   3.371 -0.3185 -0.2145  0.1137
10979W        W29183   4.730  16.962  14.130 -0.1087  0.1966  0.1131
10980W        W29184  15.726   0.045   0.964  0.0712  0.0148 -0.0460
10981W        W29185   6.585   6.911   1.880 -0.0469  0.1114 -0.1480
10982W        W29186   1.552  16.814  11.857 -0.2023  0.3870  0.0386
10983W        W29187  10.646  13.404  12.746  0.1354  0.2682 -0.1294
10984W        W29188  13.170  10.123   3.180  0.1381  0.0222  0.3358
10985W        W29189  14.683  16.090   2.501 -0.0361 -0.1209  0.0669
10986W        W29190   9.834  11.556   5.418 -0.2696  0.0234  0.0588
10987W        W29191   6.243  10.666  12.749  0.2651  0.0616 -0.2884
10988W        W29192  11.114   6.341   2.331 -0.0861 -0.2975  0.0615
10989W        W29193   0.492   5.757   0.689 -0.3080  0.1251 -0.0221
10990W        W29194  13.006   8.187   3.174 -0.0025  0.1952  0.0088
10991W        W29195  11.492  10.661  13.352 -0.0627 -0.0014 -0.0477
10992W        W29196   3.314   7.703   1.390 -0.0786 -0.0157 -0.1204
10993W        W29197  10.521  13.009   0.115  0.0260  0.0739 -0.2494
10994W        W29198   9.865   1.019  15.116 -0.1826 -0.0288  0.0737
10995W        W29199   0.709  17.237   3.641  0.1398 -0.0173 -0.0384
10996W        W29200   2.236   6.106   4.959 -0.0620  0.0579  0.2436
10997W        W29201  12.799  15.862   1.457 -0.1846 -0.1491 -0.2567
10998W        W29202   7.606   2.946  13.096 -0.0819 -0.0056 -0.0718
10999W        W29203  17.528  12.233   2.344  0.1065 -0.0027  0.1531
11000W        W29204  16.272  15.291  13.098 -0.1453  0.0480 -0.0195
11001W        W29205   8.598  12.590   5.001 -0.1311 -0.0393  0.1648
11002W        W29206  10.246   9.565   2.867  0.0751 -0.2178 -0.2201
11003W        W29207   3.961   8.102  15.159 -0.2306 -0.0807 -0.2218
11004W        W29208   2.053  12.110  15.333  0.1578  0.0511  0.0743
11005W        W29209  15.256  15.636  14.999  0.1192 -0.2940 -0.0063
11006W        W29210  14.902   9.191  15.987 -0.2994  0.0393 -0.0508
11007W        W29211  11.988  16.082   4.122 -0.2069  0.0248 -0.0466
11008W        W29212   2.470   0.733   0.484  0.0612 -0.0329  0.1204
11009W        W29213  14.003   4.222  11.826 -0.1193  0.0245  0.0946
11010W        W29214  17.405   3.560   5.619  0.0024 -0.0009  0.1474
11011W        W29215   6.312   8.848  10.655  0.0092 -0.2268  0.1267
11012W        W29216   7.316   9.299  14.844 -0.0380 -0.1365  0.1494
11013W        W29217  16.205  11.914   1.920  0.2801  0.1677 -0.0225
11014W        W29218  16.008  10.953   2.178  0.2355  0.2430 -0.2565
11015W        W29219   1.120  10.964  12.665 -0.1213  0.3165 -0.1750
11016W        W29220   2.106  10.520   0.090  0.0813 -0.1881  0.2631
11017W        W29221   3.477  12.805   3.790  0.1645  0.1066  0.1340
11018W        W29222  10.804   7.501   2.239 -0.0068 -0.0856 -0.0017
11019W        W29223   2.654   2.824   2.649 -0.0523  0.2233 -0.0568
11020W        W29224  14.322   0.458  12.775  0.2312  0.3164  0.2631
11021W        W29225  12.765  10.985  14.602 -0.0057 -0.1176 -0.2257
11022W        W29226   6.357   5.411   1.573  0.2107  0.0417 -0.0778
11023W        W29227   5.576  14.862  11.712  0.2330 -0.0190 -0.0035
11024W        W29228  13.574  16.467  11.222 -0.1902  0.0915  0.0175
11025W        W29229   5.484  10.594   4.219 -0.1203  0.0962 -0.0899
11026W        W29230   8.195   6.118   4.155  0.0335 -0.1385  0.2572
11027W        W29231  14.383   0.395  16.012 -0.0760 -0.2874 -0.0558
11028W        W29232   5.861  12.653   3.976 -0.1646 -0.0721  0.0043
11029W        W29233   0.441  14.282   0.208 -0.3362 -0.0296 -0.2148
11030W        W29234   5.350  10.493  12.476  0.0188 -0.2238 -0.0461
11031W        W29235  15.802   3.117   0.564 -0.1437 -0.0712 -0.0730
11032W        W29236   9.903  11.002   0.779 -0.1398 -0.0105  0.1472
11033W        W29237   8.180  15.540  11.908  0.0060  0.4526 -0.0599
11034W        W29238  12.442   6.987  13.798 -0.0230 -0.0234  0.1096
11035W        W29239   6.563  10.929   0.793 -0.1173  0.0060 -0.1075
11036W        W29240   9.348   2.107  13.479  0.2159  0.1550  0.1030
11037W        W29241   1.985   6.916  11.095  0.0699  0.1680  0.1309
11038W        W29242   8.929   1.021   4.101  0.1193  0.0882  0.0638
11039W        W29243   7.453  12.511   1.463  0.1087  0.3738 -0.1505
11040W        W29244   3.350  16.385  12.033 -0.0307 -0.0527 -0.1054
11041W        W29245   5.509  17.035   5.837  0.1064 -0.1280 -0.1639
11042W        W29246  11.110   7.548   1.874  0.2338  0.1689 -0.0406
11043W        W29247  17.141  17.479   2.718  0.2648 -0.1015  0.0699
11044W        W29248  15.162  16.088   1.726 -0.1043 -0.0886  0.1490
11045W        W29249   5.442   4.181   4.431  0.0964 -0.0377  0.0519
11046W        W29250   7.700  17.513  10.908 -0.0926  0.4487  0.1951
11047W        W29251   2.547  11.755  12.139 -0.1346 -0.0595 -0.2338
11048W        W29252   8.954  14.860   4.069 -0.2696  0.2393 -0.1940
11049W        W29253  15.694  11.928   4.789 -0.1201 -0.1670 -0.4616
11050W        W29254  10.053   0.605  13.256  0.0030  0.2449 -0.1562
11051W        W29255  10.865  16.000   2.942 -0.0859 -0.2256  0.0100
11052W        W29256  10.876   6.433   0.388 -0.3310  0.0291  0.0750
11053W        W29257  14.641   2.487   3.563  0.0641 -0.0548  0.1419
11054W        W29258   8.965  16.058  14.783  0.1810 -0.2684  0.3058
11055W        W29259   4.717   4.584  11.551  0.0818 -0.1893  0.1193
11056W        W29260  15.624   2.446  13.328 -0.1846  0.0820 -0.2585
11057W        W29261   6.346  11.659  11.439 -0.2429  0.0346 -0.1029
11058W        W29262  11.552   7.231  16.146 -0.1357  0.1163 -0.1315
11059W        W29263  16.219   4.576  11.654  0.1500 -0.1215 -0.1888
11060W        W29264   7.249   5.582   4.087  0.4325  0.0787  0.0412
11061W        W29265  15.144  11.627   1.040 -0.2010 -0.0398 -0.0739
11062W        W29266  16.399   4.094   2.835 -0.1164  0.2744  0.2892
11063W        W29267   6.085   8.950  12.401  0.0100  0.1314  0.0778
11064W        W29268  17.509   3.199  13.770  0.0584  0.1618 -0.2537
11065W        W29269   7.550  10.069  12.442 -0.0305  0.1928  0.0307
11066W        W29270  11.194  13.895   1.714  0.3372  0.0648  0.1546
11067W        W29271   6.682   7.899   2.921 -0.2319  0.0491  0.1602
11068W        W29272  13.171   2.243   4.334 -0.1281  0.1917 -0.1163
11069W        W29273  18.040  16.377   2.804  0.1442 -0.0440 -0.1460
11070W        W29274   5.439   0.921   1.681  0.2689  0.0004  0.0349
11071W        W29275   8.436  11.873   4.318 -0.1968 -0.0870  0.0879
11072W        W29276   5.945  16.587   2.837 -0.2851 -0.0571  0.2330
11073W        W29277   2.285  10.142   1.091  0.1460 -0.1888  0.2132
11074W        W29278  17.001   6.360   0.468 -0.1759 -0.0092  0.0110
11075W        W29279  12.695   8.873   0.501 -0.3175  0.0114  0.0153
11076W        W29280   0.185   8.635  13.868  0.1333  0.0978  0.0704
11077W        W29281   4.331  16.196  14.738  0.1231 -0.4745  0.1887
11078W        W29282   0.375  15.602  15.576 -0.0243 -0.3685 -0.1230
11079W        W29283   8.274   7.604   1.554 -0.1998 -0.0485 -0.3128
11080W        W29284  12.765  14.057  11.319  0.0189  0.0221 -0.0911
11081W        W29285   5.330   1.237  10.922  0.0287 -0.0716 -0.2761
11082W        W29286  12.532   1.752   4.370  0.2023 -0.1144  0.2725
11083W        W29287  11.526  16.630   3.412 -0.0910  0.0560  0.0506
11084W        W29288   7.624   1.188  13.622  0.3238 -0.1227  0.0053
11085W        W29289  12.032  14.852  14.800 -0.0935  0.0437  0.1514
11086W        W29290  10.353   7.869  12.779 -0.0754  0.1747  0.1769
11087W        W29291  12.495  16.611   3.018  0.2467 -0.1162  0.0261
11088W        W29292   4.910  13.740  13.644  0.1871  0.1426  0.1316
11089W        W29293  16.526  14.935   2.077  0.0714 -0.0074  0.0995
11090W        W29294  16.830   4.600  12.055  0.0336  0.0142  0.0935
11091W        W29295   7.049  10.306  15.084 -0.3555  0.0941  0.1218
11092W        W29296  12.254  12.413   4.668 -0.0023 -0.2198 -0.5629
11093W        W29297  11.057  15.973  15.960  0.0324 -0.2156  0.0883
11094W        W29298   7.525  10.159  11.198  0.0759  0.0568 -0.2898
11095W        W29299   6.547  15.164   2.843  0.2742  0.0881  0.3948
11096W        W29300   6.211   5.835  14.569  0.0589  0.1669 -0.1158
11097W        W29301   5.758   3.330  11.814  0.0468  0.0898  0.3157
11098W        W29302   1.316   6.821   0.145 -0.1124  0.2118 -0.1539
11099W        W29303   6.289   4.948  14.259 -0.0136  0.3730  0.3814
11100W        W29304   9.401   2.424   0.571  0.0953 -0.2117 -0.1550
11101W        W29305   7.655   3.676   3.460  0.0775  0.2511  0.1810
11102W        W29306  11.995  16.078  12.051  0.1936  0.0455 -0.0878
11103W        W29307   8.716  10.380   0.420 -0.0307  0.1751  0.0302
11104W        W29308  12.110   0.252   2.107 -0.0645  0.0981  0.0114
11105W        W29309   6.413   4.433  16.175  0.1585 -0.1901 -0.1779
11106W        W29310   0.272  16.733   2.702  0.3573 -0.0434  0.0952
11107W        W29311   6.437   1.538   4.498 -0.0260 -0.1685 -0.0132
11108W        W29312  12.576   8.616  13.876  0.0084  0.1372  0.0538
11109W        W29313   0.559  17.864   0.161  0.1541  0.1314 -0.0521
11110W        W29314  12.089  14.460   2.561  0.2276 -0.0175  0.0496
11111W        W29315  13.717   4.678  14.390 -0.1313 -0.0194  0.1806
11112W        W29316  17.371   2.570   4.196 -0.2483  0.3825  0.2792
11113W        W29317   7.034   4.352  15.612  0.2899 -0.0765 -0.0975
11114W        W29318  13.006  16.113   3.841 -0.2563  0.2315 -0.0206
11115W        W29319   0.285   8.250   4.772  0.1797 -0.1443 -0.0150
11116W        W29320  14.135   5.184  13.042 -0.0741 -0.4319  0.1028
11117W        W29321  15.997   9.390  15.162 -0.2258 -0.3280  0.0737
11118W        W29322   0.362   3.931   2.400 -0.0711  0.3110  0.0700
11119W        W29323   0.992  16.670   0.892  0.2063 -0.2718  0.3056
11120W        W29324  17.924   7.619  14.037  0.1874 -0.4078  0.0152
11121W        W29325  10.012  13.095   1.632 -0.0512  0.2072  0.2089
11122W        W29326  15.937   0.048  13.991  0.0558 -0.2846 -0.1062
11123W        W29327   3.067   5.526   3.172  0.3679  0.2569 -0.0246
11124W        W29328  14.559  12.627   0.821  0.0868  0.0202  0.0294
11125W        W29329  10.977  16.901  13.502  0.3687  0.3934  0.1267
11126W        W29330  15.134  10.320  11.259  0.1684  0.4154 -0.0742
11127W        W29331  14.379   6.033   4.134 -0.2835 -0.1173  0.1683
11128W        W29332   4.510  18.006  11.351  0.0879  0.0810 -0.1130
11129W        W29333  12.699  12.604  15.955 -0.3231  0.0553 -0.0048
11130W        W29334  12.340   3.704   4.479  0.2954 -0.0794 -0.0752
11131W        W29335  16.288  16.863   3.934  0.2809  0.3262  0.0653
11132W        W29336  11.681  15.046   2.916 -0.5301 -0.0820 -0.3142
11133W        W29337   5.622   7.765  13.395 -0.1048 -0.2303  0.0568
11134W        W29338  14.932   4.322  15.707 -0.0866  0.2605 -0.0650
11135W        W29339  11.042  11.502   3.479 -0.1785  0.2711 -0.1497
11136W        W29340  11.929   6.211   2.432  0.0270  0.1537  0.2357
11137W        W29341   8.134   0.665  14.122  0.2351 -0.0944 -0.3207
11138W        W29342   3.942  12.571  11.480 -0.0658 -0.0467  0.1381
11139W        W29343   2.895  10.128   3.947 -0.0679  0.1393  0.4875
11140W        W29344   6.207   8.776  11.956 -0.1562 -0.1497 -0.0596
11141W        W29345   7.084   2.025   4.365 -0.1817 -0.1112 -0.1878
11142W        W29346  11.698   2.988  13.908  0.0600  0.0730 -0.1530
11143W        W29347  12.540   6.833  10.639  0.0142  0.1086 -0.2834
11144W        W29348  15.529   7.045   3.732 -0.1504  0.2704 -0.0129
11145W        W29349  16.728  11.019   1.853  0.2217 -0.2886 -0.0888
11146W        W29350   5.520   5.069  15.668 -0.0310  0.1448 -0.1022
11147W        W29351   8.305  16.681   5.163 -0.2094 -0.0756 -0.3627
11148W        W29352   6.739   7.236  11.713  0.0424  0.1981 -0.0791
11149W        W29353  17.644   4.065  11.288 -0.1044 -0.1606  0.2847
11150W        W29354  16.781   9.932   0.885 -0.0528  0.2135  0.2695
11151W        W29355   5.431   6.784  13.083 -0.3189  0.2160  0.1706
11152W        W29356   7.883   8.486  12.153 -0.0630  0.1794  0.0435
11153W        W29357  15.344   6.219   6.088  0.1499 -0.0471 -0.0429
11154W        W29358   4.386   0.475   4.472  0.2196 -0.1265  0.1802
11155W        W29359   5.149  15.404   4.567  0.1508 -0.1455  0.0286
11156W        W29360  16.105  17.973   2.758  0.1639  0.3352  0.0203
11157W        W29361  17.936  16.316   0.904  0.0608  0.3582  0.1163
11158W        W29362  17.092  14.275   0.428 -0.0253  0.1706 -0.0818
11159W        W29363   6.362   7.842   3.363  0.2472  0.0822 -0.3643
11160W        W29364   4.815   7.774  13.813  0.0592  0.2158 -0.0920
11161W        W29365   9.275   7.627   0.526  0.2632 -0.0620 -0.0567
11162W        W29366   9.101   7.376  15.338 -0.0010 -0.0060 -0.0653
11163W        W29367   5.692   5.944  11.761  0.0150  0.1800 -0.2129
11164W        W29368   3.160  12.809   4.155 -0.0566 -0.0905  0.1674
11165W        W29369  10.073   0.532   1.653 -0.2483 -0.0513  0.0445
11166W        W29370  14.553  15.020   3.861 -0.0445  0.1059  0.3209
11167W        W29371   9.950   4.751  13.606  0.3304 -0.0369  0.3143
11168W        W29372  16.479   6.119  11.474 -0.0718 -0.0338 -0.1894
11169W        W29373   5.966   8.229  12.032 -0.1066  0.1763 -0.1283
11170W        W29374  16.786  11.671   3.239 -0.1339  0.0694  0.0828
11171W        W29375   9.015   6.734  11.513 -0.0128 -0.0394  0.1542
11172W        W29376  16.644  11.240  12.397  0.3339  0.0727  0.0689
11173W        W29377  15.528  11.598  12.012 -0.1824 -0.1220  0.0082
11174W        W29378  15.479   0.705  15.845 -0.3447  0.0664 -0.0127
11175W        W29379   5.084   0.248   4.444  0.0137 -0.1876  0.0929
11176W        W29380  10.918   5.926  12.798  0.3198 -0.0196 -0.0342
11177W        W29381   4.009  17.442  12.886 -0.2890 -0.0525 -0.0408
11178W        W29382  16.354   0.412   2.825 -0.1645  0.1338 -0.2721
11179W        W29383  17.034   8.062  12.274 -0.0848 -0.3741 -0.0203
11180W        W29384   1.600   1.406   5.193 -0.1734  0.1050 -0.1341
11181W        W29385  11.922  11.774   2.232 -0.0343  0.2122  0.4467
11182W        W29386   3.220  16.459  13.959  0.0480  0.2244  0.0693
11183W        W29387   9.183   0.155   1.802  0.1938  0.0486  0.2589
11184W        W29388  12.640   4.461   4.334  0.0403 -0.1795  0.0159
11185W        W29389   2.720   1.668   2.088 -0.1320  0.3181  0.1113
11186W        W29390  13.782  16.723  11.609  0.1407  0.2605 -0.0471
11187W        W29391  14.812  11.566   4.398 -0.1195 -0.1026 -0.1905
11188W        W29392   8.090   2.485   1.967 -0.0323 -0.0779 -0.0572
11189W        W29393   2.048   2.236   4.224 -0.1208 -0.2798  0.0538
11190W        W29394  11.605  10.192   1.048 -0.1938  0.0213  0.0616
11191W        W29395  10.424   2.713   1.595 -0.1582 -0.0788 -0.1318
11192W        W29396   9.457  10.985  12.405 -0.2350  0.0041 -0.0048
11193W        W29397  12.623   9.545   1.857  0.0882 -0.2571 -0.1550
11194W        W29398   0.029   0.120  12.656 -0.0238 -0.0073 -0.1050
11195W        W29399  16.189   0.832  15.762 -0.2849  0.0063 -0.2569
11196W        W29400   6.919   6.165   3.351  0.3079 -0.0359  0.0455
11197W        W29401   3.200   0.583  16.128  0.0862  0.0876  0.0950
11198W        W29402  15.610   0.463  11.321  0.0542  0.0198  0.1521
11199W        W29403   9.089   8.665  12.831  0.0448 -0.2093 -0.1486
11200W        W29404  15.615  15.458   5.425  0.0570 -0.0954 -0.3175
11201W        W29405   8.470   5.760  15.127  0.0054  0.0396 -0.1199
11202W        W29406  14.053   0.848  14.854 -0.1338  0.1624 -0.3237
11203W        W29407   2.645   4.387  12.679 -0.0732  0.1420 -0.0512
11204W        W29408   9.404   1.219  15.949  0.2633 -0.1403  0.3198
11205W        W29409   3.407  11.630   4.619  0.0322  0.2041  0.1377
11206W        W29410  11.120   4.267  12.338  0.0452 -0.1909  0.0958
11207W        W29411   4.719   6.410  14.565  0.0837  0.1852  0.1002
11208W        W29412  10.454   6.897  14.256 -0.0807 -0.0572 -0.2037
11209W        W29413   7.104   6.838   4.215  0.1944 -0.1391  0.1745
11210W        W29414   9.524   2.659  11.408 -0.2748 -0.1237 -0.0190
11211W        W29415  15.462   9.188   3.436  0.1379 -0.0930 -0.4695
11212W        W29416   3.275  12.069  12.967 -0.0692  0.3181 -0.3066
11213W        W29417  15.664   9.931   4.700  0.1065 -0.0840  0.1136
11214W        W29418  16.374   0.035   3.698  0.0314  0.2444 -0.0439
11215W        W29419   1.054   6.574  11.768 -0.0322 -0.1459  0.1922
11216W        W29420   8.046  15.772   4.009  0.2917 -0.0445  0.0408
11217W        W29421   8.694   8.192   3.663  0.1435  0.0324  0.1302
11218W        W29422  10.662   1.126   0.726  0.0204 -0.0843  0.0151
11219W        W29423   8.483  13.280   3.777  0.0845  0.0083 -0.2274
11220W        W29424   4.957  17.009  13.290 -0.0977  0.1186 -0.0701
11221W        W29425   2.504   3.968  16.116 -0.0838 -0.1188 -0.3379
11222W        W29426  12.628   5.564   2.343  0.0627  0.0734  0.0512
11223W        W29427  12.518   0.976  12.208 -0.2470 -0.0302 -0.1456
11224W        W29428   1.211   7.232   4.144  0.1513 -0.1690  0.1662
11225W        W29429   4.880   8.042   0.787  0.1302  0.0211  0.2026
11226W        W29430   1.364   5.153   3.100  0.1226 -0.3717  0.0369
11227W        W29431  13.356  14.584  13.534  0.1965 -0.2345  0.4033
11228W        W29432   3.858   9.955  13.951  0.0346  0.2220  0.2525
11229W        W29433   9.720   6.869   2.529 -0.1282  0.2468  0.2315
11230W        W29434  11.745   1.051  15.846 -0.2648 -0.0671 -0.2547
11231W        W29435   1.307  14.159  12.329 -0.1277 -0.0931 -0.2272
11232W        W29436   4.832  15.346   0.010 -0.2823  0.1087 -0.0468
11233W        W29437   1.389  11.047   3.201 -0.1935 -0.0500  0.2036
11234W        W29438  15.339   8.969   3.011  0.1025 -0.3103 -0.1160
11235W        W29439  13.412  10.980   4.203  0.2756  0.1058  0.1166
11236W        W29440   1.712  14.175  15.161 -0.1797 -0.1650 -0.2725
11237W        W29441   5.927   4.504   3.534 -0.0288  0.0570  0.1202
11238W        W29442   3.104   9.632  14.328  0.0289  0.0996  0.0863
11239W        W29443   2.738  13.176   4.838 -0.0402 -0.1464 -0.1015
11240W        W29444   4.975   7.236   1.935  0.3041  0.0694 -0.2613
11241W        W29445  13.835  12.057   0.540  0.2013  0.1190 -0.0032
11242W        W29446   2.633   0.636   3.068 -0.1978  0.1108  0.1304
11243W        W29447  15.568  12.035   3.805  0.1020 -0.0008 -0.0388
11244W        W29448  16.022  15.198   2.698  0.2600 -0.0075 -0.1484
11245W        W29449   8.630  12.687   0.076  0.1464  0.0888 -0.0860
11246W        W29450   5.907  16.755  15.760  0.2322  0.1192  0.0247
11247W        W29451  10.468   0.577   4.546 -0.0519 -0.0049 -0.0029
11248W        W29452  17.228  12.666   4.962  0.5235 -0.1863  0.1234
11249W        W29453   1.867   3.755   0.724  0.3645 -0.1145  0.0368
11250W        W29454   3.078   5.448   1.165  0.3168  0.0481  0.1636
11251W        W29455   7.224  12.199  15.123  0.0536 -0.5664 -0.0192
11252W        W29456   8.016  12.233   2.142 -0.1117 -0.0560 -0.0395
11253W        W29457   5.230  17.740  12.771  0.2258 -0.0144  0.2271
11254W        W29458   6.726   3.285  14.159  0.1575  0.0748 -0.4459
11255W        W29459   9.618  13.344   1.811  0.0262  0.0608  0.0642
11256W        W29460  10.895  13.973   3.294 -0.0714 -0.2829 -0.1536
11257W        W29461   6.521   8.415  11.081  0.2976  0.2033  0.2141
11258W        W29462   2.747   1.562   3.151 -0.1146  0.0584 -0.0578
11259W        W29463   1.136   0.743  13.572  0.1084 -0.0032 -0.1253
11260W        W29464   3.103   6.029   2.014 -0.2192  0.0730 -0.0169
11261W        W29465   2.905   5.327  10.867  0.0656 -0.2648 -0.3019
11262W        W29466   9.003   6.848   0.504 -0.1148  0.0743  0.3094
11263W        W29467  15.167  14.131   4.165 -0.1425 -0.0362 -0.0068
11264W        W29468   7.880   5.449  10.854 -0.2740  0.1190  0.0892
11265W        W29469   1.833   2.075  13.942  0.1510 -0.0570  0.0584
11266W        W29470  12.243  10.975   0.019 -0.1527 -0.1459 -0.0733
11267W        W29471   1.993   3.968  15.905  0.0200 -0.1597 -0.0100
11268W        W29472   0.550   4.919  15.976  0.5357 -0.0650 -0.2470
11269W        W29473   4.771   7.571  13.303  0.2919  0.2065 -0.0131
11270W        W29474   0.899   9.502   4.366 -0.2832 -0.1043 -0.1079
11271W        W29475   1.735   7.450  15.361 -0.1445 -0.1856  0.0227
11272W        W29476  15.221   5.711   3.239 -0.1450 -0.1474  0.0969
11273W        W29477  14.335  10.369  13.024  0.2775 -0.1331  0.2171
11274W        W29478  15.424  16.616  14.385  0.3024 -0.1082  0.2676
11275W        W29479  13.877   3.847   4.379  0.5696  0.0574  0.1358
11276W        W29480  17.874  10.670  11.479  0.2814 -0.1615 -0.3824
11277W        W29481   6.753   3.234  15.251  0.0771  0.0762 -0.1502
11278W        W29482  17.759  18.013  11.386  0.0136  0.0315  0.0869
11279W        W29483   4.096   5.711   2.066  0.0709 -0.3091  0.1076
11280W        W29484  11.468  11.835  14.904 -0.1201 -0.1903  0.2318
11281W        W29485   8.390  13.554  14.235  0.1186 -0.1447  0.1060
11282W        W29486   7.471   6.904  13.861 -0.2142 -0.0634 -0.1656
11283W        W29487   0.038  12.388  11.680  0.1848 -0.0353  0.2861
11284W        W29488   4.551   4.378   1.948 -0.1134 -0.1051  0.4265
11285W        W29489  14.385   7.247   1.185  0.1029 -0.0739 -0.1482
11286W        W29490  13.099  11.908   3.989  0.0813 -0.0210 -0.1504
11287W        W29491   6.215   3.360  13.157 -0.0952  0.0167  0.1403
11288W        W29492  17.439  15.793  14.318  0.0461 -0.2207 -0.1922
11289W        W29493   6.807  10.582  13.480 -0.0604 -0.3216  0.2800
11290W        W29494  13.060   9.064   5.217 -0.4753  0.1992 -0.1989
11291W        W29495   4.837  11.744   0.775 -0.1458  0.1232  0.0553
11292W        W29496   7.519   0.242   0.915  0.2435 -0.3444 -0.0294
11293W        W29497   9.805   5.674  12.253  0.3321  0.1639 -0.2945
11294W        W29498   2.092   7.286   3.166 -0.2866 -0.1397 -0.2486
11295W        W29499  17.582   1.082  15.424 -0.2212  0.3430 -0.2270
11296W        W29500  10.746   2.408   1.133 -0.2660  0.0792 -0.2567
11297W        W29501  14.377   2.932   3.434 -0.1196  0.0645  0.1496
11298W        W29502  16.601  13.907  10.986  0.0241  0.0945  0.0591
11299W        W29503   8.685   7.725  15.452 -0.1250 -0.0375  0.2200
11300W        W29504  11.493   6.072   1.601 -0.2472  0.0682 -0.0427
11301W        W29505   6.741   2.737  13.720 -0.2497  0.3324  0.0335
11302W        W29506   2.497   5.862  14.492  0.0079  0.1113 -0.0378
11303W        W29507  14.751   0.983  11.621  0.1606 -0.1178 -0.0220
11304W        W29508  15.693  14.030   4.074  0.0959 -0.1942  0.2325
11305W        W29509  12.798  10.444  14.581  0.0166  0.1128 -0.2310
11306W        W29510  13.055  15.505  12.309  0.0575  0.0392  0.0951
11307W        W29511   5.096  11.997  14.500  0.0996 -0.3490 -0.3931
11308W        W29512   7.301   6.653   2.746 -0.1718  0.1255  0.0168
11309W        W29513   3.518  11.180  10.551 -0.0224 -0.3017  0.2636
11310W        W29514   8.684  15.514   2.092  0.0222 -0.0623  0.0576
11311W        W29515  14.173  12.351  14.405  0.1780 -0.0639 -0.0111
11312W        W29516  12.424  10.248  13.254 -0.1574  0.0024  0.1901
11313W        W29517  16.045   3.747   3.459 -0.0225 -0.3872  0.1806
11314W        W29518  16.737   4.223  14.002 -0.0600  0.1212  0.1646
11315W        W29519  12.016  10.943  10.937 -0.0710  0.0456 -0.1943
11316W        W29520   6.047   1.207  13.219  0.0104  0.1977  0.0648
11317W        W29521   0.880   5.125  11.336  0.0772 -0.0795  0.1381
11318W        W29522  13.929   8.065   3.624  0.1062  0.0996  0.3337
11319W        W29523   3.152   8.750  14.274  0.0927 -0.0774  0.0886
11320W        W29524   7.763  11.440  15.782  0.0009  0.0459 -0.0668
11321W        W29525   2.163   9.872   1.548 -0.2988  0.2697  0.2057
11322W        W29526  12.935  17.187  15.242  0.1809  0.0513  0.2379
11323W        W29527  16.474  10.647  12.388  0.3367 -0.4187 -0.0142
11324W        W29528   4.865   9.983  12.976 -0.0300  0.5709 -0.1012
11325W        W29529   0.168   5.768  12.937  0.0185 -0.1806 -0.0192
11326W        W29530   8.794  12.823   3.172 -0.1076  0.2122  0.0750
11327W        W29531   6.046  13.595  12.786  0.1812 -0.1505  0.2862
11328W        W29532  14.525   4.609   3.495  0.0782  0.1145 -0.2953
11329W        W29533  17.658   1.191   4.217 -0.1048  0.0193  0.1183
11330W        W29534   0.200  10.011   3.002  0.2207 -0.1093 -0.1120
11331W        W29535  12.255   8.579   1.734  0.0703  0.0362 -0.1208
11332W        W29536   7.334   7.470  15.061 -0.0944  0.1487  0.1524
11333W        W29537   7.599  11.842   0.569  0.5540  0.3152  0.0855
11334W        W29538  13.822  13.782   3.697 -0.2512  0.0564  0.0008
11335W        W29539  15.536   3.489   2.269  0.2365 -0.1698  0.1088
11336W        W29540   9.527   8.626   2.199  0.0171  0.0525  0.3545
11337W        W29541   1.294  10.071  14.460 -0.1424  0.0797  0.1907
11338W        W29542  11.972  13.475  11.678  0.0428  0.0278  0.0290
11339W        W29543   3.541   6.866   1.984  0.0595 -0.5651 -0.1044
11340W        W29544   5.821  17.542   0.287 -0.0686  0.0145  0.1897
11341W        W29545   7.318  16.689  13.731  0.0726  0.2748 -0.1985
11342W        W29546   7.894  10.941  11.235 -0.1953  0.0533  0.3202
11343W        W29547  11.928   2.563  16.046  0.0089 -0.0272 -0.1135
11344W        W29548  16.555   7.891   4.744  0.1770 -0.0652  0.3310
11345W        W29549   9.448   5.502   3.450  0.0675  0.2262 -0.2388
11346W        W29550   3.604  17.964  11.471  0.1822 -0.2879  0.1252
11347W        W29551   0.256  13.214   3.639  0.5475 -0.0519 -0.0944
11348W        W29552  17.399   6.422  12.301 -0.3212 -0.1502 -0.0028
11349W        W29553  15.719  15.721  15.374 -0.0429  0.0037  0.0134
11350W        W29554  13.672   1.515  14.609 -0.0427  0.0359 -0.1174
11351W        W29555  16.475  17.619  15.263 -0.0653 -0.1142 -0.1178
11352W        W29556   7.001  16.535   1.890  0.1203  0.0331 -0.0542
11353W        W29557   5.814   6.438   2.233 -0.0326  0.0270 -0.2091
11354W        W29558  16.760  12.261  15.537  0.1026  0.4980  0.0698
11355W        W29559   9.134   0.878  11.685 -0.1109 -0.1183 -0.1723
11356W        W29560   7.663   2.005   1.765 -0.0552  0.0099 -0.0930
11357W        W29561  16.342   7.851   0.637  0.0673 -0.0224  0.0419
11358W        W29562  16.433  16.033   3.737  0.0862 -0.0600  0.1470
11359W        W29563   1.187   5.606   0.069 -0.0456  0.2988 -0.0817
11360W        W29564  17.311   0.034   2.525 -0.1370 -0.1847  0.4018
11361W        W29565  10.000  11.251  12.696  0.0806 -0.0203 -0.0458
11362W        W29566   5.967   1.770  15.030 -0.1645  0.0925  0.1058
11363W        W29567  12.543   6.865   2.084  0.0599  0.2499 -0.3063
11364W        W29568   7.532  15.498  15.657 -0.0112  0.3037 -0.2476
11365W        W29569  13.924  10.753   0.593  0.0651  0.4349 -0.0705
11366W        W29570   6.704  11.045  14.782 -0.3931  0.4402 -0.0665
11367W        W29571   5.495  13.883   1.824  0.1494  0.1491  0.4620
11368W        W29572   8.529   7.119  10.302  0.0733 -0.0130 -0.2641
11369W        W29573   2.402   1.650   0.380 -0.0609 -0.1331 -0.2402
11370W        W29574  17.956   4.098  14.174 -0.0501 -0.2749 -0.0220
11371W        W29575   3.522  16.592  12.925  0.0603  0.1052 -0.1050
11372W        W29576   2.041   8.923   1.810 -0.1338 -0.1679  0.2609
11373W        W29577   9.162   5.748   0.152  0.0687  0.1661  0.1099
11374W        W29578  16.326   5.662  12.868  0.0264 -0.0489  0.1462
11375W        W29579   5.729   0.828  13.485 -0.2099 -0.1848  0.0561
11376W        W29580   4.065   7.321   2.522  0.0226  0.2157 -0.1854
11377W        W29581  11.701   9.208   0.225 -0.2908 -0.1101  0.2189
11378W        W29582   1.199  12.040  14.895  0.3745  0.2115 -0.0771
11379W        W29583   7.534  12.932  15.181  0.0816 -0.0434 -0.0389
11380W        W29584   4.013  10.788   3.349 -0.2770 -0.2025 -0.1354
11381W        W29585   0.115   9.023   0.774 -0.2170  0.2729  0.0968
11382W        W29586   5.290   0.773  13.087  0.1467  0.2342  0.0189
11383W        W29587  17.482   7.200   2.811  0.0813 -0.4000  0.5625
11384W        W29588  14.579  11.932   1.640 -0.3574  0.1432 -0.3671
11385W        W29589  14.102  16.865   0.127  0.1100 -0.2978 -0.4460
11386W        W29590   9.010   0.528   0.939  0.2185 -0.0433 -0.0962
11387W        W29591  17.401   6.157   1.567 -0.1397 -0.3771  0.2521
11388W        W29592   5.946   0.758  15.042  0.3390  0.1002  0.0114
11389W        W29593   1.823  11.971   4.010 -0.0221 -0.2737  0.0992
11390W        W29594   5.126   2.187   0.737 -0.2838 -0.2160  0.1884
11391W        W29595   3.958   4.177   2.607 -0.1088 -0.0904  0.1443
11392W        W29596   5.064   7.304   3.667 -0.2356 -0.0360  0.1007
11393W        W29597  14.685  12.736   2.986 -0.2671 -0.0037 -0.0576
11394W        W29598   9.690   2.846   3.135 -0.3296 -0.0261  0.0843
11395W        W29599  16.999   8.841   2.316  0.1652  0.3509 -0.0106
11396W        W29600   7.937  14.283  14.000 -0.1613 -0.1114 -0.1042
11397W        W29601   8.534   2.975  15.249 -0.0759 -0.1054 -0.2011
11398W        W29602   6.253  15.704  13.151  0.1682  0.0270 -0.2472
11399W        W29603  10.239   3.131  11.559  0.2581 -0.0105  0.0827
11400W        W29604   8.175  14.620  12.611  0.2493  0.2164  0.0177
11401W        W29605  12.140   9.960  15.116 -0.0603 -0.2037 -0.1396
11402W        W29606   6.814  13.304   1.049 -0.1465  0.2735  0.0101
11403W        W29607  10.034   8.809  14.012 -0.1184 -0.1304  0.2620
11404W        W29608   2.186  17.846  11.186  0.0655 -0.1537 -0.2428
11405W        W29609   4.379   2.762  13.062 -0.2676  0.0184 -0.0160
11406W        W29610  17.943  14.409  13.581 -0.0414  0.0697 -0.0625
11407W        W29611   6.340  11.685  13.168  0.0848  0.2688 -0.2205
11408W        W29612   7.865   6.029   2.941 -0.1116 -0.2896 -0.2445
11409W        W29613  14.549  12.218  12.908  0.2611 -0.1409 -0.1620
11410W        W29614   0.040   3.531  11.639 -0.0206  0.0911 -0.0002
11411W        W29615   8.552   0.820   3.270  0.0274  0.2452 -0.2159
11412W        W29616   0.618  11.743   6.182  0.0271  0.0532 -0.0360
11413W        W29617  17.416   9.995  12.343  0.1394 -0.0439  0.0026
11414W        W29618   5.222  16.737   3.442  0.0569  0.2646  0.0321
11415W        W29619  12.961  12.366   0.101 -0.0133 -0.0916 -0.1852
11416W        W29620  17.188   4.645  13.093  0.0512  0.2269  0.1290
11417W        W29621  10.964   0.951   1.480 -0.2516 -0.2905  0.2017
11418W        W29622   8.535  11.098   4.931  0.0642 -0.0782 -0.1022
11419W        W29623  15.847   6.823   0.017 -0.1222  0.1649  0.0698
11420W        W29624   8.474  17.752   2.764  0.0410  0.1650  0.0890
11421W        W29625  15.263   2.055   0.570  0.0915 -0.1874  0.0654
11422W        W29626   4.088   0.576   3.137  0.1559 -0.1120 -0.3745
11423W        W29627   6.514  17.487   3.917  0.1687 -0.2408 -0.0929
11424W        W29628  10.969  12.845  12.789  0.3408 -0.0790  0.0108
11425W        W29629   9.380   2.494   2.957  0.0322  0.2409 -0.0986
11426W        W29630   0.152  17.375   4.466  0.1394 -0.3198 -0.2776
11427W        W29631   5.174  16.616   1.946 -0.3696 -0.1761  0.0064
11428W        W29632  15.500   3.498   5.753 -0.2977 -0.0908 -0.0550
11429W        W29633   1.356   5.936  14.164  0.1166  0.0773 -0.0990
11430W        W29634  11.216   8.918   2.240  0.3012 -0.4650 -0.0144
11431W        W29635   1.299  17.951  12.338 -0.0868 -0.2386 -0.0484
11432W        W29636   6.585  12.784   2.733  0.0261 -0.2060  0.0022
11433W        W29637   8.808   4.952   5.561  0.0623  0.1239 -0.0147
11434W        W29638   5.561  10.079  14.383  0.2461 -0.2298 -0.1661
11435W        W29639  15.835   9.597   0.673 -0.0769 -0.2235 -0.1549
11436W        W29640   1.081   3.650   1.883 -0.0234 -0.2036  0.3475
11437W        W29641   6.347   8.035   4.340  0.0857 -0.0337 -0.0691
11438W        W29642  16.380  17.629   2.271 -0.1916  0.1372 -0.0833
11439W        W29643   2.999   6.907   4.094 -0.1572  0.3261 -0.0851
11440W        W29644   3.678   8.897   3.144  0.1597 -0.2665  0.0357
11441W        W29645  15.934  17.294   3.233 -0.2086 -0.0467  0.0088
11442W        W29646   5.130  10.961  15.238  0.1922  0.2521 -0.1871
11443W        W29647  11.218   2.746  13.935 -0.2650  0.0450 -0.1132
11444W        W29648  15.023   6.352  14.856  0.0424 -0.2103 -0.0266
11445W        W29649  12.336  17.891   2.090  0.0738 -0.0041  0.0471
11446W        W29650  11.911  13.957  11.453 -0.1976 -0.3248 -0.1543
11447W        W29651   1.000   8.796  13.926 -0.0201  0.1686  0.2629
11448W        W29652   0.306  12.510  12.370  0.2395 -0.0940 -0.0923
11449W        W29653  12.577   2.996  15.463  0.0000 -0.0371  0.0592
11450W        W29654  14.267   0.724  11.449 -0.2686 -0.0288  0.1268
11451W        W29655   9.998  15.673  11.567 -0.2094 -0.0094  0.3866
11452W        W29656   5.754  12.111   3.791  0.2417  0.1575 -0.1178
11453W        W29657   0.420  13.218  15.146 -0.1300  0.2459  0.1006
11454W        W29658  12.576  15.656  14.487  0.1011  0.1876 -0.1747
11455W        W29659  17.189   3.708  11.114  0.2104 -0.0505  0.1162
11456W        W29660   6.704   3.751   0.770  0.2179  0.2011 -0.0904
11457W        W29661   0.378  11.794   2.264 -0.4096  0.2417  0.0025
11458W        W29662   1.090  13.749   3.438 -0.2908  0.0604  0.0120
11459W        W29663   4.229   9.722  12.190  0.4316 -0.1566  0.1346
11460W        W29664   0.200  10.354   0.998 -0.0280 -0.0250 -0.0339
11461W        W29665  13.584   9.827   3.133 -0.0658  0.1107  0.1141
11462W        W29666   1.235   3.484  14.441  0.2038  0.1721  0.1688
11463W        W29667  15.189   1.572  15.324 -0.0705  0.0294  0.5459
11464W        W29668  12.449   5.923   4.588 -0.0784 -0.1990 -0.0323
11465W        W29669  13.567   7.758  11.723 -0.4105 -0.1675 -0.1672
11466W        W29670  15.256  11.939   3.413 -0.1849 -0.2632 -0.0185
11467W        W29671  11.668   1.111  12.199 -0.2052 -0.2996  0.0008
11468W        W29672  16.941  15.977   3.761  0.0341  0.1208  0.0485
11469W        W29673   5.756   0.913  12.896  0.1384 -0.1338 -0.1040
11470W        W29674   8.449   8.636   3.825 -0.0182  0.3789 -0.0583
11471W        W29675  13.611  10.966  14.764  0.1926 -0.1004  0.2209
11472W        W29676   1.191   0.054   0.939  0.0293  0.1159  0.0231
11473W        W29677   9.114   4.637  14.263  0.1335 -0.1158  0.4677
11474W        W29678  14.248  17.877  12.880 -0.2049  0.1095  0.1205
11475W        W29679   7.117   3.500  15.552  0.1359  0.1341  0.0866
11476W        W29680  13.857  12.862  14.923  0.2375 -0.0667  0.2514
11477W        W29681   3.444   5.180   0.866 -0.3168 -0.0167  0.0207
11478W        W29682   5.169   9.712  14.450  0.0585 -0.1780 -0.1209
11479W        W29683  11.642   7.045   4.794  0.1892  0.0297 -0.0319
11480W        W29684  16.981   5.178  14.943 -0.1364  0.1037  0.3459
11481W        W29685   6.375   5.795   2.515 -0.1786 -0.1175  0.1097
11482W        W29686   3.304   5.360  13.474  0.1457 -0.1494 -0.0318
11483W        W29687  14.651   5.068   4.641 -0.1004  0.1539 -0.0709
11484W        W29688  13.725   5.566  15.316 -0.2132  0.1913 -0.2830
11485W        W29689   2.942  13.298  10.620  0.0276 -0.4204 -0.1699
11486W        W29690   5.280   5.615   4.568 -0.1597 -0.1319  0.0096
11487W        W29691  16.038  15.605  15.784 -0.1216 -0.0082 -0.0762
11488W        W29692   9.953   8.780  16.137 -0.0267  0.0253 -0.2147
11489W        W29693   9.068  10.474   4.820  0.0767 -0.0360 -0.0320
11490W        W29694   1.131   4.113  11.468 -0.0077  0.0530  0.1806
11491W        W29695  14.256  16.860   1.924  0.1462 -0.0202  0.1606
11492W        W29696   5.729  14.138  16.175 -0.0525  0.0029 -0.2607
11493W        W29697   8.876   6.058  12.200  0.0538  0.0507  0.0456
11494W        W29698   8.720   5.346  15.566  0.0704  0.4744 -0.2357
11495W        W29699  16.913   3.317   4.647 -0.0931  0.2340 -0.0805
11496W        W29700   6.528   2.092  12.809  0.1996 -0.0775 -0.0406
11497W        W29701   2.840   2.532   1.277 -0.1746  0.1999  0.0228
11498W        W29702   2.177   8.348   4.222  0.0785 -0.1951 -0.0571
11499W        W29703   2.463  10.039   4.319  0.1783  0.0145 -0.2527
11500W        W29704   7.620   0.881  10.177 -0.1868  0.0708 -0.2068
11501W        W29705  10.373   1.177  13.877 -0.2336  0.1050 -0.0741
11502W        W29706   1.419   0.440   2.561  0.1077 -0.3013 -0.0064
11503W        W29707  14.487   7.724   5.609 -0.1570 -0.1601  0.0010
11504W        W29708   1.063  11.126   2.420 -0.3471 -0.0622 -0.1548
11505W        W29709   8.182   0.462   3.190  0.2035 -0.1109 -0.0483
11506W        W29710   0.631  17.441  15.872 -0.0880  0.1097  0.1184
11507W        W29711   1.092   8.618  13.454 -0.1967  0.1957  0.0557
11508W        W29712  13.909   1.378   1.995  0.0717 -0.1405 -0.0984
11509W        W29713   8.013  15.959  13.229  0.1456  0.1207  0.2458
11510W        W29714  13.398  12.267   4.141 -0.2113 -0.2183  0.3368
11511W        W29715   3.039  14.158   2.359  0.5195  0.3000  0.0104
11512W        W29716   9.717  12.614   3.355  0.3974  0.1128  0.0378
11513W        W29717   2.661   0.686   2.563 -0.2419 -0.0939 -0.0390
11514W        W29718  13.243  17.226  13.612 -0.0167  0.2812 -0.2826
11515W        W29719   7.376  13.276  14.854  0.0355  0.2502  0.0286
11516W        W29720   5.705  11.299   2.473 -0.1392  0.1725  0.1557
11517W        W29721  15.874   4.840  12.051 -0.0980 -0.3402  0.0273
11518W        W29722   4.443   6.187   4.317  0.2775 -0.1170  0.0281
11519W        W29723  17.570  15.261   3.798 -0.2604 -0.0610  0.1621
11520W        W29724  12.309  13.392  13.504  0.0895 -0.1082  0.0862
11521W        W29725  15.220   4.602  11.935  0.3279 -0.1888 -0.1666
11522W        W29726   6.198  10.970   4.952  0.3629  0.0263 -0.2990
11523W        W29727  10.989  13.003   4.488 -0.1226  0.1618 -0.3335
11524W        W29728   7.322   5.107   4.307 -0.1469  0.1035  0.0571
11525W        W29729   1.051   1.505   4.459 -0.1829 -0.1639 -0.1599
11526W        W29730   5.089  12.519  14.201 -0.0699  0.1465 -0.1341
11527W        W29731   3.423  16.831  11.980  0.1227  0.0391 -0.1853
11528W        W29732  10.429  10.376  11.142  0.5116  0.1967 -0.0658
11529W        W29733   0.382  13.020  15.634 -0.0547 -0.2336  0.2015
11530W        W29734  17.818   3.493   0.124 -0.0793 -0.0342  0.1429
11531W        W29735   6.485   8.998   4.567  0.1806  0.1495 -0.0130
11532W        W29736   3.175   6.735   3.126  0.1306 -0.3097  0.1012
11533W        W29737   1.776   8.819  12.419 -0.2140  0.0219  0.1550
11534W        W29738   5.984   5.536   4.111 -0.0713 -0.0807 -0.1764
11535W        W29739  17.839  16.596   0.293 -0.2759  0.2946 -0.0165
11536W        W29740   0.295   0.668  11.901  0.1094  0.0659  0.1405
11537W        W29741   0.712  15.045   2.755 -0.5597 -0.0323  0.0280
11538W        W29742  17.186  11.511   4.701 -0.0905  0.1052 -0.2978
11539W        W29743  17.505   9.801  11.822  0.1311  0.2176  0.0671
11540W        W29744  12.456  10.069  12.350  0.0033  0.1146 -0.0643
11541W        W29745   5.145  16.216   3.306 -0.2360 -0.1272  0.0960
11542W        W29746   7.521   1.380   1.318 -0.0660  0.2142 -0.1611
11543W        W29747  14.719   9.507  12.254 -0.0058  0.1006  0.1505
11544W        W29748   6.387  15.363   4.201 -0.5625 -0.1799 -0.1292
11545W        W29749  17.969   9.678  11.566  0.0503  0.1337 -0.0255
11546W        W29750  15.366   2.207  15.893  0.1770 -0.1567 -0.1509
11547W        W29751  13.687  13.094  12.222  0.2285  0.2474 -0.1530
11548W        W29752  17.252   3.946   4.272 -0.1698 -0.2710 -0.2364
11549W        W29753   0.387  16.156  11.710  0.0981  0.2751  0.1292
11550W        W29754  13.452  15.844   3.961  0.1066  0.0534 -0.3213
11551W        W29755  11.589  16.478  12.416  0.0817  0.1795 -0.0784
11552W        W29756   4.389  16.505   0.750  0.0579 -0.0371 -0.1994
11553W        W29757   2.820  11.291   3.182 -0.0166  0.2474 -0.0401
11554W        W29758  17.017  15.552  12.219 -0.0236  0.0247 -0.1029
11555W        W29759   0.881  11.670   2.308  0.0254 -0.1639 -0.0422
11556W        W29760  11.639   3.116   4.297 -0.1161 -0.0763  0.1353
11557W        W29761   8.063   7.242  12.659  0.0528  0.1890 -0.1073
11558W        W29762  14.055  17.052  14.918 -0.5149  0.2954  0.2797
11559W        W29763  12.563   2.424  13.554 -0.0968  0.1178 -0.2791
11560W        W29764   0.579  12.405   3.113 -0.0951  0.0265 -0.0558
11561W        W29765  10.537   8.378   1.956  0.0191  0.1113  0.1205
11562W        W29766   4.428   5.606  14.309  0.0405  0.1210 -0.1406
11563W        W29767  15.285   4.373   0.786 -0.1376  0.1968  0.0901
11564W        W29768   0.646  11.799  15.815  0.1627 -0.2217 -0.0037
11565W        W29769   8.934   4.923   0.771  0.2342  0.0996 -0.1621
11566W        W29770   1.847  11.058  12.229 -0.0937  0.0872  0.3053
11567W        W29771   2.451   0.221  15.464 -0.1232 -0.0670  0.0296
11568W        W29772   9.380  13.070   3.888 -0.2058  0.1099 -0.2286
11569W        W29773   8.651   5.289   4.166 -0.0251  0.0602  0.1352
11570W        W29774  11.621  10.710  10.718 -0.0244 -0.0004 -0.0856
11571W        W29775   7.146  17.013  16.121  0.0095 -0.0288  0.0089
11572W        W29776   2.759  14.045  12.695 -0.0665  0.3157 -0.0344
11573W        W29777  17.642  14.176  13.179  0.1850 -0.0071  0.0296
11574W        W29778   7.241  15.404  14.388  0.0541 -0.0581  0.1277
11575W        W29779   5.771   9.207  14.263  0.4116  0.0156  0.0064
11576W        W29780   0.410  16.112   0.888 -0.0057  0.1071 -0.3537
11577W        W29781   7.965  16.616  14.831  0.0844 -0.1224  0.3580
11578W        W29782   3.830   8.012   5.851  0.0906 -0.1950  0.0248
11579W        W29783   1.729   7.051   3.426 -0.1572  0.2745  0.2083
11580W        W29784  16.155  15.067  14.414  0.0756 -0.2076  0.1957
11581W        W29785   7.271   5.142   3.792 -0.2081 -0.0420  0.3592
11582W        W29786   4.872   3.957   4.371 -0.1742 -0.0791  0.0236
11583W        W29787  16.936   4.896  10.752 -0.0625 -0.2472 -0.0247
11584W        W29788   8.728   4.351  14.026 -0.0417  0.2150 -0.2703
11585W        W29789  14.841  13.028   0.719  0.2280  0.1310 -0.0215
11586W        W29790   5.848   6.778  12.287 -0.1352  0.1683  0.0651
11587W        W29791   4.852   9.547  12.622  0.0058 -0.1089  0.2766
11588W        W29792  11.305   1.022  11.872  0.0423  0.0382 -0.1007
11589W        W29793   9.565   7.264   2.889  0.1834  0.1190  0.2023
11590W        W29794   5.059   9.964  12.464  0.0543  0.0141 -0.0614
11591W        W29795  11.826  12.524   3.877  0.1125  0.2017 -0.0538
11592W        W29796   8.632   8.153   2.706 -0.2926  0.0108  0.0077
11593W        W29797   4.080  10.200   1.577 -0.4307 -0.0237 -0.1437
11594W        W29798   6.263  17.124   1.671 -0.0163  0.0026 -0.0217
11595W        W29799   1.154   7.276   1.577 -0.0097  0.0007 -0.0321
11596W        W29800   2.344  13.480   1.620  0.0864 -0.1595 -0.0327
11597W        W29801   3.584   3.067   3.764  0.0204 -0.1397  0.1599
11598W        W29802   6.073  11.152   3.687  0.0465  0.3048 -0.1888
11599W        W29803   6.472   7.986   1.961 -0.3693 -0.1916 -0.0873
11600W        W29804  10.244  16.772   4.795 -0.0605 -0.4332 -0.0697
11601W        W29805  10.529  12.308   5.047 -0.4225 -0.0510 -0.0050
11602W        W29806  14.165   8.905  11.722 -0.1622 -0.1674  0.1980
11603W        W29807   7.750   5.350  14.050 -0.4572 -0.0504 -0.1866
11604W        W29808   8.716   5.038  11.931 -0.1720  0.1468 -0.0830
11605W        W29809   0.668  11.661   4.371 -0.1950  0.1563  0.0282
11606W        W29810  15.759   6.183  14.156  0.0902 -0.2708 -0.1045
11607W        W29811   5.451   1.214  12.641 -0.1164 -0.2452  0.0123
11608W        W29812  12.765   0.305   4.008 -0.1526  0.0756  0.0895
11609W        W29813   1.980  18.040   1.730 -0.2043  0.1292 -0.1059
11610W        W29814   7.125  14.263  14.935 -0.0268 -0.1012  0.0030
11611W        W29815   5.131   9.029   0.723 -0.0116  0.0148 -0.2481
11612W        W29816   8.601  10.429   1.595  0.0202  0.1397 -0.0032
11613W        W29817  13.083   7.484   4.030  0.1659  0.0395  0.2518
11614W        W29818   3.336   1.555   0.888  0.0585  0.0507  0.1988
11615W        W29819   6.082   0.130  14.296  0.0801 -0.1475 -0.2567
11616W        W29820  14.396   4.932   3.903  0.3057  0.1433 -0.1410
11617W        W29821  14.876   4.121   0.655 -0.0180 -0.2521  0.2066
11618W        W29822   8.788   0.861  14.699 -0.1173  0.1743 -0.0795
11619W        W29823   5.423   1.828   3.538 -0.3151  0.1029  0.0366
11620W        W29824   3.291   0.511   0.745 -0.1754 -0.0560 -0.1477
11621W        W29825   3.126  17.958  11.233 -0.0748 -0.1495  0.1950
11622W        W29826  12.806   1.518   1.088 -0.1345  0.0777  0.0944
11623W        W29827   7.164   3.161  12.968 -0.0213  0.3688  0.0687
11624W        W29828  10.590   7.079   2.945  0.0632  0.4610  0.2321
11625W        W29829   6.339  12.374   4.346  0.0655 -0.0692 -0.0773
11626W        W29830   8.140   1.181  14.259 -0.0395  0.3105  0.1092
11627W        W29831   7.536   4.682  11.942 -0.0329  0.2493  0.2159
11628W        W29832  16.791   8.323  12.643 -0.2704 -0.2970 -0.0908
11629W        W29833  14.671   6.943   0.780  0.1711  0.1146  0.3249
11630W        W29834   2.078   9.911   3.475 -0.2463  0.2532  0.0488
11631W        W29835  16.552   4.994   3.772 -0.1394 -0.1961  0.1508
11632W        W29836   6.316  17.273   3.051  0.0604 -0.0992  0.0526
11633W        W29837   5.644   2.192   2.200  0.0409  0.1148  0.1537
11634W        W29838   7.215   0.695   5.153  0.1929  0.2869 -0.0318
11635W        W29839   8.393  14.098  15.136 -0.0198 -0.0915  0.1072
11636W        W29840  10.465   0.972  12.425 -0.2160 -0.1050 -0.0495
11637W        W29841   3.804  10.896  14.054  0.0758 -0.0185 -0.0313
11638W        W29842  12.757   7.550   3.322  0.0260 -0.0327  0.0982
11639W        W29843   4.496   0.318  14.632  0.0618 -0.1342  0.2435
11640W        W29844  14.982   0.661  11.958 -0.1164 -0.0307  0.1340
11641W        W29845   4.030  15.883   4.229 -0.1440  0.2387  0.1794
11642W        W29846   5.964   2.350   1.248  0.1411 -0.0623 -0.1450
11643W        W29847   2.528   4.850  14.484 -0.2217  0.2587  0.2257
11644W        W29848   5.431   6.976   4.725  0.0621  0.0280  0.1963
11645W        W29849  10.205   5.487   3.948 -0.0122 -0.4137 -0.2633
11646W        W29850   6.222  10.791  11.683 -0.0117 -0.1045 -0.0387
11647W        W29851   2.590   0.622  11.465 -0.0474 -0.0455  0.2126
11648W        W29852  15.783  16.162   3.957 -0.4367  0.2930 -0.0696
11649W        W29853   5.767   1.479  11.163 -0.3564 -0.0589 -0.1688
11650W        W29854   6.233   9.386   1.083  0.1517  0.3147  0.1023
11651W        W29855  14.959   5.163   3.224  0.0679 -0.1260 -0.0193
11652W        W29856   1.973   9.857   4.003  0.0904 -0.1427 -0.0957
11653W        W29857   7.395  10.593   3.451  0.0120 -0.2297 -0.1770
11654W        W29858   2.844  12.633  15.477  0.0138  0.0401  0.0058
11655W        W29859   5.755   1.536  14.254  0.1253  0.0962  0.0655
11656W        W29860  14.941  10.941  12.910  0.0319 -0.0665  0.0837
11657W        W29861   8.733   6.538   0.073 -0.0205 -0.0717 -0.2795
11658W        W29862   1.889   5.451  12.616 -0.0389 -0.0073  0.0422
11659W        W29863  17.457  14.835  14.787  0.1805 -0.0149 -0.0770
11660W        W29864   8.686   2.730   0.834  0.0188  0.0520 -0.0068
11661W        W29865   6.200   1.854   1.291 -0.1027 -0.0849  0.0422
11662W        W29866   8.858  14.225   3.718 -0.0080  0.0487 -0.1220
11663W        W29867  10.524   4.829  14.377  0.0137  0.1190  0.1458
11664W        W29868   9.057   9.464   4.199 -0.1750  0.0470 -0.0770
11665W        W29869   0.994   6.279   1.194 -0.1389  0.0480 -0.0899
11666W        W29870   9.131  15.702  12.783  0.0552  0.0124  0.0475
11667W        W29871  11.672  16.064  13.750 -0.1575  0.3301  0.1164
11668W        W29872  11.002   1.428   2.835  0.1404 -0.1396  0.0544
11669W        W29873   7.198   9.497   1.597  0.0290  0.0451  0.3929
11670W        W29874  16.243   1.526  13.404 -0.2317 -0.0266  0.2020
11671W        W29875  12.802   6.198  11.912 -0.1741  0.1419 -0.2548
11672W        W29876   8.851  16.057   4.538  0.1190  0.0288 -0.0307
11673W        W29877   7.460   6.427   0.768 -0.5540 -0.1076  0.1536
11674W        W29878   7.489  10.396   4.053  0.2074  0.3973 -0.1754
11675W        W29879   0.890  12.029  12.802 -0.0330  0.0517  0.0401
11676W        W29880  17.344  17.733   1.988  0.0300 -0.1989 -0.1829
11677W        W29881  12.146   3.934  12.384  0.0695 -0.0088  0.2489
11678W        W29882   8.479  14.283   2.317 -0.1886 -0.0193 -0.2882
11679W        W29883  10.005  12.299   0.966  0.1778  0.0858  0.0363
11680W        W29884  17.990  15.237  15.717  0.2470  0.1671 -0.0802
11681W        W29885  16.518   0.128   2.394 -0.2004 -0.2654  0.3349
11682W        W29886   7.697   0.911  14.848 -0.1855 -0.2710 -0.1668
11683W        W29887   7.130  16.417   0.320  0.0964  0.1808 -0.0031
11684W        W29888   0.514  12.579  14.792  0.0757  0.0491 -0.1574
11685W        W29889   6.431  15.442   0.359  0.0767  0.0105 -0.1852
11686W        W29890  16.831  12.873   4.067  0.0663 -0.0202 -0.1216
11687W        W29891  16.460   4.471  14.356  0.0913  0.0986  0.0306
11688W        W29892   8.211  13.550  12.215  0.0036  0.2293  0.0858
11689W        W29893  15.981   7.274   4.754  0.2002 -0.2154  0.0530
11690W        W29894  14.141  14.866   4.483  0.1945 -0.1589 -0.0041
11691W        W29895   5.194   7.886  13.257  0.1689 -0.2639 -0.0724
11692W        W29896  10.304   0.523   1.191 -0.0325  0.1937  0.1336
11693W        W29897  17.920   8.602  16.166  0.0415  0.0376 -0.2283
11694W        W29898   2.023   4.309   3.531  0.0391 -0.1964 -0.3278
11695W        W29899  13.164  13.488   3.808 -0.0638 -0.1661 -0.4692
11696W        W29900   0.835   1.047  13.283 -0.2950 -0.0600  0.0286
11697W        W29901   5.690   3.588   1.761 -0.0313  0.0038 -0.0163
11698W        W29902   5.075   4.337  15.993 -0.1077  0.0033 -0.1728
11699W        W29903  14.262  12.559   0.398  0.1814  0.0278  0.1339
11700W        W29904   5.594   6.550   2.750  0.3465  0.1191  0.2296
11701W        W29905  10.997  12.490  13.820  0.0309 -0.1877  0.1840
11702W        W29906  12.827  17.342  12.265  0.2562 -0.0259  0.2368
11703W        W29907   9.119   7.728   4.759  0.4040  0.0035 -0.0750
11704W        W29908  10.721   4.594   1.599  0.0441 -0.1638 -0.0604
11705W        W29909   6.757   2.225   3.769  0.1322 -0.0533  0.0025
11706W        W29910   5.522  16.416  10.768 -0.0947 -0.0809  0.1658
11707W        W29911   5.589  11.056  11.599  0.2193 -0.1106 -0.0154
11708W        W29912  10.307  16.917   0.188 -0.0514 -0.0440 -0.0083
11709W        W29913  10.223   8.433   0.254 -0.1207  0.1122  0.0689
11710W        W29914   0.355  14.254  15.050 -0.1752 -0.1164  0.1840
11711W        W29915   4.204   8.743  14.097  0.1573 -0.3028  0.1293
11712W        W29916  15.283   9.451   3.004 -0.0406  0.1202 -0.0991
11713W        W29917   2.309  15.343  11.187 -0.1852 -0.2429  0.0844
11714W        W29918  17.835  10.471  13.600 -0.2271 -0.1882  0.3156
11715W        W29919  13.663   3.844  12.018  0.3033  0.0135  0.2509
11716W        W29920  17.208   0.976   3.023  0.0900  0.2875 -0.0330
11717W        W29921   0.956   4.332   0.931 -0.2262  0.1511 -0.2952
11718W        W29922   1.646   5.219   1.352 -0.0182 -0.1418 -0.0012
11719W        W29923   2.364   1.762  11.414 -0.2575  0.1435 -0.1900
11720W        W29924   8.050  13.444   1.232 -0.1167  0.2500  0.0383
11721W        W29925   4.181   6.609   5.165 -0.0393  0.1855  0.2419
11722W        W29926  11.002   1.819  11.546 -0.0702 -0.0858 -0.1740
11723W        W29927   1.849  17.070   0.868 -0.0520 -0.0790 -0.1829
11724W        W29928  11.229  14.100   0.811  0.0643 -0.1663 -0.1702
11725W        W29929  11.426   0.736   3.256  0.1549 -0.0380  0.1630
11726W        W29930   7.952  17.201   3.468  0.0630 -0.0649  0.0637
11727W        W29931  12.071  11.995  12.487  0.1267  0.0002  0.1023
11728W        W29932   1.407   1.702   0.849  0.1134 -0.4896 -0.0651
11729W        W29933   7.114   8.673  11.773 -0.0724 -0.1318 -0.0246
11730W        W29934   7.768   4.741  12.833  0.2960 -0.0311 -0.1333
11731W        W29935   8.174   4.489  13.872  0.1257 -0.0294 -0.1071
11732W        W29936   9.783   7.960   3.969 -0.1134  0.0035 -0.1675
11733W        W29937   6.135   3.575   3.127 -0.1779  0.0114  0.2595
11734W        W29938   2.127  17.489   1.977  0.2185 -0.0590 -0.1185
11735W        W29939  11.761   5.251  12.640 -0.1350  0.0459  0.0365
11736W        W29940   8.040  15.544  12.456 -0.2360  0.1015 -0.1930
11737W        W29941  16.986  14.635   1.390 -0.0762  0.0034  0.0841
11738W        W29942  17.566  10.568  14.977  0.1311  0.0360 -0.1136
11739W        W29943  12.631  11.440  13.752 -0.1578 -0.1008 -0.1081
11740W        W29944   9.289  15.360  10.287 -0.1249  0.1613  0.1454
11741W        W29945  11.009  16.183   4.119  0.4285 -0.0237  0.0584
11742W        W29946  11.472   9.880  12.620 -0.0170  0.0080  0.1912
11743W        W29947  10.244   4.902   1.884  0.1090  0.1364  0.1725
11744W        W29948   9.255   0.111  12.708 -0.0396 -0.0455  0.0864
11745W        W29949   5.242   3.160   1.433 -0.0511 -0.1183 -0.0440
11746W        W29950  11.965   5.718   1.452  0.0880  0.3352  0.1782
11747W        W29951  15.636   2.826   0.130 -0.0830 -0.1483 -0.1908
11748W        W29952  12.677   6.407   0.012  0.1947 -0.2364 -0.1247
11749W        W29953  12.848  11.859   1.433 -0.2184 -0.1597 -0.0494
11750W        W29954  15.779   2.153   1.224 -0.1873 -0.4443  0.1893
11751W        W29955   2.300  16.356  13.858  0.2468  0.0140 -0.4489
11752W        W29956   0.204   4.615   0.521  0.0262 -0.0269  0.2458
11753W        W29957   5.337   4.003   0.117  0.1793  0.0466 -0.2159
11754W        W29958   4.986  15.995  13.147  0.3098 -0.1964 -0.0623
11755W        W29959  11.533   6.145   2.110 -0.0048  0.0044  0.1940
11756W        W29960  13.481   3.868   2.196 -0.0852 -0.0411  0.3173
11757W        W29961  17.946  16.047  14.447 -0.0495 -0.2644 -0.1130
11758W        W29962   7.338  13.367  13.991  0.0401  0.2097 -0.1089
11759W        W29963   0.844  13.759   3.037  0.0309  0.0758  0.0455
11760W        W29964   3.865  10.417   0.089  0.0150 -0.1522  0.2010
11761W        W29965   3.001  10.561  12.981  0.5062 -0.3467 -0.2398
11762W        W29966  11.321   4.449   4.754  0.0321  0.0315  0.1578
11763W        W29967   1.691  12.377   5.057 -0.2193 -0.1085 -0.1583
11764W        W29968   4.963  13.679  15.577 -0.0743  0.1450 -0.0230
11765W        W29969   6.981   9.926  15.408  0.1668 -0.1394  0.2187
11766W        W29970  14.890   7.370   4.935 -0.3266  0.2709  0.1735
11767W        W29971   3.763  17.381   2.559 -0.0784 -0.1931 -0.1562
11768W        W29972   6.840   7.598   2.110  0.2186  0.1155  0.3190
11769W        W29973  12.455  13.261  11.682 -0.0835  0.2125 -0.0453
11770W        W29974   0.674  11.209  12.590 -0.3703 -0.4345 -0.1661
11771W        W29975  15.219   3.083   3.204 -0.1734 -0.1926 -0.0714
11772W        W29976  17.762   0.796  15.989  0.2390  0.1529  0.0467
11773W        W29977   2.311  13.212   2.566  0.4553 -0.1771 -0.2978
11774W        W29978  10.700   9.992   1.004 -0.2834  0.0121 -0.0020
11775W        W29979   1.000   9.102   0.820 -0.3123 -0.1227  0.1562
11776W        W29980  10.917  12.057  13.536  0.0602  0.0350  0.0853
11777W        W29981  14.870  16.594   1.795 -0.0014 -0.1105  0.0081
11778W        W29982  13.058  13.601   4.316  0.2110 -0.5049 -0.0110
11779W        W29983   9.912  11.752  12.435 -0.2162 -0.0990 -0.0487
11780W        W29984  10.030  10.241  14.376 -0.0577  0.0899  0.2058
11781W        W29985  14.880   0.985  12.714 -0.0143  0.0671 -0.0782
11782W        W29986  10.348  16.385  15.443  0.0225  0.3042  0.1788
11783W        W29987   5.861  14.755  14.369  0.3019  0.0882 -0.0654
11784W        W29988  14.765   7.777  14.539  0.2580 -0.0104  0.4885
11785W        W29989  16.909   1.443   9.946  0.0119 -0.1264 -0.0736
11786W        W29990   3.939  16.527   1.380  0.0822  0.0294  0.2499
11787W        W29991   5.038  13.211   2.210  0.2165  0.1306 -0.1844
11788W        W29992   5.943  16.601  10.839 -0.3081  0.2822  0.1416
11789W        W29993   0.367   8.324   0.549 -0.1647 -0.1831 -0.0035
11790W        W29994  12.422   5.863   1.555  0.2172  0.0519 -0.1441
11791W        W29995  10.418  12.799  11.878 -0.2424 -0.0102  0.2654
11792W        W29996   4.702   7.677   1.925  0.2004  0.0663  0.0695
11793W        W29997   7.757  10.631   2.591  0.1284  0.3845 -0.0389
11794W        W29998  12.392   2.856  13.405  0.0917 -0.1751  0.0741
11795W        W29999  10.207   6.489  15.381  0.0441  0.4189 -0.1183
11796W        W30000  15.718  17.259   3.713 -0.2412  0.0000  0.2673
11797W        W30001  17.609   4.553  14.115  0.1781 -0.1389 -0.0434
11798W        W30002   0.578  11.313  15.528  0.1619 -0.2125  0.0144
11799W        W30003   3.956   4.360  13.211 -0.3335 -0.1284 -0.0978
11800W        W30004   2.979   3.260  12.535  0.3101 -0.2639  0.1026
11801W        W30005  10.365  11.553   3.174  0.3251 -0.0715 -0.2164
11802W        W30006  16.173  15.430   1.176  0.0867 -0.1925 -0.2737
11803W        W30007   1.757  17.589   2.370 -0.0612  0.2509  0.0482
11804W        W30008  13.384  17.412  11.362  0.0750 -0.0006  0.1060
11805W        W30009  17.264  11.772   4.265  0.1791  0.1836  0.1257
11806W        W30010   3.397   8.066   6.124  0.5432  0.2216  0.0642
11807W        W30011   7.562  15.784   2.266  0.0433  0.1783 -0.0569
11808W        W30012  10.733  12.126  13.085 -0.0972  0.0945  0.2972
11809W        W30013   4.644   1.334   3.635  0.3635  0.0571 -0.1529
11810W        W30014  12.446   5.888   0.126 -0.1992  0.1271 -0.0042
11811W        W30015   7.888   3.910   4.393  0.0315  0.2904 -0.1398
11812W        W30016   1.970  15.966  14.688  0.0110 -0.1284  0.2050
11813W        W30017  11.362   4.833  14.246  0.1410  0.1782  0.0602
11814W        W30018   5.526  16.944  13.814  0.0852  0.0625  0.0395
11815W        W30019  16.215   4.008  14.165 -0.2174 -0.1189 -0.0390
11816W        W30020   0.175   1.425  13.744  0.1312  0.0070 -0.0132
11817W        W30021  16.001  15.659   0.153 -0.0997 -0.2285 -0.1127
11818W        W30022  15.589  12.114   5.714  0.1623 -0.1638  0.2350
11819W        W30023  10.881   3.568  13.587 -0.1057 -0.2861  0.0419
11820W        W30024   4.973  10.156   2.219 -0.1109 -0.1656  0.3370
11821W        W30025  15.842  11.714  15.838  0.0174 -0.0371  0.0311
11822W        W30026   5.551  13.388   1.788  0.0102  0.0073  0.1810
11823W        W30027   6.823  11.345  13.173  0.1719 -0.0493  0.1386
11824W        W30028   5.547  13.658   3.022  0.3804 -0.1528  0.1434
11825W        W30029   2.680   6.290   4.708  0.0958 -0.1992 -0.0375
11826W        W30030   8.369   6.771  14.175 -0.0341  0.1390 -0.2376
11827W        W30031  10.625   1.872  15.305 -0.1944  0.3530 -0.4200
11828W        W30032  10.967   4.305   1.230 -0.0362 -0.1202  0.2537
11829W        W30033  15.951  15.743   2.329  0.1508  0.1467 -0.0552
11830W        W30034   3.653   2.133   2.032  0.1692 -0.2669 -0.1158
11831W        W30035  17.093  15.561   0.851 -0.1012  0.3332  0.0530
11832W        W30036  15.622   1.355  11.619 -0.0241 -0.1949  0.1074
11833W        W30037   5.522  17.395   1.217  0.0338  0.0126  0.2059
11834W        W30038   7.520  16.028   0.988  0.0012 -0.0006 -0.1741
11835W        W30039  17.446   0.054  10.241 -0.1010  0.0233  0.0049
11836W        W30040   2.750   3.454  12.066 -0.2572  0.1716 -0.1148
11837W        W30041  14.226   6.749   0.896 -0.1043 -0.1532  0.0090
11838W        W30042  10.398  16.293   0.528  0.0606  0.0772  0.0404
11839W        W30043  16.459  10.955  12.812 -0.1261 -0.0631  0.0792
11840W        W30044  10.639  13.180   2.716  0.2434 -0.0308  0.1947
11841W        W30045  14.501   1.492  13.391  0.1756 -0.1573  0.5424
11842W        W30046  17.519   6.686  14.267  0.1975  0.1178 -0.1879
11843W        W30047   5.936   5.175   1.444  0.1798  0.1400  0.0516
11844W        W30048   6.506   6.131   1.741  0.0683  0.0236  0.2032
11845W        W30049   2.741  15.994  14.021  0.0972 -0.4234 -0.0002
11846W        W30050   4.438  11.505  10.682  0.0577 -0.2944  0.1052
11847W        W30051   3.044  17.277   1.794  0.2363  0.0359 -0.1893
11848W        W30052   5.539   4.611  14.645 -0.3917  0.0489  0.3600
11849W        W30053  10.949  16.087   2.465  0.1398 -0.3020  0.0207
11850W        W30054  13.689   7.226   6.451  0.1318 -0.3449  0.0127
11851W        W30055   1.049   9.640   4.921  0.0978  0.0728 -0.0613
11852W        W30056  10.716  15.548   2.981  0.1659  0.0981  0.0404
11853W        W30057  16.776  16.972   4.014 -0.1646 -0.1308 -0.0434
11854W        W30058   3.342  14.508  11.725  0.0342  0.0720  0.1198
11855W        W30059  13.010   5.279   4.509 -0.0535 -0.2268  0.1094
11856W        W30060   8.636   7.283   3.644  0.1284  0.1423 -0.0521
11857W        W30061  10.943  13.656  13.183 -0.0905  0.0694  0.3306
11858W        W30062  17.680   8.912   1.565 -0.0374 -0.1250 -0.2479
11859W        W30063   6.000  15.238   4.553  0.1722  0.0495  0.1176
11860W        W30064  16.825   0.649   2.542  0.0316 -0.0805 -0.3066
11861W        W30065  11.133  13.821   2.880 -0.0178  0.2201 -0.0902
11862W        W30066   3.488   4.354  12.386  0.0267  0.1236 -0.0171
11863W        W30067  10.285  14.845  12.718  0.1062 -0.0048 -0.0327
11864W        W30068  14.400   3.173   2.127 -0.1241 -0.0711 -0.0616
11865W        W30069   3.086   1.074  14.391  0.0867  0.0361  0.0652
11866W        W30070   9.730   1.196   3.674 -0.1171  0.0318  0.1648
11867W        W30071  15.230  15.844   3.203 -0.1820 -0.1933  0.3048
11868W        W30072   2.134   1.211   2.579  0.2278  0.0589 -0.1696
11869W        W30073   3.610  10.446  13.834  0.0677  0.2138 -0.0571
11870W        W30074   7.538   6.940   0.529 -0.0734  0.0987  0.1715
11871W        W30075   8.130   1.577   4.450  0.2860  0.0773 -0.4178
11872W        W30076   8.069  13.238   2.134 -0.0732  0.0910  0.3378
11873W        W30077   6.955   0.428  13.961  0.1383  0.0378  0.0351
11874W        W30078  10.355   1.697   4.166 -0.0970 -0.1409  0.1188
11875W        W30079   9.672   7.052  14.692 -0.0734 -0.1905  0.0735
11876W        W30080   1.665  15.876  11.627  0.0424  0.0095  0.1218
11877W        W30081   3.852  15.627   2.646  0.0443 -0.0977 -0.0832
11878W        W30082  15.995   4.843  11.287  0.0396  0.0458  0.0816
11879W        W30083   7.588   5.077   1.556 -0.3040  0.2427 -0.2015
11880W        W30084  16.328  12.202  13.396 -0.2090 -0.0144  0.2275
11881W        W30085  11.043   3.072  12.649  0.1060  0.0219 -0.1606
11882W        W30086   2.587   8.939   0.629 -0.0196  0.0772 -0.1423
11883W        W30087   4.062   4.632   3.452 -0.1614  0.0989  0.1052
11884W        W30088   5.825  17.096   2.572 -0.2310 -0.0073 -0.0070
11885W        W30089  10.051  13.728   2.461 -0.2574  0.0107 -0.0722
11886W        W30090   4.811   0.775  15.277 -0.0072 -0.1624 -0.2612
11887W        W30091  15.313  10.813   3.152  0.0706 -0.3053 -0.1044
11888W        W30092   2.145   2.706   2.687  0.1588  0.5498  0.2043
11889W        W30093  12.674  12.802  14.744  0.0973 -0.1511 -0.0134
11890W        W30094   6.174  13.533  13.636  0.0058 -0.0665  0.1847
11891W        W30095   8.294   1.058   0.812 -0.1649 -0.2074 -0.0245
11892W        W30096  14.761  17.294   4.404 -0.0298 -0.1764 -0.1797
11893W        W30097  16.889   9.678   1.300 -0.2407 -0.1389 -0.0355
11894W        W30098   7.869   2.762  13.499 -0.1353  0.1360 -0.0765
11895W        W30099  13.317  14.108  11.299  0.0513 -0.0699 -0.0201
11896W        W30100   7.389  13.015  13.010 -0.1886  0.2777 -0.2309
11897W        W30101  11.204  16.261   3.318 -0.0351  0.2194  0.0530
11898W        W30102   8.079  14.627   3.740  0.0903 -0.1033  0.0081
11899W        W30103   8.088  16.853  12.139  0.1151  0.1186  0.1097
11900W        W30104   2.686  12.315  14.419 -0.0509 -0.2455  0.3035
11901W        W30105  17.851   6.610   2.712  0.1003  0.0796 -0.1113
11902W        W30106  14.813  17.755   4.575  0.1110  0.0265 -0.0989
11903W        W30107   5.946   5.445  12.875  0.0463  0.4169 -0.2086
11904W        W30108   6.412   0.151  15.014 -0.0517  0.2215 -0.1992
11905W        W30109   5.529   8.176  13.023  0.1515  0.1892 -0.1878
11906W        W30110   5.083   5.474   3.125  0.2180  0.0745  0.0149
11907W        W30111   7.995   1.336  12.018 -0.2345  0.0082 -0.2786
11908W        W30112  17.454  10.286  14.550 -0.0491  0.0331  0.0727
11909W        W30113  10.723  17.062  14.439 -0.0157 -0.0715  0.1392
11910W        W30114   3.363  10.567  13.363  0.0057  0.3673  0.0609
11911W        W30115   8.691  13.007  11.688 -0.1456  0.0708  0.4146
11912W        W30116   0.289   2.613   2.566  0.0597 -0.0894  0.0749
11913W        W30117  14.235   5.400   0.458  0.2217 -0.3490  0.0087
11914W        W30118  11.390   9.808  13.764 -0.1447  0.0392 -0.0646
11915W        W30119   9.933  12.550   1.382  0.0153  0.3172  0.2176
11916W        W30120   9.719   9.305   0.275 -0.1653 -0.2099  0.0293
11917W        W30121   7.686   3.757   1.122  0.1657  0.1284 -0.0532
11918W        W30122   0.814  17.559  11.186  0.1525  0.2098  0.0482
11919W        W30123   6.538   3.194   1.761 -0.2182  0.0471  0.1805
11920W        W30124   0.938   1.889  14.978  0.2581  0.1383  0.2077
11921W        W30125  16.362  14.235  15.475 -0.0716  0.0707  0.1367
11922W        W30126  10.140   9.767   3.377 -0.1425  0.1235 -0.0076
11923W        W30127  11.616  17.802   0.968  0.2959  0.2900  0.0306
11924W        W30128   1.363  12.908   2.952 -0.0118  0.3387  0.0199
11925W        W30129   1.555   9.306  11.598 -0.0642  0.1364 -0.0912
11926W        W30130  15.308  16.243  12.877  0.2157  0.1474  0.1247
11927W        W30131   3.498  13.499  12.723  0.0274 -0.1030  0.0519
11928W        W30132  14.690   4.978   1.900  0.1084  0.0211 -0.0307
11929W        W30133   6.251   4.460   3.131 -0.3265 -0.0599 -0.3583
11930W        W30134   7.371   3.825   4.414  0.0315 -0.0326  0.2176
11931W        W30135   9.286  11.096  14.971 -0.1565  0.2443  0.0854
11932W        W30136  15.904  17.584  11.171 -0.1476 -0.1109  0.0822
11933W        W30137  13.137  11.203  14.916 -0.1557  0.2346 -0.0597
11934W        W30138   8.745   3.971  15.897  0.0242 -0.0696 -0.0044
11935W        W30139  13.913  13.034   4.808  0.0713  0.2551 -0.2972
11936W        W30140  11.044  16.624   1.193 -0.2077 -0.1490 -0.0963
11937W        W30141   5.455   9.438   5.983 -0.2690  0.1515 -0.2136
11938W        W30142   3.481  13.947   2.053  0.1592 -0.0860  0.1705
11939W        W30143   7.012  17.482  12.002 -0.3105  0.1006  0.0943
11940W        W30144   2.220  10.615  15.784 -0.0227  0.1475 -0.1084
11941W        W30145  11.354  10.442  15.131  0.0387 -0.2822 -0.0657
11942W        W30146   2.439  11.125  14.335  0.1437 -0.0879  0.2440
11943W        W30147  12.161   5.906  14.540  0.3483  0.1513  0.1314
11944W        W30148  13.589  17.448  15.688 -0.2303  0.0650 -0.2809
11945W        W30149  13.788   0.176  13.728 -0.1085 -0.0123 -0.2377
11946W        W30150   6.572   8.982  12.202 -0.1772  0.2218 -0.1745
11947W        W30151   4.342   5.465  14.820  0.2091 -0.2381  0.0502
11948W        W30152  10.531   6.784  15.183 -0.1023  0.0898 -0.0699
11949W        W30153   2.813  16.405   2.794  0.3411  0.2273 -0.0094
11950W        W30154   7.871   8.784   0.134 -0.0519  0.0282  0.0860
11951W        W30155   6.583  13.664  15.837 -0.0415  0.2591  0.1003
11952W        W30156   2.590  14.988  13.195  0.2556 -0.1588 -0.1208
11953W        W30157  13.306   3.874   0.090 -0.1743 -0.1093 -0.1442
11954W        W30158  17.770  15.473  16.177 -0.2200 -0.0736 -0.0957
11955W        W30159  16.898   0.900  12.238 -0.1913 -0.0611  0.0535
11956W        W30160   1.732  11.735   2.358 -0.1155 -0.1806 -0.0971
11957W        W30161  11.783   3.111  11.658  0.0751 -0.1272  0.0973
11958W        W30162  10.125   3.090  15.277 -0.2086  0.1541  0.0520
11959W        W30163   6.321  14.860   3.226 -0.0072  0.1297 -0.1192
11960W        W30164  14.262   7.615   0.870 -0.2662  0.0435 -0.1515
11961W        W30165   6.913  12.948   2.269 -0.0437 -0.0504  0.0704
11962W        W30166  16.968  17.693  15.303 -0.1546 -0.6229 -0.0196
11963W        W30167   6.943   3.319   2.186 -0.2951  0.2667  0.0734
11964W        W30168  15.875  16.167   0.368 -0.1768 -0.1692 -0.0270
11965W        W30169   8.614  15.400  11.042  0.3097  0.2611 -0.1820
11966W        W30170   6.330  16.869  16.061  0.3300 -0.3228  0.2181
11967W        W30171   5.534  11.754  14.333 -0.0203 -0.1975  0.2108
11968W        W30172  16.429   4.973  13.543  0.2428  0.1978 -0.0425
11969W        W30173   0.576   2.326  14.127 -0.1057 -0.1186  0.0335
11970W        W30174  12.952   3.193  14.276 -0.0177  0.1483  0.2974
11971W        W30175  13.948   1.381   4.622  0.1178 -0.0487 -0.1593
11972W        W30176  10.476  11.761   2.585 -0.0976 -0.0986 -0.0618
11973W        W30177  16.046  13.782   0.352  0.2646  0.0932  0.0081
11974W        W30178   9.465   3.287   4.199 -0.0309 -0.0737 -0.0845
11975W        W30179   6.162  14.242  11.579 -0.1280 -0.3004  0.0457
11976W        W30180  17.770   6.484   1.683  0.0061  0.0297  0.0431
11977W        W30181   5.004  10.799  13.840  0.0128  0.1001 -0.2741
11978W        W30182   9.528   6.639  13.808  0.2193  0.2842  0.0828
11979W        W30183  15.599  17.305  11.414  0.1059 -0.2428 -0.0212
11980W        W30184   9.967   2.260  15.207  0.2568  0.1555  0.0397
11981W        W30185   7.799  12.051  15.969 -0.2673 -0.1345  0.0648
11982W        W30186   8.765   9.816   2.025 -0.1009  0.1012 -0.1148
11983W        W30187   0.206   4.449  14.793 -0.0806  0.1474  0.1423
11984W        W30188   8.269   8.399   3.129  0.2636  0.0122  0.0062
11985W        W30189  10.286   4.023  13.135  0.0239  0.1872 -0.0217
11986W        W30190   2.803   5.892   0.043  0.1095 -0.2678  0.1535
11987W        W30191   2.684   9.411  13.983 -0.2126  0.2387 -0.0434
11988W        W30192  16.713   9.668  14.576 -0.2558 -0.1646 -0.1364
11989W        W30193   8.714   6.438   1.215  0.1756  0.0782 -0.1991
11990W        W30194   0.336   2.454  13.691 -0.0027  0.0539 -0.1247
11991W        W30195   1.676   2.840   2.904 -0.1836 -0.1180 -0.0381
11992W        W30196   6.014   7.980  12.983  0.0993  0.0883 -0.2287
11993W        W30197  17.906   8.564  12.982  0.2776 -0.1831 -0.0480
11994W        W30198   7.401   0.135  11.446  0.1343 -0.0251 -0.0930
11995W        W30199   5.447   7.765   4.444 -0.0392  0.0370  0.0114
11996W        W30200   6.905   0.657  13.106 -0.0985 -0.2716  0.3824
11997W        W30201   7.247  16.316   4.212  0.0840 -0.0943 -0.2742
11998W        W30202   6.487   6.169   3.594 -0.1129 -0.0248 -0.0767
11999W        W30203   4.998   1.370   1.053  0.0750  0.0940  0.0461
12000W        W30204   3.423  16.516  13.419  0.2696  0.1448 -0.2070
12001W        W30205   9.584   3.327  14.432 -0.0412 -0.0968  0.0359
12002W        W30206  14.438   9.216  11.979 -0.1575 -0.2756  0.2010
12003W        W30207   7.899  14.541   2.331  0.4003 -0.2389 -0.0032
12004W        W30208   7.198   9.115   3.425 -0.0482 -0.0521 -0.2925
12005W        W30209  14.814   1.134  12.065  0.0020  0.2296 -0.2341
12006W        W30210  16.183   8.200   1.390 -0.2394  0.1566  0.1730
12007W        W30211   7.853   9.110  14.238 -0.1213 -0.0427  0.1561
12008W        W30212   4.772   2.713  12.385 -0.2284 -0.0538  0.2568
12009W        W30213   4.162   1.511  10.428 -0.0124 -0.0498 -0.3544
12010W        W30214   8.024  13.717   2.129  0.2116  0.0571  0.0509
12011W        W30215   1.833   0.724   5.724 -0.1090  0.1955  0.3862
12012W        W30216  17.487   5.562   1.384 -0.0880  0.3170 -0.2971
12013W        W30217  10.689  17.733   2.580  0.0050 -0.3463 -0.1987
12014W        W30218  14.013  11.361  15.531  0.0278  0.0379 -0.0938
12015W        W30219   9.331   3.753  12.333  0.3846  0.1698 -0.4986
12016W        W30220   7.345   1.882   0.785 -0.0284 -0.3142  0.0927
12017W        W30221   0.235  15.302   4.227  0.2698 -0.1936 -0.2202
12018W        W30222   9.914   5.912   2.370 -0.1705 -0.2640  0.0705
12019W        W30223   5.560   5.580   2.224  0.0520  0.1183  0.1838
12020W        W30224   1.511   3.362  12.648 -0.1140 -0.1273  0.0884
12021W        W30225   2.207  14.564  15.934  0.2831  0.0977  0.2117
12022W        W30226  11.909  12.764  14.086 -0.1130 -0.1971  0.2814
12023W        W30227  16.665  16.005   2.914  0.0488  0.5856 -0.0986
12024W        W30228  16.576   6.385   4.649 -0.1939 -0.1747  0.2357
12025W        W30229   0.451  17.897   4.127 -0.1945 -0.0200  0.0112
12026W        W30230   4.246  12.258   4.843 -0.1764 -0.0372  0.1644
12027W        W30231  12.404   4.430  12.994  0.0226 -0.0799 -0.0314
12028W        W30232  16.388   5.371  12.456 -0.0299 -0.0542 -0.0819
12029W        W30233  12.016  12.486  11.652 -0.0509 -0.2400  0.1590
12030W        W30234   6.787   9.451  12.454 -0.1252 -0.0889  0.1291
12031W        W30235   2.389  17.453  14.850 -0.0059  0.2411 -0.5480
12032W        W30236   7.189  10.338  15.685 -0.0239 -0.1714  0.0922
12033W        W30237   0.134  16.386  16.107  0.1643  0.0515 -0.0804
12034W        W30238  11.263  10.075  15.537 -0.1245 -0.2349  0.3587
12035W        W30239   4.538   9.685   3.999 -0.2723 -0.0194 -0.0264
12036W        W30240  14.599  16.676   0.979  0.2961 -0.1449 -0.2812
12037W        W30241   3.276  12.402  15.208 -0.2325  0.1568 -0.3345
12038W        W30242  10.407   9.320  14.799 -0.0844 -0.2571 -0.0124
12039W        W30243   2.743  10.698   4.854  0.2705  0.2123 -0.0103
12040W        W30244  16.719  15.036  13.032 -0.2235  0.1712 -0.2199
12041W        W30245  15.643   7.711   4.853 -0.2101 -0.3834  0.1681
12042W        W30246   5.556   8.663  13.171 -0.1792  0.2250 -0.3104
12043W        W30247  14.804   7.342   4.077  0.2366 -0.3903  0.0194
12044W        W30248   1.131  12.435  11.685  0.1191  0.3245 -0.0484
12045W        W30249  14.066  10.986  16.002  0.0712 -0.1763 -0.0638
12046W        W30250  14.657  17.215   1.297 -0.1668 -0.3436  0.0989
12047W        W30251  12.440   4.971  14.901  0.0431 -0.0268  0.0621
12048W        W30252   8.387   3.694  11.850  0.2582 -0.1550 -0.0035
12049W        W30253   1.121  15.661  14.490 -0.0205  0.3080  0.0831
12050W        W30254   6.855  16.071   3.657 -0.0253  0.0557  0.0705
12051W        W30255  12.454   2.400   4.463 -0.0951  0.3369 -0.0586
12052W        W30256  15.791   8.686   4.072 -0.0029 -0.0642  0.0823
12053W        W30257   5.456  16.215  15.187 -0.2010 -0.1384  0.2524
12054W        W30258  10.131  10.584   0.681  0.0619 -0.4004  0.1338
12055W        W30259  12.910   3.036   4.876  0.0618  0.1613  0.1822
12056W        W30260  14.498   6.452  12.959  0.2365 -0.3157 -0.0904
12057W        W30261   7.109  17.632  13.551  0.0495  0.1600 -0.1148
12058W        W30262   0.695   0.962   2.076  0.2769  0.2297 -0.0501
12059W        W30263   5.928  14.478  15.831 -0.0219  0.3277 -0.1254
12060W        W30264  17.463  15.704   2.495 -0.1998 -0.3367  0.0177
12061W        W30265  16.807   5.110   5.724  0.0521  0.2648 -0.1983
12062W        W30266   4.850   9.082  14.869 -0.1354 -0.2727 -0.1310
12063W        W30267  16.587  13.698  12.650 -0.1641 -0.1075  0.1522
12064W        W30268   9.112  13.042  12.794 -0.1729  0.0295 -0.1647
12065W        W30269   9.040  11.145   1.025  0.2714  0.1424 -0.2293
12066W        W30270   0.885  12.394  13.558  0.0173 -0.2566 -0.0828
12067W        W30271   3.653   2.302   3.367  0.0030  0.1622  0.2583
12068W        W30272   8.585  15.330  13.764  0.0617 -0.1768  0.1578
12069W        W30273  15.866   3.476  13.180 -0.1565 -0.2406 -0.0920
12070W        W30274   3.214  10.787   0.699 -0.0957 -0.2152 -0.1815
12071W        W30275  11.216  12.204  12.878 -0.1545 -0.5170  0.0968
12072W        W30276   4.616  14.412   1.567  0.0222 -0.1400  0.0444
12073W        W30277  16.710   3.316   3.267 -0.2116  0.0191 -0.1750
12074W        W30278   8.720  15.730   2.925 -0.1921  0.1081 -0.2686
12075W        W30279   1.275   6.692  11.311 -0.2052  0.0959 -0.2092
12076W        W30280   9.765   8.392  14.961  0.0422 -0.0235 -0.0918
12077W        W30281  10.794  10.123  11.855  0.0259  0.0753  0.0049
12078W        W30282   9.143   9.730   0.977 -0.0831  0.0010  0.1012
12079W        W30283   3.161  12.428   4.891 -0.0527 -0.0630  0.0676
12080W        W30284  15.017   8.290   0.736 -0.1895 -0.5059 -0.0683
12081W        W30285  12.363   7.275   2.383 -0.2368  0.1756  0.1605
12082W        W30286   0.069   7.093  11.978  0.0091  0.0558 -0.1232
12083W        W30287   9.523  10.877   4.632  0.0697  0.1037 -0.0710
12084W        W30288   9.553   7.774   2.728  0.1420 -0.2999  0.0904
12085W        W30289   5.405   3.812   2.590  0.0723 -0.0869  0.0472
12086W        W30290   0.897  17.567   2.597  0.0216  0.0357  0.2448
12087W        W30291  15.403  13.002   1.992 -0.2489 -0.1062 -0.0998
12088W        W30292   3.611   8.334   1.962 -0.3147  0.0423 -0.1825
12089W        W30293   6.042   3.612   4.199 -0.0792  0.0399  0.1531
12090W        W30294  11.311   8.216  15.837  0.0651 -0.0811 -0.1503
12091W        W30295   0.925   7.396  15.965  0.1192  0.0475  0.4619
12092W        W30296  17.257  12.271  10.566 -0.1894  0.0817 -0.0973
12093W        W30297  15.873  11.156  14.421  0.0548  0.2260 -0.0987
12094W        W30298  11.500  13.435   3.076 -0.0335  0.1678  0.1214
12095W        W30299  10.398   5.464  11.407 -0.1533  0.2518  0.1204
12096W        W30300  15.565   9.600   3.703 -0.0570  0.0068  0.0603
12097W        W30301   4.955   9.414  13.122 -0.0809  0.0106 -0.0190
12098W        W30302   7.030   3.063   1.731  0.0700 -0.2088  0.1343
12099W        W30303   5.233   9.411   2.179  0.4249  0.1128 -0.1099
12100W        W30304  18.001   4.506  13.050  0.2818 -0.4225  0.1331
12101W        W30305   6.419   9.158   5.033  0.5339  0.0882 -0.0772
12102W        W30306  16.185  16.399   4.067 -0.4739 -0.1664 -0.0419
12103W        W30307  11.946   7.478  15.964 -0.2495 -0.2645  0.0737
12104W        W30308   1.317  16.314  14.010 -0.1183 -0.0754  0.0948
12105W        W30309   5.655  16.971   4.217  0.0463 -0.1057  0.0192
12106W        W30310   1.620   0.702  13.852 -0.2344 -0.0207  0.2378
12107W        W30311   4.441  10.776  15.589 -0.1126 -0.0930 -0.0148
12108W        W30312   9.411   0.812   3.909 -0.1798  0.1957  0.1553
12109W        W30313  17.236  13.558  11.510 -0.0910 -0.3700 -0.0478
12110W        W30314   8.138  17.727   0.984  0.1445 -0.0409 -0.0374
12111W        W30315  16.928   2.654  15.589  0.3796  0.3104  0.2227
12112W        W30316   4.301   4.894  12.631  0.0355 -0.1547 -0.0626
12113W        W30317   5.650   7.505   4.903  0.1033 -0.0511 -0.1005
12114W        W30318   8.165   7.300   3.580  0.0769 -0.0140  0.0324
12115W        W30319   6.558  10.214   0.126  0.2951 -0.0808  0.0279
12116W        W30320  13.905   2.610   2.735 -0.0967  0.0639  0.2360
12117W        W30321  12.758  17.027   3.200 -0.2804 -0.3646  0.1009
12118W        W30322   9.731  12.015  15.445 -0.0032  0.1800 -0.1514
12119W        W30323  14.741  13.207   1.565 -0.1380  0.3231  0.0564
12120W        W30324  14.520  14.476   3.544  0.0685 -0.1824  0.2026
12121W        W30325   7.064  10.237   3.588 -0.1843 -0.1584  0.0250
12122W        W30326  12.906   3.330   2.888 -0.0356  0.3859 -0.0799
12123W        W30327  12.262   5.843  12.180  0.0754 -0.1249 -0.2160
12124W        W30328  11.049   0.077  14.107 -0.1597  0.2821  0.2368
12125W        W30329  11.826   1.312  14.826 -0.0383  0.0778  0.0960
12126W        W30330  16.210  11.932  14.387  0.1362  0.1433  0.2337
12127W        W30331  12.535  14.458   2.827 -0.0390 -0.0326  0.1016
12128W        W30332   5.738   6.893   4.293  0.1042  0.0594  0.0530
12129W        W30333  14.532   8.861  15.975 -0.1335 -0.1931 -0.0003
12130W        W30334   3.295   6.638  11.745  0.0923  0.0777 -0.0320
12131W        W30335   3.483  10.736  15.567  0.0412 -0.0489  0.1069
12132W        W30336  11.947  10.014   1.463  0.2111 -0.0951 -0.0259
12133W        W30337   4.943  11.309   0.956 -0.0110  0.0623  0.0242
12134W        W30338  12.422  11.808   1.115 -0.0373  0.1335  0.1138
12135W        W30339  11.377   5.615  15.438  0.0248 -0.3065  0.1547
12136W        W30340  17.533   5.323   3.300  0.0200 -0.0189  0.0852
12137W        W30341  13.610   8.153  15.364 -0.0700  0.0878 -0.0570
12138W        W30342   0.498  17.068  10.125  0.0842 -0.1055 -0.1412
12139W        W30343  12.056   3.089  12.501 -0.1197  0.2035  0.1693
12140W        W30344   8.793  13.640   1.594 -0.1746  0.3374  0.3392
12141W        W30345   3.072   2.134  15.972 -0.0482  0.0683  0.0388
12142W        W30346   6.229   0.014  13.745  0.0116  0.2656  0.3170
12143W        W30347   4.976  15.149   2.230 -0.2438  0.1597  0.1102
12144W        W30348   6.389   7.914   3.894 -0.0220 -0.1506 -0.0013
12145W        W30349  12.857   9.484   0.365 -0.0650 -0.0777 -0.0560
12146W        W30350  12.911   5.350  16.088 -0.0201 -0.1193  0.1319
12147W        W30351   9.219  11.541  13.478 -0.1515  0.0536 -0.0028
12148W        W30352  13.216   0.591  12.672 -0.3623  0.2924 -0.2093
12149W        W30353   5.231   3.842   3.109  0.0607 -0.1820  0.1294
12150W        W30354   7.941   4.958   3.452  0.2879 -0.1749 -0.0395
12151W        W30355  16.337  15.234  11.768  0.0555 -0.1439 -0.0993
12152W        W30356   6.743   5.300   0.634  0.1650  0.3005  0.2179
12153W        W30357   1.577  13.401   4.285  0.0640  0.0997 -0.6888
12154W        W30358   8.119   8.452  12.664 -0.0617 -0.0974  0.3478
12155W        W30359   8.493  15.074   0.861 -0.0184  0.1639  0.1162
12156W        W30360  17.558   2.851  12.141  0.0513 -0.3084 -0.1000
12157W        W30361   8.664  17.198  11.088 -0.2478 -0.2780 -0.0766
12158W        W30362  16.718   4.364   1.971 -0.3142  0.3378 -0.0552
12159W        W30363   1.537   2.495   4.271  0.0122  0.0764 -0.3829
12160W        W30364  15.490   0.307   3.436 -0.1445  0.1686 -0.2125
12161W        W30365  10.943   9.285   1.588  0.1142  0.2120  0.0096
12162W        W30366   1.589  17.507  13.327 -0.0091  0.1670  0.3273
12163W        W30367   4.334   5.729   4.187 -0.3142 -0.0026  0.0469
12164W        W30368   5.420  16.718  15.495 -0.0143 -0.0142  0.2166
12165W        W30369   7.865   7.181  13.560  0.1114  0.0314 -0.0598
12166W        W30370   0.678   7.490  13.510  0.0448 -0.1429 -0.0400
12167W        W30371   5.616   5.096  13.118  0.3592 -0.0852  0.2248
12168W        W30372  14.750   7.166  15.149  0.1258  0.0355  0.1663
12169W        W30373   9.930   0.734   2.927  0.1065 -0.0971 -0.0219
12170W        W30374   0.915   2.582   3.483  0.1648  0.1718  0.1588
12171W        W30375   2.470  13.262  10.455  0.0318  0.4823 -0.1995
12172W        W30376  17.402  13.715   0.721  0.1110  0.1796  0.0042
12173W        W30377  15.218  13.013  14.018  0.3662 -0.1532  0.0725
12174W        W30378  10.305  10.746  14.325  0.0292  0.2299  0.3437
12175W        W30379   2.550   4.926   2.344  0.0778  0.0621  0.2041
12176W        W30380  16.436  15.338  12.223  0.0372 -0.1006  0.0144
12177W        W30381  15.402   1.581   2.537 -0.1101 -0.0400 -0.2566
12178W        W30382   8.524   2.768   0.392 -0.2103  0.2445 -0.0842
12179W        W30383  10.066   1.681  14.349  0.1308  0.1762  0.1243
12180W        W30384  16.088  15.224   4.188 -0.1222 -0.1207  0.4077
12181W        W30385   9.509   5.524   4.471  0.1696 -0.1014 -0.1877
12182W        W30386   9.173  16.566   3.259 -0.1555 -0.0060  0.0690
12183W        W30387   7.904   5.608  11.384 -0.1403 -0.1258 -0.2477
12184W        W30388  17.509   0.009  13.940 -0.0232 -0.0170  0.1293
12185W        W30389  15.831   0.898   2.341 -0.1955 -0.2615  0.1762
12186W        W30390   1.605  14.678   1.318 -0.3077 -0.0066  0.2236
12187W        W30391  17.798  12.082  10.643 -0.1799  0.2643 -0.3188
12188W        W30392   9.940  14.947  15.365  0.0220 -0.3014 -0.2381
12189W        W30393   8.352  10.649   3.434  0.4347  0.1326 -0.0309
12190W        W30394   2.587   0.669  12.748 -0.0037  0.1380 -0.0003
12191W        W30395   2.841  12.019  14.033 -0.1479  0.1346  0.1479
12192W        W30396  14.512   7.133  14.164  0.4138  0.1662  0.1465
12193W        W30397  12.417  10.863   2.321  0.2028  0.0192  0.1601
12194W        W30398  12.951  12.850   3.596 -0.3484  0.4430  0.1117
12195W        W30399  17.655   7.499  11.362 -0.1044 -0.0872 -0.1920
12196W        W30400  16.231   4.197   5.115 -0.0259 -0.1166 -0.0522
12197W        W30401  16.510  14.432   4.341 -0.0360 -0.0096  0.0422
12198W        W30402   4.643  12.180  15.825 -0.1411  0.1837  0.1464
12199W        W30403  10.678  17.314   3.922 -0.1552 -0.0234 -0.0452
12200W        W30404  12.933  15.996   3.273  0.0055 -0.1365 -0.1946
12201W        W30405   1.984  16.211  11.166  0.1434  0.2677  0.0886
12202W        W30406  10.412  11.053  14.721  0.0931  0.0197  0.0151
12203W        W30407   8.775   2.725   4.604  0.0501  0.4045  0.1284
12204W        W30408   9.028  14.331  14.028 -0.1952  0.0973 -0.2552
12205W        W30409  14.375   2.388   2.800  0.1836  0.4819 -0.0071
12206W        W30410  12.266  13.665   0.152  0.3238 -0.1746  0.0699
12207W        W30411  11.099   8.170   2.847  0.1475  0.0439 -0.1378
12208W        W30412   8.478   3.381  11.418 -0.0766 -0.0059 -0.0646
12209W        W30413   8.071  13.465  11.158  0.2616  0.0467 -0.0170
12210W        W30414   3.446  12.593  11.626 -0.0261 -0.1016 -0.0469
12211W        W30415  14.102   5.580  13.323 -0.2456 -0.0162 -0.2194
12212W        W30416   6.744   2.523   5.492  0.0167 -0.1119 -0.1743
12213W        W30417  16.516   8.522  16.098 -0.1053 -0.2147  0.0434
12214W        W30418   3.561  11.656   2.671 -0.1198  0.2924  0.0328
12215W        W30419   9.111   3.228   5.311 -0.0426  0.0551  0.2039
12216W        W30420   5.970  14.450   3.998  0.0295  0.3293 -0.0494
12217W        W30421   1.499   0.319  12.237 -0.0506  0.0261 -0.3699
12218W        W30422   3.773   1.155  14.619  0.1796  0.1618  0.0133
12219W        W30423   2.909  11.911  12.648  0.1297 -0.0554 -0.2757
12220W        W30424  12.761   9.695  12.625 -0.0336 -0.3232  0.0528
12221W        W30425  16.285  16.541   0.288  0.0212 -0.2490 -0.2181
12222W        W30426  15.481  17.698   0.752  0.3729  0.1860  0.0851
12223W        W30427  14.233  10.070   4.840 -0.3112  0.0438  0.1308
12224W        W30428   1.141  10.905  11.720  0.1784  0.1791  0.1722
12225W        W30429   5.059   4.404   4.214  0.1510 -0.0919 -0.0185
12226W        W30430  17.707   0.117  14.738  0.0601 -0.2535 -0.2738
12227W        W30431  12.228   5.334  12.802 -0.1585  0.2135 -0.0107
12228W        W30432  11.917  10.221   2.928 -0.2211  0.0086  0.0681
12229W        W30433  17.370  12.723   2.307  0.0181  0.3073 -0.2190
12230W        W30434  12.804  14.672   3.557  0.0728 -0.0498 -0.1423
12231W        W30435  11.835  16.329  14.463  0.0551  0.0366  0.1489
12232W        W30436   1.835  13.615  11.126 -0.4783 -0.3596  0.2337
12233W        W30437  17.823   6.918   1.354  0.1607 -0.1081  0.0305
12234W        W30438  17.077  16.913   2.635  0.4248  0.2469 -0.0611
12235W        W30439   6.206  11.873   4.676  0.0145  0.0466 -0.0135
12236W        W30440   9.003  13.458  15.927 -0.1032 -0.0376 -0.0400
12237W        W30441   8.645   7.224   4.179  0.2007  0.1308 -0.0832
12238W        W30442  12.923  17.352  13.217  0.2038 -0.3355  0.0661
12239W        W30443  10.488   1.664  14.674  0.0529  0.2995 -0.1025
12240W        W30444   2.648  16.111   4.479  0.0338 -0.3175 -0.2127
12241W        W30445  10.019  12.828  12.658  0.1266  0.0023  0.0896
12242W        W30446   0.528   9.675   0.161  0.0759  0.1146  0.0676
12243W        W30447  10.434   8.989  13.757 -0.1709  0.1749  0.2021
12244W        W30448   6.983   8.567  14.487  0.3015 -0.3485  0.0570
12245W        W30449   3.550   2.105  15.061  0.0638 -0.1816  0.1398
12246W        W30450   1.427  11.330   4.751  0.0206  0.0992 -0.0635
12247W        W30451  15.295   6.769  12.551 -0.0368  0.0199  0.1573
12248W        W30452  13.112  17.845   1.947  0.0922  0.1705  0.1049
12249W        W30453   0.893   9.325  15.974 -0.0474  0.1362  0.0849
12250W        W30454  17.309  16.905  14.675  0.0889  0.1895 -0.2018
12251W        W30455  12.089  14.428   0.320 -0.0195 -0.1530 -0.3087
12252W        W30456   4.188   5.308  13.080  0.3977  0.0562  0.1807
12253W        W30457   4.815  16.961  11.654 -0.1833  0.0152  0.4218
12254W        W30458   1.124  11.748   4.577 -0.0068  0.0318  0.2644
12255W        W30459   5.763   6.002  10.764 -0.0370  0.0287 -0.2236
12256W        W30460  16.723   4.941  12.463  0.0138 -0.1964  0.1766
12257W        W30461  10.469   1.190   2.199 -0.0235 -0.1390 -0.0682
12258W        W30462  14.010   3.793   3.359  0.0296  0.1799 -0.0276
12259W        W30463   6.259  18.019   2.348  0.0859 -0.4129  0.1337
12260W        W30464   3.383   1.895   1.398  0.2305 -0.1883  0.0509
12261W        W30465   7.599   2.772  12.274  0.0667  0.0145 -0.3283
12262W        W30466   7.513   7.112  11.617 -0.1192  0.0662  0.0270
12263W        W30467   3.090  10.196  12.412  0.1578 -0.0134 -0.0740
12264W        W30468  15.806  11.459  13.726 -0.0881  0.0493 -0.1436
12265W        W30469  17.286   3.589  11.683  0.2721  0.0561 -0.0311
12266W        W30470   2.375   2.115   0.618  0.0489 -0.1157  0.3451
12267W        W30471   3.435   6.408   1.805  0.0596 -0.2377 -0.0424
12268W        W30472  13.791   6.261  14.606 -0.1905  0.4813 -0.3563
12269W        W30473  15.434  13.412  14.990 -0.1555  0.0016 -0.4036
12270W        W30474   0.642   4.369  15.749  0.0232 -0.1397  0.2342
12271W        W30475   0.299   0.061   1.302 -0.0730 -0.3172 -0.2085
12272W        W30476   7.055   6.389  11.634  0.1031  0.1036  0.1671
12273W        W30477   8.113   3.595   3.650 -0.3651  0.1329 -0.0869
12274W        W30478   2.572  14.300  10.387  0.0510 -0.1662 -0.2413
12275W        W30479   8.567   9.290   2.831  0.0546  0.0529 -0.1268
12276W        W30480   8.324   8.997  13.994  0.0807  0.3706 -0.0695
12277W        W30481  17.965  13.372  13.801 -0.1167 -0.1778  0.1839
12278W        W30482   2.325  11.364  12.455  0.0645 -0.1172  0.4452
12279W        W30483  12.471   7.405   2.859  0.0200  0.1221 -0.0584
12280W        W30484   8.259  12.163   1.684  0.1112 -0.0235  0.0605
12281W        W30485   1.507   3.470   3.476  0.1537 -0.0831 -0.0681
12282W        W30486   0.342  17.489   3.877  0.1948  0.0139  0.0026
12283W        W30487  12.879  15.778  13.443  0.2060 -0.0775 -0.3550
12284W        W30488  17.786   6.340  14.510 -0.2589  0.1295 -0.0016
12285W        W30489   0.845  13.727   1.739  0.0246  0.1428 -0.3547
12286W        W30490   6.279   0.182  15.963  0.1164  0.3911  0.0869
12287W        W30491  15.464   4.632   4.262 -0.1075  0.2386 -0.1945
12288W        W30492   5.281  15.004  12.147 -0.0226 -0.1148  0.2208
12289W        W30493   4.846   2.319  11.697  0.2469  0.2670 -0.0745
12290W        W30494   7.136  16.437   4.708  0.1671  0.1295 -0.1760
12291W        W30495   9.249   1.600   0.172  0.1730  0.2822 -0.1019
12292W        W30496  12.947  16.826   1.697 -0.0069  0.0171 -0.0329
12293W        W30497   7.278  15.185  13.487  0.0439  0.0167 -0.0932
12294W        W30498  15.587  11.251   2.341 -0.3932 -0.2060 -0.1748
12295W        W30499   0.367  13.930  10.690  0.1897  0.1011 -0.0885
12296W        W30500   0.545  17.465   2.162 -0.4168  0.0585 -0.2620
12297W        W30501  10.987  13.358  11.844 -0.1250  0.0417 -0.0656
12298W        W30502  14.902   1.860  12.798 -0.1663  0.5639  0.1276
12299W        W30503  10.594   5.626  14.160  0.1654  0.2111 -0.0122
12300W        W30504   0.733   2.012   4.214 -0.5648  0.1308  0.2528
12301W        W30505   3.915  14.479  14.841  0.1856 -0.0544  0.0032
12302W        W30506  12.731  17.942  14.563  0.3247 -0.0815  0.0717
12303W        W30507  11.378  10.661  11.601 -0.2359 -0.2616 -0.0450
12304W        W30508  11.763  12.332   4.485  0.3076  0.0206  0.1871
12305W        W30509   0.954   5.000  15.192 -0.0953 -0.0836  0.1021
12306W        W30510   7.640   8.653  14.307 -0.2108  0.0283 -0.1182
12307W        W30511   3.650  15.299   0.881 -0.1594  0.1719  0.1020
12308W        W30512   5.438   2.986  12.725 -0.1796 -0.0145  0.0241
12309W        W30513  10.636   0.132   3.307  0.0456 -0.1913  0.0951
12310W        W30514  16.548   8.921  13.983  0.2926 -0.0125 -0.0094
12311W        W30515   2.620   5.787  13.066 -0.3242  0.1217  0.0046
12312W        W30516   7.960  12.250  11.089  0.0884  0.0643 -0.2026
12313W        W30517  11.458  10.669   0.421 -0.1990 -0.0017 -0.0640
12314W        W30518   5.381   9.158  15.013  0.4465  0.3031  0.0030
12315W        W30519   0.140   5.801   4.211  0.2987 -0.0620 -0.3053
12316W        W30520  11.473  14.359  13.621  0.1491 -0.3545  0.0644
12317W        W30521   8.608  12.870   0.978  0.0707  0.0512  0.2126
12318W        W30522   2.541   2.423   2.889 -0.0079  0.2164  0.0213
12319W        W30523  16.329   8.449  12.399 -0.1901 -0.3262 -0.2378
12320W        W30524  16.725  16.561  14.464 -0.3873 -0.0006 -0.1479
12321W        W30525  17.230  12.597  15.441 -0.2488 -0.1501 -0.5340
12322W        W30526  10.368  15.984   3.268  0.0661 -0.0515  0.2370
12323W        W30527  12.221   0.925   0.658  0.0154  0.0994 -0.0609
12324W        W30528   8.296  14.081  13.346  0.0929  0.0603  0.1891
12325W        W30529   0.750   8.943   3.223  0.4279  0.0558  0.2615
12326W        W30530  15.369  13.160  15.448 -0.0293 -0.2256  0.1545
12327W        W30531  11.168  13.290   0.860 -0.1819 -0.0628 -0.1679
12328W        W30532  12.450   3.663   2.206 -0.0394  0.2626 -0.2966
12329W        W30533   0.286  13.860   4.991  0.1606 -0.1844  0.1969
12330W        W30534   9.276   8.526   0.410  0.0799 -0.0579  0.1409
12331W        W30535   0.282  16.191  12.763  0.0594 -0.0320  0.1479
12332W        W30536   2.691  14.595  12.708 -0.0952 -0.1032 -0.0247
12333W        W30537  13.061  11.601  11.974  0.0776  0.1445 -0.3208
12334W        W30538   8.847  16.493  14.424  0.1113 -0.2230  0.1167
12335W        W30539   5.517   1.301  13.192 -0.1267 -0.0402  0.0545
12336W        W30540   4.049   1.817  10.880 -0.1029 -0.0477 -0.0770
12337W        W30541  13.019  12.317   0.673  0.0438 -0.4702  0.3655
12338W        W30542  16.967   7.292  14.795 -0.1578  0.0120  0.3397
12339W        W30543   1.208   8.199  15.184  0.0289  0.1809  0.2616
12340W        W30544   9.621   0.782   3.345  0.1516 -0.1168 -0.1384
12341W        W30545  13.889   9.669  15.221  0.1078 -0.3477 -0.1920
12342W        W30546   9.292   6.504   3.886  0.0246 -0.1061 -0.1965
12343W        W30547   0.216   4.634   4.342 -0.0128  0.2771 -0.3974
12344W        W30548   1.997   7.781   5.212  0.0972  0.0417 -0.3888
12345W        W30549   9.703  13.320   2.673  0.1578 -0.0012  0.0874
12346W        W30550  10.321  16.433   0.070 -0.0136  0.1060  0.1815
12347W        W30551  11.166  17.515  11.589 -0.1639 -0.1859 -0.1689
12348W        W30552   4.726  16.161  15.194 -0.1123  0.0667 -0.1757
12349W        W30553   9.719   9.366   1.314 -0.0133  0.1709 -0.2303
12350W        W30554   4.178  11.214  15.248  0.1738 -0.0743  0.0743
12351W        W30555   7.417  11.459   1.326  0.2298  0.0666 -0.0258
12352W        W30556  14.094  14.894  14.640  0.4181 -0.3943 -0.4222
12353W        W30557  14.062   3.471  12.661 -0.0665  0.1636 -0.0077
12354W        W30558   0.599  17.052   0.998 -0.1959  0.2737  0.1686
12355W        W30559   1.239   7.811  13.572  0.1314  0.2111  0.2845
12356W        W30560   9.801  16.602  15.620 -0.0874 -0.0155  0.0058
12357W        W30561   4.710   9.561   3.270  0.0896  0.0221 -0.0885
12358W        W30562   3.946  17.036  14.305 -0.2813 -0.0558  0.1272
12359W        W30563  15.919   5.615  12.438 -0.1390 -0.1913  0.0619
12360W        W30564  13.641  14.695  12.464 -0.0722 -0.2657 -0.1896
12361W        W30565   6.766  18.011   4.044 -0.0363 -0.1471  0.0569
12362W        W30566   0.128  14.101  13.082  0.1902 -0.0151 -0.1320
12363W        W30567  10.914  15.759  12.091 -0.1826 -0.2418  0.1434
12364W        W30568   8.522  17.213   1.919 -0.0607  0.2994  0.0867
12365W        W30569  10.480   7.375   3.759 -0.1806 -0.2506 -0.2099
12366W        W30570   7.258  11.289   2.099  0.0382 -0.0340  0.2896
12367W        W30571  10.996   8.451  12.698  0.1305  0.1227 -0.0281
12368W        W30572   0.092  13.702   4.100 -0.2200  0.0466  0.1114
12369W        W30573  16.849   5.216  11.132 -0.0802 -0.0041  0.0153
12370W        W30574  15.893   8.992   3.060 -0.3951 -0.2608 -0.2798
12371W        W30575  12.864  14.073   2.096 -0.0780  0.1543  0.2426
12372W        W30576   2.316   5.069   2.799  0.1090 -0.0681  0.1143
12373W        W30577  17.002  15.229  14.838 -0.0351  0.2050 -0.0931
12374W        W30578   5.197   6.463  15.260 -0.0317 -0.1029 -0.2644
12375W        W30579  13.860   4.269  14.584  0.2547 -0.0817 -0.3012
12376W        W30580   7.720   8.734  12.775  0.0272 -0.1869 -0.2715
12377W        W30581  13.315  16.575  13.042 -0.0245 -0.1348 -0.4632
12378W        W30582   3.193   1.512  10.431 -0.2768  0.1850  0.0994
12379W        W30583   7.546  13.538  14.466  0.4082 -0.0179  0.1593
12380W        W30584  11.578   1.111   0.755 -0.2233  0.2432  0.0449
12381W        W30585  16.943  16.174  14.969  0.0455  0.3155 -0.0647
12382W        W30586   8.447  12.711  13.318  0.2159 -0.1494 -0.0958
12383W        W30587   0.430   4.716   2.496  0.0201 -0.0377  0.0540
12384W        W30588   1.393  15.437   2.208 -0.1923 -0.1002  0.0079
12385W        W30589  17.775  17.802  15.636 -0.0223  0.2493 -0.3406
12386W        W30590   4.163   5.672   5.056 -0.0288 -0.1187  0.1566
12387W        W30591   3.083   9.737  11.941  0.2316  0.1877  0.2328
12388W        W30592  13.637   6.380  12.821 -0.1549 -0.0420 -0.0507
12389W        W30593   9.000  17.966   4.498 -0.1846  0.0892  0.0480
12390W        W30594   1.641   4.731  14.713 -0.1028  0.3180  0.0778
12391W        W30595   2.310   2.642  14.639  0.0675  0.0707 -0.1899
12392W        W30596   9.349   5.586  15.005 -0.0540  0.2226  0.0162
12393W        W30597  13.474  17.396   2.472  0.0544  0.0660  0.4543
12394W        W30598   8.782   8.611  12.022  0.1957  0.1482  0.0093
12395W        W30599   8.979   3.544  13.654  0.0277 -0.1844 -0.0506
12396W        W30600   4.164  12.074   2.495  0.2376 -0.0516  0.0495
12397W        W30601   8.201   4.027  12.780 -0.3263 -0.1309 -0.1365
12398W        W30602   7.731  12.146   1.725  0.0275 -0.2819 -0.1103
12399W        W30603   6.340   0.024  12.549  0.1835  0.0639  0.1227
12400W        W30604  13.736  12.436   4.506  0.4601 -0.2416  0.1430
12401W        W30605  16.020  12.911   5.205  0.0120 -0.0995  0.2974
12402W        W30606   1.183  13.439   2.043  0.0009 -0.1826 -0.3036
12403W        W30607  14.827   3.811   1.058 -0.0820  0.1526  0.3032
12404W        W30608   3.611   9.433   3.983 -0.0572 -0.0897 -0.1046
12405W        W30609  13.221   4.419   2.375  0.0723 -0.0834  0.1063
12406W        W30610   3.246   9.611  12.407  0.0247 -0.2527  0.2496
12407W        W30611  10.640   3.464   4.638 -0.0453 -0.3550  0.1971
12408W        W30612  14.095   1.821   3.925  0.0020 -0.2398 -0.1883
12409W        W30613  14.761  17.343   2.761  0.3076  0.1694 -0.1091
12410W        W30614   2.276   7.687   4.493  0.3368  0.0122  0.1523
12411W        W30615  11.896   0.608   2.470  0.0011  0.1063 -0.0199
12412W        W30616  15.339   6.360   4.168 -0.5842  0.2561  0.0725
12413W        W30617  16.524   8.221   3.756 -0.1544 -0.1713  0.0573
12414W        W30618   5.852   7.750   2.552  0.0466 -0.0738  0.1118
12415W        W30619   1.213   8.627   4.756  0.0535  0.2281  0.3026
12416W        W30620   1.579   7.012   1.384 -0.3132  0.0371  0.1068
12417W        W30621   6.374  12.506   3.765  0.0988  0.0245  0.0550
12418W        W30622   7.085   7.191  13.595  0.0029 -0.1007 -0.0956
12419W        W30623   8.154  15.006  15.315  0.0675  0.2515  0.3123
12420W        W30624  10.700  11.282   4.101 -0.1311 -0.4458 -0.1777
12421W        W30625   1.524   8.846   3.756 -0.1820  0.3410  0.0425
12422W        W30626   7.073  16.149  11.678  0.1935  0.1896 -0.0028
12423W        W30627   8.652   1.017  11.724  0.0052 -0.2498 -0.0584
12424W        W30628  17.201  14.501  14.497 -0.1392 -0.3458 -0.1772
12425W        W30629   0.224   7.326   1.678  0.0926  0.1648  0.1993
12426W        W30630  12.730  15.759   2.933 -0.0311  0.0544 -0.1480
12427W        W30631  15.222   3.478   1.204  0.2311  0.1443  0.1636
12428W        W30632   4.287   4.051  11.852 -0.1396  0.0120 -0.1461
12429W        W30633   8.377  10.170   4.496 -0.3513 -0.0626 -0.1147
12430W        W30634   1.686  13.830  13.974  0.0350 -0.3006 -0.1306
12431W        W30635   0.757   0.442   2.269  0.0725  0.3595 -0.0857
12432W        W30636  12.383  16.659  13.414  0.1220  0.0026  0.1654
12433W        W30637   8.966  13.789   3.128  0.0202 -0.0066 -0.1076
12434W        W30638  16.193   8.409   4.163 -0.1911 -0.0198  0.3301
12435W        W30639   7.048  17.549  16.055  0.2369 -0.1842 -0.3371
12436W        W30640   6.368  16.806   1.234  0.0166  0.0588  0.1093
12437W        W30641  14.510  13.712  13.459  0.0061  0.2071  0.1373
12438W        W30642  13.902   9.369   5.707 -0.1445 -0.4411  0.0265
12439W        W30643  11.322   3.171  13.576 -0.1182 -0.2264  0.2529
12440W        W30644  11.041  12.932   0.093  0.3927 -0.3745  0.1188
12441W        W30645   2.858  10.591   1.582 -0.0085 -0.0629  0.0135
12442W        W30646  16.688  11.932   2.707  0.0470  0.0996  0.2657
12443W        W30647  13.864   6.051  14.133  0.2946  0.1450 -0.0659
12444W        W30648  10.562  13.262   0.976  0.1187 -0.2110  0.1972
12445W        W30649  12.620   5.926   1.966 -0.1573  0.0841  0.3342
12446W        W30650  10.958   4.732  11.577  0.3203  0.2694  0.0674
12447W        W30651   8.497   6.773   3.958  0.4457 -0.0737 -0.2341
12448W        W30652  17.607   9.324  11.933  0.1417 -0.1290 -0.0306
12449W        W30653   2.540   8.563  10.613  0.0168 -0.2237  0.0208
12450W        W30654   5.596   9.333   1.779 -0.1427  0.1939 -0.0940
12451W        W30655  13.044   2.609   1.915  0.0161  0.0427  0.2517
12452W        W30656   9.070  11.696  11.623 -0.3285 -0.1696 -0.2102
12453W        W30657  10.518  11.627  16.065  0.0453  0.0778 -0.0908
12454W        W30658   7.537   4.149  12.074  0.2318 -0.1786  0.0120
12455W        W30659   4.852  12.294   0.172 -0.1089 -0.2123  0.0284
12456W        W30660  15.183  10.574   0.174 -0.3620  0.1085  0.1522
12457W        W30661   9.448  16.930  15.772  0.1101 -0.0170  0.1435
12458W        W30662   9.171  16.222   4.176  0.2155  0.2988 -0.1867
12459W        W30663   6.094  12.262  11.825 -0.2275  0.0522  0.2106
12460W        W30664   1.684   8.779   2.220 -0.1047 -0.4479 -0.0053
12461W        W30665  12.714   1.394  15.547  0.1971  0.1801  0.2852
12462W        W30666   0.295  12.818   3.342  0.2225  0.1075 -0.3122
12463W        W30667   5.741  11.901  12.644  0.0136 -0.3034  0.0937
12464W        W30668   5.226   5.565  14.637 -0.3601 -0.0659  0.0420
12465W        W30669   7.920   3.087  12.570  0.1018 -0.0737 -0.0553
12466W        W30670   6.390  15.017  15.515  0.0481 -0.1156  0.2653
12467W        W30671   4.562   5.451  11.393 -0.3616 -0.3192 -0.2458
12468W        W30672   5.588   0.092  14.420 -0.1988 -0.3229 -0.0799
12469W        W30673  15.363  12.873   4.673 -0.0382 -0.1633 -0.0733
12470W        W30674   4.886  11.667   3.545 -0.0744 -0.0649 -0.0339
12471W        W30675   7.446   9.036  15.305  0.0070 -0.1924  0.0239
12472W        W30676   0.897   7.213   3.449  0.1639 -0.1462  0.0546
12473W        W30677   8.076   1.985  12.260 -0.1956  0.0925 -0.1814
12474W        W30678   3.206   9.093   5.693 -0.0537 -0.0141 -0.0393
12475W        W30679  13.821  12.615  15.409 -0.1258  0.1010 -0.4350
12476W        W30680  13.335  16.197  10.873 -0.1422  0.1209  0.0479
12477W        W30681  10.157   5.985  15.230  0.0057 -0.3193  0.1174
12478W        W30682   8.147  10.741   2.902 -0.2354  0.2831  0.2012
12479W        W30683  12.109  11.826   3.949 -0.0202 -0.0978  0.1835
12480W        W30684  15.250   2.279   2.941  0.1401  0.1158  0.0669
12481W        W30685   3.332  14.420   0.994 -0.1005  0.0077 -0.2070
12482W        W30686   6.503   4.006   3.214  0.1228 -0.1960 -0.1586
12483W        W30687  17.775  12.084   0.532 -0.3000 -0.0350  0.1725
12484W        W30688   9.483   9.610  13.935 -0.1049 -0.0115  0.1078
12485W        W30689   3.613  16.078   2.791  0.2101 -0.0289 -0.0120
12486W        W30690  16.076   1.729   4.565 -0.1603  0.0903 -0.1781
12487W        W30691  17.802   5.919   0.733  0.2541  0.0341  0.4065
12488W        W30692  15.200  17.975   0.090 -0.3026  0.0291  0.0363
12489W        W30693  16.004   0.253   3.193  0.0467  0.1431  0.1658
12490W        W30694  17.895  16.625   2.277  0.4845 -0.0562 -0.1525
12491W        W30695   3.513   5.831   1.621  0.1248 -0.3556  0.0992
12492W        W30696   5.684  15.825   1.272  0.0519 -0.2801  0.1461
12493W        W30697  14.947   7.237   2.294 -0.1481 -0.1083 -0.0668
12494W        W30698   8.958  11.925  12.085  0.0607 -0.1659 -0.1688
12495W        W30699  10.546   8.510  13.857 -0.1805  0.1091  0.0003
12496W        W30700  13.681  12.738  12.729 -0.0181  0.2583 -0.0452
12497W        W30701  15.622   5.567  15.569  0.0128  0.1380 -0.2506
12498W        W30702  11.735  12.549   3.320  0.2328 -0.0393 -0.2200
12499W        W30703  15.890  12.386   1.600 -0.2583  0.1641  0.1051
12500W        W30704   6.835   2.767  13.125  0.1650  0.1314 -0.1246
12501W        W30705   8.085   4.935  15.148 -0.0719  0.1848  0.0347
12502W        W30706   0.154   1.015  14.591 -0.0886 -0.0832  0.2248
12503W        W30707   5.626   2.676  15.902 -0.1332 -0.0763 -0.0486
12504W        W30708   0.345   4.247   1.412 -0.0712 -0.0882 -0.0188
12505W        W30709  14.951   0.690  15.782 -0.1851  0.2119  0.1957
12506W        W30710  10.318  17.567   4.158 -0.2116 -0.0492  0.3622
12507W        W30711   7.984   3.136   4.400  0.1145  0.0241 -0.1171
12508W        W30712   2.311  16.115   2.556  0.2135  0.1691 -0.0076
12509W        W30713  12.196  15.616   2.039 -0.0574 -0.1719  0.3370
12510W        W30714   2.183  13.317  13.541 -0.1867 -0.0239 -0.1756
12511W        W30715  12.122  15.353   0.846 -0.1204 -0.0607  0.1884
12512W        W30716   2.880   3.408  14.418 -0.1479  0.1980  0.1300
12513W        W30717   9.407  15.099  11.486  0.4441  0.0882 -0.1471
12514W        W30718  11.002   3.438  15.636 -0.1220 -0.0045 -0.0784
12515W        W30719  11.976  11.324   3.487 -0.0632  0.1445 -0.0167
12516W        W30720   4.392   4.980   0.484  0.1941 -0.1649 -0.0831
12517W        W30721   5.213   4.252  15.520 -0.1294  0.0637  0.0645
12518W        W30722  13.496   9.237  13.085 -0.0032  0.0097  0.1537
12519W        W30723  15.874  17.312   2.009 -0.0713 -0.0575 -0.1275
12520W        W30724  13.111   4.279   0.314 -0.0725  0.0294  0.0745
12521W        W30725   0.094  15.881  13.099 -0.1087  0.0544 -0.0499
12522W        W30726   9.163  15.996   1.470  0.1299 -0.1735  0.0557
12523W        W30727  17.389   1.317   2.198 -0.1318 -0.0788  0.0412
12524W        W30728   1.125  13.991   3.927 -0.2829  0.3195  0.3202
12525W        W30729  12.587  12.053  12.733  0.0310  0.2569 -0.1162
12526W        W30730   3.059   3.809  11.875  0.1922 -0.0727 -0.0186
12527W        W30731   7.264   0.614  11.401  0.1246 -0.2491  0.0438
12528W        W30732  14.549   8.934   3.241  0.1441  0.0732 -0.3499
12529W        W30733   9.410   4.750   3.047  0.1302 -0.2048 -0.2008
12530W        W30734   1.431   5.160  14.860  0.3900 -0.1473  0.0886
12531W        W30735   7.422  14.294  13.753  0.2841  0.0281  0.0235
12532W        W30736  11.889   5.688  12.491  0.4064  0.2337 -0.2189
12533W        W30737  10.527   6.930   4.435 -0.2615 -0.0745 -0.0118
12534W        W30738   2.392   8.427   0.587 -0.1029  0.0132 -0.0789
12535W        W30739  15.367   6.431  11.631 -0.0206 -0.1694 -0.0138
12536W        W30740   7.718  14.004   2.365 -0.1546  0.2042 -0.2142
12537W        W30741   2.485  11.191   0.916 -0.0790 -0.1734  0.0864
12538W        W30742  12.420  18.011   3.106 -0.0124  0.0536 -0.0346
12539W        W30743   9.047   3.042   1.389  0.0682  0.0317  0.0643
12540W        W30744   7.842   0.360  11.401  0.0939 -0.2343  0.1832
12541W        W30745   3.057   5.596  12.920  0.0235 -0.0576  0.0112
12542W        W30746  10.771  15.989  12.550 -0.3125  0.0031 -0.0032
12543W        W30747  14.816  11.669  15.489  0.0287 -0.0099  0.1833
12544W        W30748  15.304  15.859   2.164  0.0326 -0.0015 -0.2383
12545W        W30749  15.781   7.848  13.494  0.4205 -0.2633 -0.3139
12546W        W30750  13.960   9.414  12.908 -0.0776 -0.2729  0.2299
12547W        W30751   0.184  13.578   0.319 -0.1646  0.1481  0.0195
12548W        W30752   2.931   5.286  14.908 -0.1520  0.2777  0.3152
12549W        W30753  12.069   3.778  14.205 -0.1083 -0.1033  0.0839
12550W        W30754   5.991   3.589  12.204  0.0586  0.1366  0.4841
12551W        W30755   8.894   2.479   2.531  0.0029 -0.0995 -0.0481
12552W        W30756   9.905   2.657   1.570  0.2980  0.0821  0.0057
12553W        W30757   2.276   6.281   3.181 -0.0346  0.1466  0.0105
12554W        W30758  10.838  13.420   1.866  0.2356  0.0903 -0.1748
12555W        W30759  12.185   6.409  14.593 -0.1619  0.0421  0.0138
12556W        W30760   1.245   5.791   4.666 -0.1081 -0.0651 -0.1238
12557W        W30761  18.016   5.936   3.043 -0.0709  0.0253 -0.1345
12558W        W30762   4.667  11.404  13.547  0.1163 -0.1603  0.1786
12559W        W30763  17.806   2.216  11.692  0.1523 -0.2623  0.0860
12560W        W30764   3.240  12.883   0.990  0.0168  0.0928 -0.1538
12561W        W30765   3.204   0.089  16.090 -0.1328  0.1565  0.0677
12562W        W30766   1.481   4.482  11.321 -0.0350  0.1644  0.0165
12563W        W30767  13.300   8.986  12.239  0.0155  0.0220  0.0528
12564W        W30768   7.912   3.304  10.678 -0.0279 -0.2988 -0.2610
12565W        W30769   1.275   4.624  12.147  0.0250 -0.1310  0.0318
12566W        W30770  13.514   4.644  12.750  0.1196 -0.0519  0.0000
12567W        W30771   2.463  12.820   4.533  0.0193 -0.0806  0.0332
12568W        W30772   8.171   3.029  14.331  0.1196 -0.0836 -0.2438
12569W        W30773   9.081   6.081  13.249  0.0247 -0.1541  0.0675
12570W        W30774  16.564  17.433  14.512 -0.1357 -0.0148 -0.2386
12571W        W30775  14.649  16.863  12.880  0.2743 -0.1963 -0.1906
12572W        W30776   4.859   0.644   0.990 -0.2072 -0.0211 -0.0263
12573W        W30777   3.452   7.261  15.232 -0.0933  0.0401  0.0423
12574W        W30778   7.784   4.210   3.628  0.0623  0.1837 -0.2919
12575W        W30779   6.988   7.708  14.087 -0.0999  0.0578 -0.1845
12576W        W30780   4.337  16.654  14.086 -0.0867 -0.1765  0.0557
12577W        W30781   7.176  12.758   2.663  0.3486 -0.0662 -0.1593
12578W        W30782   2.137   7.774  16.165  0.4710  0.2361  0.1189
12579W        W30783   4.904  11.085   3.529 -0.0476  0.1667  0.1196
12580W        W30784   6.944  10.716   2.211 -0.0082 -0.2235  0.0811
12581W        W30785   2.514   4.461   2.737 -0.0815  0.1305  0.1208
12582W        W30786  12.148   8.649   3.140  0.1631 -0.3169  0.4396
12583W        W30787   6.386   8.857  11.169  0.2362 -0.0918 -0.2803
12584W        W30788   2.746  11.047   4.500 -0.1356  0.1498  0.2660
12585W        W30789  10.712   8.640   0.358  0.0318 -0.0467 -0.0017
12586W        W30790   8.810  16.487   2.466  0.0667 -0.0316 -0.1651
12587W        W30791   1.889   2.357  12.607  0.0063  0.0815 -0.0161
12588W        W30792  17.626   4.563   0.937  0.0403  0.2502  0.0713
12589W        W30793   5.586  13.462  11.484  0.1734 -0.1457  0.2118
12590W        W30794  13.782  15.986  11.171 -0.1428  0.0820  0.0397
12591W        W30795   6.406   7.683   2.383  0.0679  0.1066 -0.1458
12592W        W30796   3.699   9.639  12.985  0.0019  0.0790 -0.2555
12593W        W30797   8.238  11.077  11.551 -0.1276 -0.1738  0.0442
12594W        W30798   2.080   6.070   2.774 -0.2405  0.2709  0.1249
12595W        W30799   2.614   3.778   1.126 -0.1267  0.2291  0.3335
12596W        W30800   0.939  12.401   3.966 -0.0614  0.1469 -0.2131
12597W        W30801  17.406   6.582  14.802 -0.0228  0.0149  0.1027
12598W        W30802   3.170  17.072   0.683  0.1294  0.0048 -0.1367
12599W        W30803  12.565   4.987   4.367  0.0349  0.1820  0.1468
12600W        W30804   6.214   6.194   1.303 -0.3207 -0.1842 -0.2386
12601W        W30805   2.665  11.005  12.348  0.1057  0.1692 -0.1561
12602W        W30806   9.184   8.236  15.981  0.0131 -0.2785 -0.0628
12603W        W30807   7.358  12.782   4.265 -0.0403 -0.0445 -0.2085
12604W        W30808   6.755  15.024   1.594  0.0662 -0.1755 -0.1746
12605W        W30809   4.484  10.232   5.134 -0.1132 -0.3009  0.0499
12606W        W30810   7.961   8.558   3.795  0.0835  0.1825 -0.2877
12607W        W30811   7.162   1.636  11.770 -0.4040  0.4258  0.2077
12608W        W30812  10.092   0.019   3.307  0.0872 -0.0080 -0.2018
12609W        W30813  16.716   4.533  15.502  0.1093  0.0882 -0.1499
12610W        W30814  14.509   9.485   3.345  0.1588 -0.1922  0.2104
12611W        W30815   2.443  12.229   3.366 -0.3108 -0.1501 -0.0800
12612W        W30816  12.285  17.365  13.941  0.4254 -0.0443  0.2199
12613W        W30817  13.173   3.236  12.007 -0.2048 -0.1374 -0.1713
12614W        W30818   0.047   1.063  15.663 -0.1375 -0.1267  0.2006
12615W        W30819   3.828   0.081   2.619  0.0646 -0.0555 -0.1398
12616W        W30820  13.019  13.895  10.841  0.0383 -0.2443  0.0889
12617W        W30821   2.443   9.758   5.073  0.3089 -0.2120  0.1422
12618W        W30822   5.547  15.817  13.863 -0.0926  0.2150  0.2639
12619W        W30823   9.118  11.878   0.841  0.2289  0.0445 -0.1684
12620W        W30824  12.490  12.324   0.269 -0.0103  0.2146  0.2195
12621W        W30825  13.944   3.874  13.729  0.0924  0.0455 -0.1076
12622W        W30826   4.150   9.831   3.108  0.1724  0.0791  0.1296
12623W        W30827   3.833  17.444  12.395 -0.2134 -0.1216  0.2434
12624W        W30828  15.077  12.528   0.736 -0.0412 -0.1786 -0.1542
12625W        W30829   7.664   4.854  16.064  0.1250  0.2613 -0.0451
12626W        W30830   1.695   7.858   0.350  0.0717  0.1266 -0.3185
12627W        W30831   3.180   4.173   1.875 -0.0474  0.0572  0.0141
12628W        W30832  14.770   0.355  15.466 -0.0483  0.1797 -0.1156
12629W        W30833  15.737   9.394   1.844 -0.0306 -0.0113 -0.0915
12630W        W30834   9.305   6.245   4.967  0.1411 -0.0652  0.1153
12631W        W30835   0.501   5.462   2.045 -0.2145 -0.2589  0.2104
12632W        W30836   1.374  10.244   1.647 -0.0675  0.1406 -0.0963
12633W        W30837  10.010   1.090   2.550  0.1124 -0.2476 -0.1270
12634W        W30838  16.318  12.155   4.049 -0.2323  0.1165 -0.0245
12635W        W30839  17.859  17.424   1.155 -0.2890  0.3869  0.1360
12636W        W30840  13.122  13.994   0.426 -0.0245 -0.3527  0.1646
12637W        W30841   2.200  15.436   3.546 -0.1570 -0.1126 -0.0434
12638W        W30842   2.938   5.880   2.466  0.0221  0.3834 -0.1277
12639W        W30843   7.207   3.937  13.564 -0.2602  0.0400  0.2340
12640W        W30844  16.982   8.236   4.003  0.1916  0.1171  0.1711
12641W        W30845   9.010  13.230   1.083  0.1964 -0.1299  0.0958
12642W        W30846  10.051   1.109  16.069 -0.0055 -0.0232  0.0475
12643W        W30847   5.733   8.698  16.077  0.0756 -0.3157  0.0802
12644W        W30848  13.333   5.615  12.279 -0.1366  0.1840  0.2480
12645W        W30849   7.388   5.959   4.676 -0.0972 -0.3389  0.0192
12646W        W30850   2.875   2.844   2.225  0.0672  0.0781 -0.2015
12647W        W30851  13.411   3.436  12.357  0.0910 -0.2038  0.0034
12648W        W30852   0.500   6.131   0.355  0.0103 -0.3032  0.1152
12649W        W30853   5.390   8.514   4.978  0.4153 -0.0541 -0.1188
12650W        W30854  13.574  10.373  14.252 -0.2024  0.2179  0.2658
12651W        W30855   1.066  14.694  14.553  0.0318 -0.0231 -0.3735
12652W        W30856   0.791  10.688  15.342  0.1333 -0.1146  0.2529
12653W        W30857  13.702  17.227   3.635  0.1371 -0.0543  0.3059
12654W        W30858   4.504   1.412  13.239  0.2414  0.0699 -0.2192
12655W        W30859  16.834   3.891  13.520 -0.3438 -0.2016  0.0960
12656W        W30860  10.825  17.659   0.286  0.2133 -0.2011 -0.0954
12657W        W30861  18.009  16.861   1.189  0.1238  0.3016 -0.0327
12658W        W30862   8.059   7.135   4.114 -0.0677 -0.3304 -0.0683
12659W        W30863  16.856   6.296  14.156 -0.0980  0.0758  0.0059
12660W        W30864  10.598   3.045   1.937  0.0071 -0.0928 -0.2575
12661W        W30865  17.604   1.327  11.889 -0.2342 -0.1870 -0.0064
12662W        W30866  10.625   4.276   2.522  0.1418  0.4294  0.1678
12663W        W30867   8.104   5.652   0.116  0.0532  0.1030  0.0739
12664W        W30868   9.647  14.165  15.950  0.0307  0.2059 -0.1240
12665W        W30869  17.340  17.961  15.601 -0.0490  0.0795 -0.1605
12666W        W30870   9.581   9.656  16.110 -0.0794  0.0214  0.0131
12667W        W30871  13.974   6.049   3.784 -0.0358 -0.3176 -0.0119
12668W        W30872  17.449  11.541   1.167  0.0811  0.0753 -0.3899
12669W        W30873  17.991   7.579  12.401 -0.1151 -0.4592 -0.0844
12670W        W30874   9.601  15.912   1.145 -0.1769  0.3622 -0.0032
12671W        W30875   4.192  14.936  13.106  0.1299  0.1822 -0.0031
12672W        W30876   0.710   4.170   4.877  0.2401  0.3644 -0.1550
12673W        W30877   3.923  12.361  14.672 -0.0618 -0.2831  0.0962
12674W        W30878   7.372  10.786   2.983 -0.4562  0.0519 -0.2825
12675W        W30879   9.107  15.096   0.911  0.0322  0.2726 -0.0199
12676W        W30880   8.318  11.590  13.719 -0.2375 -0.0151 -0.0912
12677W        W30881  17.059   5.172   0.863  0.2608  0.2967 -0.0154
12678W        W30882   3.559  12.469  11.155 -0.0571 -0.1636 -0.2881
12679W        W30883  13.558  17.723  11.886  0.3050 -0.0237  0.1457
12680W        W30884   5.452   0.063  11.517 -0.0331 -0.2065 -0.0225
12681W        W30885  15.186   0.891  13.173  0.2627 -0.0198  0.4259
12682W        W30886   1.744  15.329   4.428  0.0583  0.1368 -0.0408
12683W        W30887   8.777  10.936   3.399  0.2278  0.0404 -0.0331
12684W        W30888  13.946  11.240   0.369 -0.0482  0.1627  0.0766
12685W        W30889  13.767  17.725  12.927 -0.1311 -0.1023  0.0346
12686W        W30890   4.907  17.298   3.357  0.3050  0.0357 -0.3501
12687W        W30891   2.465   7.851   4.958 -0.1375  0.1372  0.3385
12688W        W30892   1.522   4.743   2.734 -0.1984 -0.0772  0.2669
12689W        W30893   5.286   3.932   1.627  0.2084  0.0157 -0.0225
12690W        W30894   5.783  14.865   0.903 -0.0820 -0.0540  0.0711
12691W        W30895   1.348   5.019   4.037 -0.0687 -0.0137 -0.0543
12692W        W30896  11.423   0.127   4.602 -0.0946  0.2099 -0.0829
12693W        W30897  15.194   6.119   5.133  0.0205 -0.0599  0.1985
12694W        W30898  14.852   0.281  16.043  0.2001 -0.0671 -0.1405
12695W        W30899   7.412   9.563   0.336 -0.0088  0.0093  0.3268
12696W        W30900  14.428   7.693  13.796 -0.1215 -0.1752 -0.0146
12697W        W30901   4.703   4.030  10.606 -0.1538 -0.1364 -0.1843
12698W        W30902  15.098  13.363   4.559 -0.1903 -0.0699  0.1026
12699W        W30903   9.234  11.924  15.194 -0.0839  0.0357  0.1248
12700W        W30904  10.197   3.761   4.663 -0.0577 -0.0067  0.1095
12701W        W30905  16.374  11.817  11.776 -0.0693 -0.0909  0.2295
12702W        W30906  11.715   1.380  11.763  0.1379 -0.0016  0.1211
12703W        W30907   9.412  14.012   1.661 -0.0666  0.1444 -0.3483
12704W        W30908   0.156   7.776   6.450  0.1654  0.0198  0.2950
12705W        W30909   4.467   2.328   1.370  0.3353  0.1453 -0.1157
12706W        W30910   8.417   2.542   5.576 -0.0451  0.0711  0.0334
12707W        W30911   9.319  15.164  10.738 -0.1529 -0.0182 -0.1528
12708W        W30912   8.976  14.624   1.552  0.4545  0.1154 -0.0067
12709W        W30913   9.102   3.614   3.477 -0.3145 -0.2141  0.1331
12710W        W30914   1.239   6.959  15.811  0.1401 -0.2817  0.1875
12711W        W30915   9.341   2.654  14.897  0.1490  0.0439 -0.2461
12712W        W30916  12.495   2.837   0.747  0.0637  0.0234  0.0514
12713W        W30917  14.801  10.030   3.757  0.0882  0.1799  0.0613
12714W        W30918  11.299   5.904  12.265  0.0345  0.2283 -0.2662
12715W        W30919  14.875  10.689  11.324  0.3110  0.1484 -0.1921
12716W        W30920   0.693  13.788  11.665 -0.2504  0.2021 -0.3178
12717W        W30921  13.216   7.627   1.750 -0.1124 -0.3654 -0.0165
12718W        W30922  15.643   8.191   3.599  0.1214  0.3468 -0.1325
12719W        W30923   1.092   7.646   1.232 -0.2433  0.1181 -0.2635
12720W        W30924   6.189  10.054   2.113 -0.0453 -0.1692  0.1546
12721W        W30925  17.932   2.889  15.427  0.2312  0.0733 -0.0216
12722W        W30926   9.267  12.260  14.732  0.0381  0.1151 -0.2063
12723W        W30927   7.190   3.926  15.783 -0.0883  0.1493 -0.0604
12724W        W30928  13.363  14.011   3.957 -0.3796 -0.0215  0.0687
12725W        W30929  12.753  13.220   0.580 -0.3554  0.0202  0.2533
12726W        W30930  12.190  11.346   3.995  0.0644  0.0709 -0.3397
12727W        W30931   7.422  11.728  12.588 -0.0600 -0.3505 -0.0920
12728W        W30932  12.212   2.990  16.128  0.3244 -0.0312  0.1356
12729W        W30933  15.526   9.326  15.041 -0.0759  0.2282 -0.0638
12730W        W30934   0.905   0.274  14.337  0.3524  0.0461  0.2736
12731W        W30935  16.212  12.085   1.402  0.0541 -0.0590  0.1372
12732W        W30936  13.723  16.568   1.793 -0.2582  0.2274 -0.3011
12733W        W30937  12.406  13.418   1.467  0.1949  0.0261 -0.0158
12734W        W30938   0.012   2.354  15.157  0.0324 -0.0931 -0.2382
12735W        W30939   3.536   5.162   2.304  0.0625 -0.0579  0.0392
12736W        W30940  17.586  10.370   2.797  0.2662 -0.0381  0.1252
12737W        W30941  17.111   4.533   2.460 -0.2473 -0.0046 -0.0114
12738W        W30942   7.162  13.050   5.181 -0.0441 -0.2015  0.0708
12739W        W30943   0.620   2.421   2.013 -0.0085  0.3358 -0.1066
12740W        W30944  11.468  11.650   3.344 -0.0868 -0.1994  0.0620
12741W        W30945   0.824  16.292   0.580  0.0088 -0.3229  0.0152
12742W        W30946  11.183  10.923   4.157 -0.3412 -0.0251  0.0788
12743W        W30947  14.196  10.520  13.965 -0.2615  0.0148 -0.2726
12744W        W30948   8.129  11.191   0.039 -0.0944 -0.1174  0.1077
12745W        W30949  14.364   8.139   3.349 -0.1337  0.3156 -0.2835
12746W        W30950  14.378  13.784   3.627  0.0883  0.2727  0.1241
12747W        W30951   6.786  16.116   4.366 -0.2463 -0.2242 -0.0007
12748W        W30952  14.172  13.777  15.287 -0.2853 -0.0891  0.2243
12749W        W30953   3.812   1.009   5.000 -0.1255 -0.2684  0.3382
12750W        W30954   1.181  14.873   0.993  0.1381 -0.0605 -0.1818
12751W        W30955  14.010  12.043   4.743  0.1259 -0.0325  0.3479
12752W        W30956   6.618   0.733  16.157 -0.2433 -0.0001  0.1738
12753W        W30957   8.791  14.159  13.596  0.3471  0.4048 -0.0500
12754W        W30958  12.002  10.645  14.694 -0.2393  0.1203 -0.0719
12755W        W30959  11.358   4.705  13.202 -0.2400  0.1597 -0.2854
12756W        W30960  17.827   3.675   0.572  0.0346 -0.1361 -0.0396
12757W        W30961  10.363  14.552  14.079  0.0638 -0.1918  0.3319
12758W        W30962   7.673   0.240   1.623 -0.0144  0.1761 -0.3400
12759W        W30963  10.230   2.977   5.518  0.0345 -0.0689  0.0478
12760W        W30964  11.232  17.257   1.762  0.1832 -0.1332  0.0535
12761W        W30965   0.599   6.518  16.075 -0.2294  0.1144  0.1428
12762W        W30966  10.345   3.967  12.523  0.1221  0.1216  0.4594
12763W        W30967   3.528  11.100   4.718  0.1447 -0.1121  0.0997
12764W        W30968   8.334  17.899   4.588 -0.1820 -0.1172  0.1745
12765W        W30969   6.014   4.176  11.252  0.1074 -0.0681  0.0266
12766W        W30970   8.251   1.550  10.197  0.0478  0.0320  0.0555
12767W        W30971   0.222   1.276   4.771 -0.1597  0.3761  0.0350
12768W        W30972   6.044  16.684  11.735  0.1275 -0.1865 -0.2835
12769W        W30973   9.386   9.462   1.745 -0.1026  0.1083 -0.1366
12770W        W30974   1.888   9.753   1.966 -0.2583 -0.0726 -0.0776
12771W        W30975   0.439   4.300   0.787 -0.0512  0.3637  0.1449
12772W        W30976   6.819  15.317  14.667  0.0069 -0.0668 -0.0793
12773W        W30977   2.179   9.107   4.655  0.2288  0.1291  0.0074
12774W        W30978  16.041  14.417  12.904 -0.3010  0.0508 -0.2640
12775W        W30979  13.242  16.852   0.305  0.0697 -0.3234 -0.0525
12776W        W30980  16.933   6.821   4.698 -0.1285  0.1924  0.1424
12777W        W30981  11.543   4.131  11.691  0.0904 -0.0709 -0.1638
12778W        W30982   2.387   4.693  13.532 -0.0107  0.1487 -0.1752
12779W        W30983   2.462  11.945   0.408 -0.2011  0.0995  0.0987
12780W        W30984  17.057  10.909  14.924  0.3176 -0.0361  0.0727
12781W        W30985   8.042  10.041   6.048  0.1207 -0.1683  0.0702
12782W        W30986   5.585   8.886   0.985  0.3484  0.1127  0.0778
12783W        W30987   9.251   9.933   1.830 -0.0833  0.0253 -0.1823
12784W        W30988   4.686  16.504   5.865  0.0363 -0.1784 -0.2657
12785W        W30989  16.905   9.072  15.232  0.3770  0.2806  0.1101
12786W        W30990  16.171   4.517   1.209  0.0764  0.0241 -0.1738
12787W        W30991   9.056  13.575  11.475 -0.0790 -0.0080  0.2046
12788W        W30992   4.691   8.888   4.554  0.2907  0.3305  0.3252
12789W        W30993   2.064  12.313  14.475 -0.1156 -0.0060 -0.1061
12790W        W30994   7.174   6.362  13.709 -0.1055  0.0655 -0.0668
12791W        W30995  17.946  14.885  14.020 -0.0432 -0.0677 -0.0857
12792W        W30996   6.567   4.157  11.805 -0.0379  0.1279  0.1123
12793W        W30997   3.680   1.645  14.835 -0.1780 -0.0497 -0.0604
12794W        W30998   5.559   7.654   1.262  0.0325 -0.0185  0.0345
12795W        W30999  11.916   6.480   0.465  0.1688 -0.0075  0.1189
12796W        W31000  13.119   6.921   2.881 -0.0043  0.0312  0.0024
12797W        W31001   3.524   5.254  15.300  0.0186  0.2883  0.0727
12798W        W31002  12.443  16.328   4.673 -0.0420  0.1033  0.4512
12799W        W31003  16.127   0.685   1.792 -0.0432  0.4691 -0.1351
12800W        W31004   7.571   5.200  13.576  0.0521  0.1476 -0.0163
12801W        W31005   0.329   6.058  16.055 -0.0799 -0.2099 -0.2285
12802W        W31006   4.992  10.564   4.398  0.0036 -0.2587 -0.5019
12803W        W31007  13.746   3.432  14.584  0.3410  0.4079  0.2597
12804W        W31008   2.232   0.816  11.109  0.0423 -0.1242 -0.1160
12805W        W31009   8.567   0.112   4.214 -0.3077 -0.0515 -0.0754
12806W        W31010  10.605  16.851  13.166  0.1488 -0.1300  0.2340
12807W        W31011  11.803   0.049  15.222  0.3198 -0.2444 -0.1220
12808W        W31012  12.800   3.512   1.403 -0.2713  0.2237 -0.0287
12809W        W31013  11.007   9.320   2.077 -0.1536 -0.0200 -0.1492
12810W        W31014  11.779  16.863  14.604  0.0604  0.1004 -0.0352
12811W        W31015   8.450   3.470  13.924  0.0682 -0.0306 -0.0594
12812W        W31016  14.309  16.338   4.575  0.1920 -0.1238 -0.0593
12813W        W31017  10.625  14.260   2.983 -0.0234 -0.0334 -0.0775
12814W        W31018  16.079   5.073   1.870 -0.1448  0.2325  0.1936
12815W        W31019   4.286   1.653  11.365  0.1769  0.0012  0.1896
12816W        W31020   1.889   0.157  10.941 -0.0139 -0.0274 -0.0869
12817W        W31021  11.493  12.844   5.265 -0.0892 -0.1923  0.0696
12818W        W31022   4.789  11.788  14.975 -0.0424 -0.3998 -0.0024
12819W        W31023  13.024  14.385  13.939  0.0105 -0.0277 -0.0101
12820W        W31024   4.127  15.185   0.993 -0.1218  0.3479 -0.0811
12821W        W31025   2.765  14.504   2.100 -0.0086  0.1128  0.1937
12822W        W31026   0.029  10.523  16.025 -0.0834  0.3542  0.1544
12823W        W31027  17.016  14.889  12.660 -0.1458 -0.2116  0.0867
12824W        W31028   8.251   3.936  16.014 -0.1061  0.0983 -0.1084
12825W        W31029   0.362  17.156  13.437 -0.0845  0.0622 -0.0142
12826W        W31030   9.782  17.623   3.219  0.1494 -0.1531  0.1169
12827W        W31031   8.436  11.465   4.534  0.1480 -0.0752 -0.2099
12828W        W31032  13.845   9.159  15.213 -0.0471 -0.2201  0.0971
12829W        W31033  13.148   9.457  14.103  0.1081 -0.0060 -0.2553
12830W        W31034   6.767   8.482   0.423 -0.3537  0.0591 -0.1526
12831W        W31035  10.963   0.229   3.678 -0.2610  0.3307 -0.0129
12832W        W31036   1.964  13.042  13.181  0.1490 -0.0166 -0.2052
12833W        W31037   1.103   0.996  11.717  0.0904  0.1902  0.3605
12834W        W31038  14.639   2.650  12.387  0.1376 -0.2511 -0.0568
12835W        W31039  16.342  16.563  10.816  0.1718 -0.0832 -0.2364
12836W        W31040   8.510  17.293  12.092  0.0562 -0.1324 -0.1870
12837W        W31041   3.524  15.734   4.506 -0.0253 -0.0118 -0.2573
12838W        W31042   0.695   4.574  15.028  0.1950 -0.0984 -0.1319
12839W        W31043   2.732  17.662  11.606 -0.2496 -0.3968 -0.2726
12840W        W31044  12.471   7.945  14.651 -0.2620 -0.0906  0.0390
12841W        W31045  17.565   2.032   3.461 -0.0589  0.3430 -0.0907
12842W        W31046   1.185  16.972  14.078  0.0495 -0.1381  0.1750
12843W        W31047  16.447  12.891   2.642 -0.1159 -0.1620 -0.1718
12844W        W31048  10.024   3.387  11.087  0.1594 -0.0186  0.0755
12845W        W31049  10.320   7.378  12.517 -0.2265 -0.2181 -0.0310
12846W        W31050  13.169   0.534  15.235 -0.0440  0.0371  0.0351
12847W        W31051   6.015   8.472  12.851 -0.1947 -0.0850 -0.1037
12848W        W31052  11.884   6.202  12.249  0.5007 -0.0131  0.4096
12849W        W31053  15.266   5.400  12.330  0.1055 -0.1903  0.0200
12850W        W31054  16.871   5.336   2.989  0.2078  0.2336  0.0488
12851W        W31055   0.862  14.378   4.690 -0.2570 -0.0175  0.0123
12852W        W31056   7.138  13.064   0.690  0.1310 -0.1193 -0.3637
12853W        W31057  10.565   3.777   3.816 -0.2701  0.1133  0.1191
12854W        W31058  16.238   5.895  13.592 -0.2634 -0.1919 -0.0257
12855W        W31059   5.496   0.515  12.644 -0.0503  0.1022 -0.0863
12856W        W31060  17.510  17.665   3.232 -0.1173  0.0331 -0.1395
12857W        W31061   7.474  16.840   5.033 -0.1135  0.1481  0.0784
12858W        W31062   4.693  12.119   2.305  0.2373  0.2242 -0.1442
12859W        W31063  15.073  14.489   0.828 -0.0964  0.0124  0.0168
12860W        W31064  15.660  10.524  12.865 -0.0311  0.0206  0.0780
12861W        W31065   0.130  14.269   1.526  0.3343  0.0260  0.1837
12862W        W31066   0.352  16.417   2.344  0.0237  0.0064  0.2089
12863W        W31067  12.188   4.898  11.483  0.0262  0.5191 -0.3729
12864W        W31068  16.506  15.187   2.535  0.1783 -0.1010 -0.1807
12865W        W31069   4.135   0.908   3.515 -0.1230  0.1645 -0.1347
12866W        W31070  15.437   9.643  12.663  0.0635  0.0587  0.3119
12867W        W31071   2.759   7.455  11.624 -0.1469 -0.0510 -0.0131
12868W        W31072   8.551  15.433  11.565 -0.0199 -0.2592 -0.0497
12869W        W31073   3.974   2.212  15.371  0.0039  0.1083 -0.2028
12870W        W31074  16.217   9.525   2.072 -0.1130  0.1113 -0.0160
12871W        W31075   8.282  11.853  11.076  0.3600  0.1296 -0.0108
12872W        W31076  16.992  14.231   2.367  0.0973 -0.2274  0.3503
12873W        W31077   9.960   9.611  14.639  0.1787 -0.0339 -0.1576
12874W        W31078   6.434  12.320   2.810  0.1874  0.0681 -0.0603
12875W        W31079   4.455  12.394  12.472  0.1264  0.1814  0.0817
12876W        W31080   0.009   3.929  12.374 -0.1196 -0.1169 -0.0401
12877W        W31081   4.031  11.180   3.712  0.3165  0.1013 -0.3114
12878W        W31082   5.008   7.714  11.753  0.3733 -0.0881  0.1233
12879W        W31083   6.031   8.667   1.158 -0.3550  0.2659  0.2914
12880W        W31084   4.902   3.646   1.364 -0.0816  0.2513  0.0522
12881W        W31085   0.974  10.535   0.054 -0.3178 -0.0692  0.0017
12882W        W31086  14.231   8.520  15.753 -0.2472 -0.1029 -0.1326
12883W        W31087  15.132   9.745   1.596  0.1161 -0.2026  0.5124
12884W        W31088   7.406  15.948  15.843  0.0862  0.3727 -0.2090
12885W        W31089   2.100   5.447   4.293 -0.0842 -0.3499 -0.2063
12886W        W31090   9.375  12.258   1.745 -0.1017  0.2564  0.1077
12887W        W31091   2.006   6.256  11.551 -0.0762 -0.2358  0.2970
12888W        W31092  17.037   7.360   2.617  0.3464 -0.2505 -0.2287
12889W        W31093  12.313  10.573   2.990  0.1437 -0.0033 -0.0279
12890W        W31094  15.332   1.801   3.542  0.0665 -0.0338  0.2477
12891W        W31095  14.178   1.752  12.788  0.3253  0.0039  0.1829
12892W        W31096   1.826  18.027  13.483 -0.1064 -0.1651  0.1883
12893W        W31097  11.058  15.294  11.154 -0.0081 -0.1154 -0.0730
12894W        W31098   0.153   7.363  13.584 -0.0058  0.1330  0.2137
12895W        W31099   5.228   6.595  14.062 -0.0849 -0.0010  0.0359
12896W        W31100   0.681  17.604  13.696  0.1219  0.0610 -0.0855
12897W        W31101  10.439  12.738   2.887 -0.2813  0.0372 -0.1051
12898W        W31102  11.330  11.548  15.656 -0.1797 -0.0605  0.0380
12899W        W31103  10.789  10.825  14.384 -0.2637 -0.4793 -0.1452
12900W        W31104   9.630   2.840  14.523 -0.1882  0.1294  0.0482
12901W        W31105   0.009   4.425   1.749  0.1030  0.1938 -0.4212
12902W        W31106   3.584   6.886  13.428  0.2963  0.0686 -0.3290
12903W        W31107  16.467   2.425  13.954 -0.0494  0.0255 -0.0964
12904W        W31108  14.665  13.034   4.202  0.0505 -0.2299 -0.0129
12905W        W31109   1.158  14.171  12.907  0.0785  0.2058  0.0880
12906W        W31110  16.143  10.213  12.388 -0.2492  0.2967 -0.0797
12907W        W31111   0.398  14.936  14.859  0.1624  0.1996  0.1325
12908W        W31112  13.803   2.990  11.279 -0.1461 -0.0127  0.1638
12909W        W31113  16.804  15.237  15.942  0.0918  0.1799  0.0088
12910W        W31114  15.493  11.128   3.864 -0.0892 -0.0812  0.0658
12911W        W31115   0.364  10.327  12.686  0.1997 -0.2900  0.1372
12912W        W31116   7.555   6.872   2.269 -0.0167 -0.1793 -0.1436
12913W        W31117  17.803  13.956  12.769  0.1256  0.1347  0.0690
12914W        W31118  13.148  14.917   2.441  0.0569  0.1561 -0.4474
12915W        W31119   8.985   4.265  11.590 -0.2934 -0.2913  0.2402
12916W        W31120  10.555   9.597   4.511 -0.1590  0.3118  0.3138
12917W        W31121  11.932   9.532  13.952  0.0971 -0.1639 -0.1545
12918W        W31122   0.195  16.125   3.149 -0.1581 -0.1252  0.1744
12919W        W31123  10.719   9.346  12.710  0.0678 -0.2448  0.2467
12920W        W31124   4.104   9.363  15.288 -0.0493  0.2819 -0.0830
12921W        W31125   7.606  11.993  12.163 -0.1926  0.0350  0.0452
12922W        W31126  14.640   8.084  15.260 -0.3427 -0.0538 -0.1295
12923W        W31127   5.252   3.992   1.103 -0.0065  0.1707 -0.0015
12924W        W31128   6.956   9.550   3.587  0.0169 -0.0704 -0.1543
12925W        W31129   7.841  14.142   3.682  0.1285 -0.0424  0.1515
12926W        W31130  14.517   3.955  11.479  0.1035  0.0589 -0.1162
12927W        W31131   0.058   1.572  11.292  0.0822  0.1103 -0.1243
12928W        W31132  16.960   5.411   5.313  0.0329 -0.0520  0.2190
12929W        W31133  15.099  12.614   2.042  0.1953  0.0419  0.1801
12930W        W31134  10.036   2.659  13.185  0.2222  0.1662  0.3007
12931W        W31135  11.827  13.126   3.270 -0.2084  0.0494  0.0560
12932W        W31136   4.814   4.192   0.424 -0.2750 -0.1972 -0.0218
12933W        W31137  15.549  10.501  15.979  0.2423  0.1162  0.5179
12934W        W31138   8.947  17.583  12.146 -0.0732 -0.3702 -0.2766
12935W        W31139  12.325   7.313   3.316  0.3449 -0.1312 -0.1828
12936W        W31140   9.956   5.673   3.112  0.3182 -0.1440  0.2521
12937W        W31141   7.391  17.991  14.764  0.2198  0.1002 -0.1756
12938W        W31142   0.641  10.863   4.810 -0.2381 -0.1168 -0.1213
12939W        W31143   9.070   2.664   3.548 -0.0075  0.3069  0.2071
12940W        W31144   9.913   7.895   1.596  0.1585 -0.1871 -0.0996
12941W        W31145   8.454   5.753  15.640 -0.0677  0.0908  0.1690
12942W        W31146  13.846  15.190  11.392  0.2128 -0.0264 -0.0104
12943W        W31147   7.576   8.344   4.131 -0.2373 -0.1372  0.0984
12944W        W31148   5.787  12.155   2.060 -0.2244 -0.0075  0.0590
12945W        W31149  12.618  11.082   4.296 -0.0556 -0.1159  0.3169
12946W        W31150   0.299   6.208   1.330  0.1894  0.1359 -0.2466
12947W        W31151   0.705   0.242   1.114 -0.0960  0.2399 -0.2491
12948W        W31152   6.058   9.338  14.687  0.1281  0.0798  0.1881
12949W        W31153  15.772   5.843   1.078 -0.3505 -0.2417  0.0175
12950W        W31154  17.860  15.308  11.647 -0.1017  0.0167  0.2279
12951W        W31155   6.694   9.750   2.242  0.1002 -0.0954  0.2421
12952W        W31156  14.456   2.035  11.433 -0.0697  0.1430 -0.2096
12953W        W31157   8.604   8.110   5.078 -0.0662  0.0348 -0.0051
12954W        W31158   9.492   8.366   4.207 -0.0375 -0.1668  0.1316
12955W        W31159   2.274  11.841  12.838 -0.3936 -0.2405  0.0453
12956W        W31160   3.921   0.678  11.696 -0.0384 -0.0550 -0.0343
12957W        W31161  13.687  15.571  13.605 -0.0932  0.0541 -0.4046
12958W        W31162   1.195  17.412   3.592 -0.2449  0.1072 -0.1162
12959W        W31163   5.489  15.080  14.463 -0.3734  0.2804 -0.0779
12960W        W31164  12.565  14.377  15.558 -0.1107 -0.1653 -0.1888
12961W        W31165  13.255   9.374   4.389 -0.2302  0.1092 -0.0303
12962W        W31166   0.634   9.934   1.561 -0.0730  0.1423  0.1235
12963W        W31167  16.501   1.485   4.488  0.1232  0.0639  0.0130
12964W        W31168   9.489  17.309   0.704  0.1519 -0.2013  0.1163
12965W        W31169  16.152   4.136  14.633  0.0902  0.0840 -0.2203
12966W        W31170   6.907   6.490   5.602 -0.0514 -0.0061 -0.0036
12967W        W31171   1.506   7.974  15.508  0.2636  0.2271 -0.0990
12968W        W31172  14.141   2.062  13.515  0.0008  0.0633 -0.1589
12969W        W31173  12.160   2.417   1.597 -0.0517 -0.1364  0.0787
12970W        W31174   8.221   3.362  13.482  0.2380  0.0427  0.0654
12971W        W31175  11.714   6.563  12.638  0.1842  0.1035  0.1464
12972W        W31176   4.362  18.002   3.153 -0.2520 -0.3045 -0.1123
12973W        W31177  17.739   9.766   3.759 -0.0646  0.2969  0.1296
12974W        W31178   3.274   9.205   3.645 -0.0065 -0.0771 -0.0932
12975W        W31179   4.451   2.144   3.599  0.0266  0.1901 -0.2137
12976W        W31180   7.758  15.336  12.068  0.0064 -0.2817  0.1437
12977W        W31181  10.042   0.384  16.096  0.0581 -0.2845  0.0471
12978W        W31182  10.454  15.254   4.815 -0.1221  0.3121 -0.1391
12979W        W31183  16.492  13.637  11.714  0.0777 -0.2202  0.1549
12980W        W31184   3.881  12.573   3.615  0.1209 -0.2084  0.0261
12981W        W31185  10.249   0.735  14.163 -0.0797 -0.2148 -0.0790
12982W        W31186   9.413   6.138  15.071 -0.0341 -0.2398 -0.1985
12983W        W31187  14.591  11.536  13.647  0.0673  0.3976 -0.2451
12984W        W31188  14.266   9.265   2.127 -0.0643  0.2678  0.0461
12985W        W31189  14.519   1.424  12.897 -0.1878 -0.0179 -0.2324
12986W        W31190   6.421   0.819  13.361  0.1550  0.2469  0.0034
12987W        W31191   1.442  14.055  14.378  0.1125 -0.0381 -0.0910
12988W        W31192  14.236   1.475  12.326  0.1750 -0.0220  0.0249
12989W        W31193   8.972  16.537  14.974  0.0142 -0.0130  0.3888
12990W        W31194   2.312   5.818   3.165  0.1484  0.2248 -0.1045
12991W        W31195   0.130  13.254  12.791  0.0881  0.0155 -0.0606
12992W        W31196  13.488   0.108   5.475  0.0406 -0.0900 -0.2681
12993W        W31197   8.455  16.114  13.919  0.2403  0.0922 -0.3125
12994W        W31198   7.129  10.288  12.469 -0.2546 -0.1910  0.0029
12995W        W31199   7.712  17.860   1.860  0.1799 -0.3368  0.3025
12996W        W31200  14.043   3.735  11.703  0.2973  0.1875  0.0389
12997W        W31201   4.844  14.839   1.394  0.0182  0.0281  0.2325
12998W        W31202   0.534   9.905   3.869  0.2703 -0.2019  0.1909
12999W        W31203   9.624   3.033  15.391 -0.3170  0.2493  0.0006
13000W        W31204  12.682  16.050  15.373 -0.0791 -0.0902  0.1506
13001W        W31205  15.549   3.634   2.767  0.2393 -0.1539  0.3141
13002W        W31206   5.937   1.736   4.524  0.2963 -0.0840 -0.2215
13003W        W31207   1.110   2.086   1.053  0.2091  0.1012 -0.0367
13004W        W31208   8.032  10.502  12.303  0.2778  0.1037  0.1536
13005W        W31209  17.434   2.312  13.860 -0.0982  0.2576 -0.0508
13006W        W31210  10.697   1.568   0.973 -0.1432  0.0987 -0.0141
13007W        W31211  17.932  16.416  13.110  0.2476 -0.0333 -0.0747
13008W        W31212  11.975   0.325  13.894 -0.0912  0.0465  0.0072
13009W        W31213   2.516   6.960  14.378 -0.0418 -0.0008  0.1355
13010W        W31214   9.262  11.671  14.756 -0.2283  0.0082 -0.0219
13011W        W31215   3.736  14.519   3.904  0.2115  0.3101 -0.1311
13012W        W31216   0.724  14.347  13.850 -0.3642 -0.0539  0.1581
13013W        W31217  10.886   3.103  13.811  0.1187 -0.1570  0.1256
13014W        W31218   5.342  12.708  15.602 -0.1061 -0.2152  0.2007
13015W        W31219   2.078  16.549   1.340 -0.1254 -0.0539 -0.0995
13016W        W31220  10.099   4.166   1.246  0.1218  0.1942 -0.3900
13017W        W31221   6.823   6.154   2.530 -0.1445  0.1009  0.2388
13018W        W31222  14.156   3.660  14.319 -0.0569 -0.0406  0.0306
13019W        W31223  10.885   1.271  12.169  0.0428  0.0636  0.4804
13020W        W31224   8.657   5.785   0.128  0.3024 -0.2341  0.1566
13021W        W31225   8.987  14.598  15.314 -0.0928 -0.1944  0.1033
13022W        W31226   5.691   2.222  11.910 -0.1210 -0.5137  0.0501
13023W        W31227   5.431   0.112  15.890  0.1313  0.1000  0.1776
13024W        W31228  12.684   2.368   0.944 -0.0852  0.0091 -0.1642
13025W        W31229   3.164   4.236  14.790  0.0115  0.3651  0.0269
13026W        W31230  16.513   8.835   1.770  0.0550 -0.0761 -0.1228
13027W        W31231   1.848   5.098   2.930 -0.0376  0.1776 -0.2513
13028W        W31232   2.439   1.160   3.356 -0.1070 -0.4701  0.1614
13029W        W31233  16.425   4.497  12.716  0.0707  0.1813 -0.1115
13030W        W31234   4.741   2.488  15.688 -0.2451 -0.0737 -0.2406
13031W        W31235   0.019  17.272   2.646 -0.0697  0.0736  0.2914
13032W        W31236  16.352   2.554   0.764 -0.0843 -0.0191  0.1027
13033W        W31237  14.565  17.035   3.907 -0.0850  0.0373  0.0644
13034W        W31238  10.929   5.587  15.203 -0.0802  0.1247 -0.1846
13035W        W31239  13.019   4.729   1.438 -0.0475  0.3155 -0.2379
13036W        W31240   6.532  10.136   0.594 -0.0289 -0.2798 -0.4279
13037W        W31241  13.978   8.498  14.683 -0.0136  0.0664 -0.0653
13038W        W31242   9.044  10.080   2.332 -0.1009  0.2894  0.2893
13039W        W31243   9.609   8.007  13.116 -0.0150 -0.1502 -0.2790
13040W        W31244   0.552   3.384  11.478 -0.0767 -0.0578 -0.0440
13041W        W31245   1.515   5.089  12.656  0.1990  0.0473  0.0724
13042W        W31246  13.061   5.571   3.818  0.0598  0.3150  0.0995
13043W        W31247  14.998   5.180   1.536  0.2056  0.2014 -0.2877
13044W        W31248  10.762   2.464  13.933 -0.0867  0.2640  0.0831
13045W        W31249   6.123  12.781   2.965  0.0335 -0.2309 -0.0914
13046W        W31250   5.413  14.151  11.284  0.0452 -0.3351  0.0237
13047W        W31251   1.744   4.512  12.020 -0.1358 -0.0675 -0.1294
13048W        W31252  16.841   0.530  15.107 -0.0367 -0.1294  0.2426
13049W        W31253  13.531  15.082  13.595  0.0074 -0.0968  0.0028
13050W        W31254  11.622   5.127   0.519 -0.3828 -0.2577 -0.0416
13051W        W31255   8.386   3.314  12.424 -0.0054 -0.0593 -0.1337
13052W        W31256   7.625  15.999   0.116  0.2999 -0.3240  0.0606
13053W        W31257  13.886   4.030   0.976  0.0368  0.0309  0.3009
13054W        W31258  15.227   2.118  13.100  0.2438 -0.1059  0.1182
13055W        W31259   2.837  18.034   0.228 -0.2715 -0.3398 -0.1726
13056W        W31260   3.886   6.738   3.994 -0.2733 -0.2960 -0.2800
13057W        W31261   5.469  17.878  13.811 -0.0499  0.1805 -0.1436
13058W        W31262   2.234   8.602   2.763  0.0241 -0.0080 -0.1435
13059W        W31263   0.537   6.839   3.408  0.4972  0.1036 -0.1445
13060W        W31264   9.498  15.863  12.439 -0.4043  0.1487  0.1148
13061W        W31265   3.871  17.871  12.639  0.0072 -0.1012  0.2541
13062W        W31266   7.145   0.450  12.182  0.0251  0.0487 -0.1193
13063W        W31267  10.164  10.970  15.753  0.1044 -0.0746  0.2556
13064W        W31268  13.168   0.343   0.253  0.1410  0.0380  0.1894
13065W        W31269  11.030  15.450  15.773 -0.3172 -0.2082  0.1160
13066W        W31270  10.825  13.265   0.483 -0.0862 -0.5329 -0.2720
13067W        W31271  14.743  13.138  15.621 -0.1366  0.1687 -0.0966
13068W        W31272   6.967  11.282   1.649 -0.0038  0.1469  0.0534
13069W        W31273  17.090   6.493   2.934  0.0674 -0.0277  0.0643
13070W        W31274   7.245   4.693   4.052  0.2329  0.1540  0.4164
13071W        W31275   5.205   6.791  14.527  0.1915  0.2291 -0.0346
13072W        W31276   6.688   9.937   4.518 -0.2029  0.1917 -0.0605
13073W        W31277   5.064  15.116   0.807  0.0994  0.1499 -0.0114
13074W        W31278   7.586  10.524  13.166  0.0328  0.2588 -0.2789
13075W        W31279  12.575  10.148  14.190  0.1363  0.0064 -0.1319
13076W        W31280   2.121  14.354  12.075  0.0524  0.0357  0.0564
13077W        W31281   7.243   8.247   2.435 -0.0480  0.1152 -0.2409
13078W        W31282  15.304   7.318  12.717  0.0157 -0.0476  0.1240
13079W        W31283   4.458  10.995   2.087  0.1735  0.3455  0.3168
13080W        W31284   4.449   1.063   1.708 -0.2314 -0.0072 -0.0915
13081W        W31285  14.182   0.364  11.779  0.1269  0.1492  0.2122
13082W        W31286  16.926  10.229   1.864 -0.1784 -0.2556  0.2929
13083W        W31287   2.237  14.662  13.316 -0.1950  0.1750  0.0735
13084W        W31288  16.011  14.463   1.027 -0.0445 -0.0362  0.0957
13085W        W31289   6.159   2.101  11.669  0.0153 -0.1965 -0.0896
13086W        W31290  15.740   1.178   1.530  0.1034 -0.2787  0.0481
13087W        W31291   0.071   4.336  12.062 -0.1765 -0.1508  0.0564
13088W        W31292   9.377   2.549   1.570 -0.1501 -0.1828  0.0879
13089W        W31293  17.978   6.738  11.561  0.0528 -0.0382  0.0446
13090W        W31294   2.737  11.456   1.275  0.1273  0.0576  0.2060
13091W        W31295  14.863  16.611  15.929  0.3708 -0.1880  0.0170
13092W        W31296   7.090   9.017   4.251 -0.1646  0.1742 -0.0191
13093W        W31297  12.492   9.591   3.437  0.0995 -0.0068 -0.0703
13094W        W31298  17.212   7.205  10.671 -0.0088 -0.0464  0.1735
13095W        W31299   3.401   7.304   5.068 -0.2180  0.1060  0.0084
13096W        W31300  11.588   1.820   1.710  0.0453 -0.2504 -0.0558
13097W        W31301  17.964   3.452  15.463 -0.1671  0.2894  0.0641
13098W        W31302   4.698   5.186   4.034 -0.0315  0.2826  0.4325
13099W        W31303  11.597   3.195  15.274  0.1323  0.1222 -0.0725
13100W        W31304   1.737  11.367  13.800  0.0799  0.0634 -0.0319
13101W        W31305   8.970  13.320   3.286 -0.0396 -0.1589 -0.0093
13102W        W31306   4.009   5.381  11.654  0.0807 -0.0575  0.1978
13103W        W31307  12.413   0.112   3.756 -0.3809  0.0896  0.0501
13104W        W31308   5.964   2.136  13.546 -0.0317 -0.0719  0.1411
13105W        W31309  16.532  16.076  11.737  0.2783 -0.0546 -0.0850
13106W        W31310   8.257   9.980  13.948  0.0363  0.2283 -0.0617
13107W        W31311   4.837   4.391   2.352 -0.0440 -0.1460 -0.3708
13108W        W31312  16.974   0.510   1.191  0.1726  0.0866 -0.1006
13109W        W31313  10.618  11.876  10.637 -0.0316  0.0058  0.3407
13110W        W31314   3.491  17.549  12.988 -0.0094 -0.1615 -0.0875
13111W        W31315   2.800   4.866   2.945  0.2651  0.1126  0.1699
13112W        W31316  16.471  11.778   3.762  0.1031  0.1486 -0.2246
13113W        W31317  14.026   1.993   1.278 -0.0074 -0.2111  0.0841
13114W        W31318  13.824   2.365  14.908 -0.1955  0.1423 -0.1255
13115W        W31319  10.470   6.144  12.647 -0.0473  0.3019  0.1078
13116W        W31320  11.708   0.998  12.763 -0.0456  0.1643  0.2213
13117W        W31321  14.634   2.491   0.318 -0.1998 -0.1555 -0.0711
13118W        W31322  13.141   3.054   2.525 -0.2328  0.1166 -0.1041
13119W        W31323   0.583   7.521   4.860  0.3269  0.1133  0.0322
13120W        W31324  17.749  11.912   1.938  0.1630  0.1450 -0.0313
13121W        W31325   6.645  12.472  11.276 -0.1196 -0.2323 -0.3161
13122W        W31326  15.550  14.466  10.437 -0.2478 -0.1299  0.0160
13123W        W31327   3.309   2.424  15.510  0.0826 -0.0792  0.0237
13124W        W31328  10.174  11.299  13.174  0.1817  0.0618 -0.0506
13125W        W31329   1.909   4.517   0.879 -0.0392 -0.0079 -0.3239
13126W        W31330  17.508  14.444   3.213 -0.1646  0.2933 -0.1199
13127W        W31331  11.255   6.610   1.972  0.0766 -0.1641 -0.0091
13128W        W31332  16.731   6.815  15.767  0.1283 -0.2035 -0.1197
13129W        W31333   4.234  17.580  12.010  0.1321 -0.1863  0.1335
13130W        W31334  14.238   1.476   1.187 -0.0246 -0.0480 -0.0254
13131W        W31335  16.808   7.684   5.187  0.0334 -0.2452  0.2277
13132W        W31336   8.234  17.935   3.228 -0.1759  0.1282  0.1370
13133W        W31337   3.050   7.133  13.476  0.0805 -0.0181 -0.0959
13134W        W31338   1.866  13.256   0.248 -0.2066 -0.0096 -0.0767
13135W        W31339   4.112   9.694   4.650 -0.2037  0.0264 -0.1621
13136W        W31340   9.271   8.645   3.299  0.0453  0.1417 -0.0501
13137W        W31341   5.159   0.457  15.068  0.1487 -0.0475 -0.0897
13138W        W31342  15.911  10.664  12.435  0.0000  0.2468  0.1051
13139W        W31343  15.206  11.348   5.403 -0.1275  0.3405 -0.0831
13140W        W31344  11.094   8.444   2.025  0.0131  0.1762  0.0040
13141W        W31345   7.516   1.011  15.325  0.1343  0.3037 -0.1717
13142W        W31346  12.102   6.982  10.860  0.1232  0.0878 -0.1072
13143W        W31347  16.434   6.214  11.954  0.0619  0.1610 -0.3345
13144W        W31348   6.461   7.474  15.191  0.4534  0.0796 -0.0567
13145W        W31349   0.210  16.692  10.374 -0.0237 -0.0267 -0.1573
13146W        W31350  13.513   6.883  12.590 -0.0402  0.0396 -0.0835
13147W        W31351   6.825  12.318   3.547  0.0129  0.0191 -0.0617
13148W        W31352  11.569  12.363  13.656 -0.2453  0.2070 -0.1971
13149W        W31353   9.576  15.651   4.701  0.1294 -0.0818  0.0376
13150W        W31354   5.368  13.239   2.772 -0.1503 -0.3437  0.2312
13151W        W31355  13.607  11.960  14.794  0.0469 -0.0587  0.1076
13152W        W31356   8.443   2.274  13.131 -0.3836 -0.0767 -0.1656
13153W        W31357  10.305  16.694  15.793 -0.1409  0.0040 -0.0047
13154W        W31358   8.118   0.902  15.095  0.0962 -0.1569 -0.2363
13155W        W31359   0.024   5.755   2.111 -0.1197  0.3332  0.0741
13156W        W31360   5.110  16.511  13.061 -0.3181 -0.0285  0.0961
13157W        W31361   6.738   8.456   2.155 -0.1978  0.0039 -0.3485
13158W        W31362   2.884   8.092  12.436 -0.0618  0.1587  0.1451
13159W        W31363   7.301  14.343   0.556 -0.1719 -0.2150  0.1638
13160W        W31364   4.151   2.870   0.235  0.1382  0.3116 -0.1225
13161W        W31365   1.662   7.553   3.028  0.0801 -0.0450  0.0334
13162W        W31366   7.593  11.201  13.281 -0.1084 -0.0251  0.2278
13163W        W31367   2.870  16.024  13.240  0.2528  0.0435 -0.2339
13164W        W31368   4.908  14.819   3.709 -0.1909  0.1523 -0.1081
13165W        W31369  15.002  10.713  11.910  0.0590 -0.2140  0.1957
13166W        W31370   3.048  15.681   3.514 -0.0857  0.0719  0.1124
13167W        W31371   6.599  13.180   1.883 -0.0175  0.0883 -0.1671
13168W        W31372   8.183  12.790   0.746 -0.1054  0.3144 -0.1143
13169W        W31373   3.478  10.681  14.320  0.4118  0.0099  0.0487
13170W        W31374  16.365  15.237  15.373  0.4788 -0.3815 -0.0031
13171W        W31375   1.615   0.425   3.986 -0.0629 -0.2384  0.0000
13172W        W31376  14.712  10.195  14.930 -0.2894  0.0113  0.0328
13173W        W31377  17.960   9.325   3.598  0.1138  0.2987 -0.1307
13174W        W31378   9.750  10.187   1.224 -0.0044 -0.1294  0.0031
13175W        W31379   5.375   0.373   0.103  0.2305 -0.0293  0.1353
13176W        W31380   1.587  10.174  15.086  0.3460  0.0993  0.0178
13177W        W31381  13.429   5.198  13.899  0.0090  0.3326 -0.0458
13178W        W31382  13.317  16.943   2.030 -0.0244 -0.0234  0.0768
13179W        W31383   9.855  14.831   0.639  0.1460  0.0873  0.1742
13180W        W31384   9.423  14.501  12.703  0.1935 -0.0500  0.1228
13181W        W31385  16.319  10.493   2.249  0.2524  0.1126 -0.2020
13182W        W31386  14.388  17.436  13.549 -0.0437 -0.0807 -0.1985
13183W        W31387   7.188   3.073   0.056 -0.1803  0.4067 -0.2290
13184W        W31388   4.395   4.724  13.094 -0.2982 -0.1617 -0.1590
13185W        W31389  15.609   6.394   5.084  0.2693  0.0360  0.1265
13186W        W31390   2.833   3.643  13.011 -0.2451 -0.0362  0.1306
13187W        W31391   4.561  16.656  13.088 -0.4345 -0.1017  0.0692
13188W        W31392   4.591   1.896  16.164  0.2218 -0.0642  0.1809
13189W        W31393   7.850  12.063   2.623  0.3369 -0.0207 -0.0589
13190W        W31394   7.436   2.041  14.881  0.4019  0.0682 -0.3353
13191W        W31395   2.678  15.145   1.124  0.3022 -0.1973  0.2093
13192W        W31396   9.003   2.230  15.116 -0.1605 -0.2053  0.0923
13193W        W31397   1.044  13.293  13.075  0.0668 -0.2093  0.0376
13194W        W31398   9.227  10.999  15.604  0.0640 -0.0963  0.2060
13195W        W31399   0.183  14.590   1.944  0.2508  0.0575  0.0885
13196W        W31400   5.526   3.677   4.355  0.2372  0.0624  0.0227
13197W        W31401   0.968   9.705  15.715  0.0555 -0.0966  0.0541
13198W        W31402   6.216  13.166   2.650  0.0234 -0.1983 -0.1762
13199W        W31403  14.019  17.836  13.345 -0.3055  0.0155 -0.1836
13200W        W31404  12.532   5.537   3.808 -0.0920 -0.2074  0.0095
13201W        W31405   9.691   3.395  12.585  0.2100  0.0932 -0.0498
13202W        W31406   8.959   3.958  15.395 -0.1225 -0.1732 -0.3299
13203W        W31407  16.948  15.645   0.093 -0.3182  0.0514 -0.0526
13204W        W31408  12.981   5.844   5.046 -0.2398  0.0300  0.0587
13205W        W31409   8.013   8.859   0.592 -0.1540 -0.0615 -0.0135
13206W        W31410  11.877  12.000  13.450 -0.3402 -0.1458  0.2011
13207W        W31411   7.873   4.034   2.425  0.2449  0.1951  0.0023
13208W        W31412  11.602  17.112   0.083  0.0408  0.2469 -0.0679
13209W        W31413  14.964  10.071   1.919  0.1137 -0.2803  0.1524
13210W        W31414   7.552   6.303  14.501 -0.1108 -0.2490  0.0708
13211W        W31415  12.635  13.594  14.890  0.1836 -0.0061  0.1876
13212W        W31416  17.313   9.972   4.542  0.1247 -0.1855 -0.2962
13213W        W31417   3.471   5.296  15.892 -0.1232 -0.0061 -0.2760
13214W        W31418   1.337  11.114  13.475 -0.1072  0.3632  0.0178
13215W        W31419  16.421   5.209  13.034 -0.0799 -0.2111  0.1907
13216W        W31420   9.076  11.555  16.124  0.3136  0.2064  0.0426
13217W        W31421   0.914   3.434   1.167  0.2879 -0.0071 -0.0480
13218W        W31422   5.562   4.273  14.318 -0.0852  0.4229  0.2560
13219W        W31423   4.428   9.238  12.417 -0.3180 -0.0207 -0.0008
13220W        W31424   5.533   5.505  12.488  0.0537 -0.1382  0.5080
13221W        W31425  14.806  17.671   4.066  0.0741 -0.0349  0.0439
13222W        W31426  14.276  13.727  14.078  0.1399  0.0713 -0.4865
13223W        W31427  12.318  14.800  12.760 -0.2018  0.2599 -0.2387
13224W        W31428  17.368  11.152  15.777  0.0948 -0.1818 -0.3204
13225W        W31429   2.593   5.157  11.925 -0.1093  0.1055 -0.1154
13226W        W31430  11.322   6.832   2.474  0.0395  0.0941 -0.2474
13227W        W31431  15.139   1.045   4.349 -0.0773  0.0219  0.0390
13228W        W31432   2.910  10.774  13.411  0.0415  0.1811 -0.1984
13229W        W31433  13.872   4.634  13.872  0.0264 -0.0604  0.0010
13230W        W31434  11.383   7.051   3.383  0.4410  0.2048 -0.1705
13231W        W31435  16.950  10.192   3.443 -0.1057 -0.1993  0.3005
13232W        W31436  10.584  13.511  14.813  0.1779 -0.0492 -0.2978
13233W        W31437   5.586  15.914   2.097 -0.2350  0.2568  0.3066
13234W        W31438  13.070  13.061  15.998 -0.0954 -0.0826 -0.1717
13235W        W31439   6.402   4.426  12.534 -0.0264 -0.3114  0.0778
13236W        W31440   1.941   0.325   4.383  0.3012  0.0204 -0.1226
13237W        W31441   2.221  13.283  15.433 -0.2574 -0.1151 -0.0073
13238W        W31442   4.441  15.903  15.568  0.0685  0.0436 -0.0208
13239W        W31443  16.132  12.986  14.819  0.1605 -0.4964 -0.0495
13240W        W31444   5.151   3.736  12.279  0.2356  0.1019 -0.3274
13241W        W31445  12.608   3.148  12.873 -0.0626 -0.0060 -0.1395
13242W        W31446   6.413   5.366   4.361  0.2632  0.2099 -0.0008
13243W        W31447   4.249   6.335  13.255  0.3464 -0.1737 -0.0058
13244W        W31448  15.917  12.595  15.099  0.0240 -0.2196  0.1902
13245W        W31449  10.399  10.591   0.209  0.0737 -0.0738  0.2355
13246W        W31450   0.088   0.235  12.182 -0.0572  0.0590  0.1174
13247W        W31451  10.347   3.058   0.639  0.4380  0.0434  0.0995
13248W        W31452  11.006  16.908   4.186 -0.0431 -0.3888  0.3160
13249W        W31453  11.362  15.590  12.464  0.0440 -0.2247 -0.0181
13250W        W31454  14.249  17.606  14.934 -0.0958 -0.1349  0.1999
13251W        W31455  15.726  15.828   1.036 -0.2723 -0.0077 -0.1647
13252W        W31456   7.464   4.439   2.477 -0.0383 -0.3163 -0.2223
13253W        W31457  17.944   6.724   4.130 -0.3190  0.3129 -0.0770
13254W        W31458  16.597   7.814  12.123  0.2041 -0.0901 -0.2509
13255W        W31459   9.982  11.610   4.909  0.1423  0.0542 -0.1054
13256W        W31460  10.848  17.788   3.762  0.1534  0.0238  0.0990
13257W        W31461   7.954   6.910  15.738  0.1947 -0.1786 -0.0004
13258W        W31462   6.394   8.250   0.143  0.0478 -0.3301 -0.0046
13259W        W31463  10.024  14.771  11.589 -0.3426 -0.0397 -0.1520
13260W        W31464   5.561  17.906   0.906  0.1524 -0.3139  0.3382
13261W        W31465   6.414  13.960   2.289  0.0876  0.2272 -0.0616
13262W        W31466   7.525   2.401  13.609 -0.0288  0.2589 -0.0620
13263W        W31467   2.040  16.994  12.485  0.1659  0.1942  0.0452
13264W        W31468   9.989   8.306   2.046  0.1440 -0.1703  0.1607
13265W        W31469  16.284  11.525   4.259  0.0207 -0.1947 -0.2546
13266W        W31470  15.785  12.006  13.439 -0.1820 -0.1366  0.0688
13267W        W31471  11.046   7.292  15.668  0.0703  0.3596  0.0259
13268W        W31472   9.702  17.062  11.060  0.0189  0.0206 -0.1296
13269W        W31473   4.349  17.868   0.764  0.0335 -0.1956  0.1897
13270W        W31474  10.010   9.372  15.176 -0.0771 -0.2473 -0.0494
13271W        W31475   9.986   3.128  15.713 -0.2951  0.1429 -0.0085
13272W        W31476   9.631  12.617  12.467 -0.4180 -0.1549  0.1898
13273W        W31477   9.929   9.010   4.995  0.1632  0.0895 -0.0841
13274W        W31478   8.612   5.504  11.663 -0.2576 -0.1433 -0.0856
13275W        W31479   2.956   4.614  12.981 -0.0710 -0.1906  0.3344
13276W        W31480   2.055   6.217  13.726  0.0077 -0.3219  0.1713
13277W        W31481   4.269  14.375  11.844 -0.0670  0.1488 -0.1037
13278W        W31482   2.577   3.703   2.472  0.4305  0.0524 -0.4451
13279W        W31483  17.212   0.095  12.238 -0.1426 -0.0143  0.1017
13280W        W31484  13.270  13.585   0.681  0.1601  0.2409 -0.1108
13281W        W31485   1.732   0.181  13.900  0.0076 -0.0510  0.0878
13282W        W31486   0.933   3.575   5.911 -0.0246 -0.0671 -0.0661
13283W        W31487   4.191   2.328   1.883  0.1476 -0.2200  0.0880
13284W        W31488   7.363   1.603   4.261 -0.1858 -0.0588  0.2362
13285W        W31489  11.669  15.647   3.308 -0.2127 -0.0909  0.0007
13286W        W31490  12.840  13.744  15.403 -0.0170 -0.2455  0.1787
13287W        W31491   6.584   5.853  15.247  0.0833 -0.2542  0.1255
13288W        W31492  15.248   9.746  15.338 -0.0382 -0.0192 -0.1821
13289W        W31493   4.977   6.852   4.857  0.3598 -0.0901  0.0077
13290W        W31494   5.056  13.296   1.111 -0.0745  0.0000  0.2980
13291W        W31495   2.673  12.161   1.863 -0.2345 -0.2132 -0.0265
13292W        W31496  17.048  12.139  13.990 -0.0119 -0.1446  0.1903
13293W        W31497   6.807  15.583   4.440  0.1642 -0.0418 -0.0767
13294W        W31498   6.574  10.043   3.497  0.2786 -0.0645  0.2744
13295W        W31499  15.320  15.621  14.140  0.0434  0.1791 -0.2628
13296W        W31500   9.677   9.364  12.465 -0.3033  0.1282  0.1308
13297W        W31501  12.887   2.967   1.593 -0.2451 -0.1571 -0.0148
13298W        W31502   2.931   8.632  14.711  0.0763  0.0139  0.1383
13299W        W31503  17.172  15.951   5.057  0.1054 -0.1455  0.1741
13300W        W31504   8.357   6.681  13.376  0.2061  0.1340 -0.5019
13301W        W31505  14.596  13.510   4.352 -0.0067 -0.2786  0.0996
13302W        W31506  10.999  15.550  12.798 -0.0590 -0.4456 -0.1415
13303W        W31507   3.773  16.030  15.655  0.0622  0.1761  0.1314
13304W        W31508  14.127  14.712  11.396 -0.2409  0.0527 -0.0566
13305W        W31509   0.673  12.701   2.692 -0.2096  0.1047  0.1251
13306W        W31510   3.830   4.855  14.683  0.4393  0.0193 -0.0765
13307W        W31511   4.726  16.185   4.749 -0.0066  0.1388  0.2053
13308W        W31512   9.489   1.499   0.575 -0.1249  0.2169  0.1824
13309W        W31513   7.915  11.638   5.516 -0.0836 -0.2940  0.1144
13310W        W31514   2.158   3.209   2.688 -0.1008  0.0984 -0.2802
13311W        W31515   8.439   6.406  14.489  0.0027  0.1598  0.1723
13312W        W31516   6.268   0.692  14.396  0.1415  0.1207 -0.2938
13313W        W31517   5.594   0.178   1.710  0.0582  0.2109 -0.2035
13314W        W31518  16.747  12.919  16.132  0.0667 -0.1225  0.2604
13315W        W31519   6.057   2.138  12.976  0.0415 -0.0834 -0.0132
13316W        W31520  12.975   8.521   2.822  0.0090  0.1933  0.1214
13317W        W31521   9.624  12.399   2.168 -0.0838  0.2439  0.2977
13318W        W31522   7.201   1.874   1.385 -0.0071 -0.2096  0.2158
13319W        W31523   9.538   9.551  11.122 -0.0132  0.0173 -0.2867
13320W        W31524   7.653   1.289  12.965 -0.2808  0.1725 -0.0182
13321W        W31525   4.020   5.671   3.111 -0.0508  0.1223 -0.3340
13322W        W31526   3.483   2.486  11.930 -0.1510 -0.0076  0.0440
13323W        W31527  11.372   5.185  13.217 -0.2795 -0.0315  0.1777
13324W        W31528   1.356   0.786   1.404  0.0545  0.3886 -0.1564
13325W        W31529   2.341   5.015  11.513 -0.0873 -0.0925  0.0647
13326W        W31530  16.761  17.253   1.406 -0.1333 -0.0989  0.0663
13327W        W31531  16.442  10.107   0.152 -0.3707  0.1215 -0.0252
13328W        W31532   6.312  12.268   1.858  0.3119  0.2342 -0.0713
13329W        W31533  13.618  13.238  13.590  0.0987 -0.2752  0.1135
13330W        W31534   2.554   0.892   0.933 -0.1198  0.0914 -0.3548
13331W        W31535   7.761   4.228  13.642  0.2484 -0.0954 -0.2067
13332W        W31536   8.252   5.259   4.471  0.1799  0.0170  0.1394
13333W        W31537  16.818   0.998  13.101 -0.2227  0.1347  0.3019
13334W        W31538  12.751  14.783   4.843  0.1726 -0.0106 -0.2713
13335W        W31539   5.024  17.921  16.119  0.0721 -0.1824  0.1378
13336W        W31540  12.195   8.589   3.619  0.0519 -0.3237  0.0213
13337W        W31541  14.640   5.604   4.540 -0.3112  0.1554 -0.0506
13338W        W31542   2.299   4.406  11.351 -0.1557 -0.0136 -0.0222
13339W        W31543  13.056   5.367   2.578  0.1400  0.3479 -0.0468
13340W        W31544  11.497   4.462   1.178  0.1652 -0.0167 -0.1671
13341W        W31545   6.981   0.672   2.081 -0.2507  0.0881  0.2588
13342W        W31546  17.407   7.589   3.808  0.1515  0.4555 -0.1575
13343W        W31547   9.157  13.207  13.924 -0.2828 -0.1206 -0.1329
13344W        W31548  14.609   3.592   2.385  0.0028  0.2178  0.1441
13345W        W31549   4.503   5.303  15.310 -0.1183 -0.0959 -0.0113
13346W        W31550   7.142  16.337  11.224 -0.0204  0.2803  0.1762
13347W        W31551   8.703   3.520   3.745 -0.0213 -0.1145 -0.2017
13348W        W31552  15.226   4.914  10.860  0.0815  0.0519  0.0038
13349W        W31553   2.819  10.070   2.441  0.1724 -0.0870  0.2341
13350W        W31554   9.587   1.238   1.033 -0.1101 -0.1822 -0.0462
13351W        W31555  15.646  17.753   0.153  0.1769 -0.4357 -0.1877
13352W        W31556  17.113  15.066   4.186 -0.2271  0.2209 -0.3481
13353W        W31557   9.551  14.592   1.378 -0.0495 -0.0070 -0.1370
13354W        W31558   1.189   3.735   3.727 -0.2254  0.0257  0.2177
13355W        W31559  12.579   5.950   4.048 -0.0788  0.0047  0.2931
13356W        W31560   5.397   5.548  15.727 -0.1579  0.1722 -0.0789
13357W        W31561   9.029  15.822  16.176 -0.0806  0.2632  0.0653
13358W        W31562  11.729   7.830  12.328  0.0119 -0.2292 -0.0260
13359W        W31563  14.063   8.415   4.194 -0.0643 -0.2223  0.2877
13360W        W31564   3.862  17.358   4.399 -0.0456  0.1031  0.1133
13361W        W31565  16.543  10.196  12.758  0.0005  0.1249  0.2516
13362W        W31566   7.559  16.131  13.332  0.2313  0.2654 -0.3291
13363W        W31567  14.649   3.839   3.991 -0.0903  0.1311 -0.1491
13364W        W31568  11.985   8.281  16.097 -0.2369 -0.1930 -0.0491
13365W        W31569   0.832  14.324  12.479  0.0073 -0.3113 -0.1145
13366W        W31570  11.413   2.638  15.987 -0.0349  0.5358  0.2277
13367W        W31571   7.935   6.622  14.742  0.3358  0.0501  0.2345
13368W        W31572  15.331  17.789   1.319  0.0393 -0.0129  0.2154
13369W        W31573  16.719   7.005  14.161 -0.0713  0.2016 -0.2038
13370W        W31574  15.586  18.003   2.632  0.1645  0.0419  0.1654
13371W        W31575  13.487   8.637  12.509  0.2832  0.0110  0.2557
13372W        W31576  10.816   3.579   3.377  0.0874 -0.3415 -0.2346
13373W        W31577   8.737  17.634  10.693 -0.0685  0.0737 -0.1643
13374W        W31578   1.326  13.834  15.243 -0.1994 -0.0452 -0.0385
13375W        W31579  17.140  15.911  11.806  0.3852 -0.3050 -0.1325
13376W        W31580  17.094   9.117  12.659 -0.1251 -0.2797 -0.1400
13377W        W31581   0.638  17.427   4.337  0.0189 -0.1080  0.1150
13378W        W31582   4.848  16.738   0.551  0.2782 -0.2295 -0.0262
13379W        W31583   4.355  12.156  10.817 -0.0123  0.1797  0.1370
13380W        W31584  10.121  10.260  12.940  0.2757  0.1227 -0.1842
13381W        W31585  10.634   7.983  11.637  0.2239  0.2288 -0.1383
13382W        W31586   3.014   8.383  10.755  0.1160 -0.3087  0.0660
13383W        W31587  17.322   1.016   0.715 -0.2194 -0.3379 -0.1497
13384W        W31588  12.798  10.268  12.037 -0.2179 -0.2362  0.0604
13385W        W31589   2.137   5.865  12.865 -0.1472 -0.0233 -0.0406
13386W        W31590   5.468   2.459  13.653 -0.0257 -0.3150  0.0884
13387W        W31591   0.343   3.259  16.060  0.0156  0.2600 -0.3378
13388W        W31592  13.104   5.727   4.334  0.0422  0.0670 -0.0490
13389W        W31593   2.084   7.874   3.115 -0.0347 -0.2138  0.0054
13390W        W31594  17.815  10.655  14.521 -0.1247 -0.1509 -0.0799
13391W        W31595  10.114   4.902   2.385  0.1166  0.0704  0.2271
13392W        W31596  14.680   0.975  14.704  0.3385 -0.2226  0.1108
13393W        W31597  13.666   3.351  11.795 -0.0653 -0.3153 -0.0614
13394W        W31598   1.779  10.175   0.339 -0.1821  0.1010  0.1328
13395W        W31599   3.496   7.117   0.476 -0.0469 -0.1828  0.0226
13396W        W31600  12.574   9.750   2.949  0.0762  0.2929 -0.0131
13397W        W31601   6.150   3.157  12.030 -0.2776 -0.1939  0.2180
13398W        W31602   9.199   8.819  12.289 -0.3893  0.0472 -0.0747
13399W        W31603  17.085  13.034  14.285  0.2407  0.0820  0.3999
13400W        W31604  15.874  14.237  14.475 -0.1463  0.1559  0.2890
13401W        W31605   5.009   7.023  14.085  0.0929 -0.1068  0.0335
13402W        W31606   3.188  12.954   2.390  0.1750 -0.1558  0.0369
13403W        W31607   0.969  13.218  15.414  0.0354 -0.2067  0.4240
13404W        W31608   5.697   4.125   0.492 -0.0712 -0.0185 -0.2472
13405W        W31609   6.326   1.975   0.780 -0.1100  0.0587  0.1273
13406W        W31610  13.985   9.624  14.727  0.0463 -0.0243  0.0371
13407W        W31611  14.607   5.613  12.372 -0.0156  0.1114 -0.0423
13408W        W31612   4.186   9.201   0.853  0.0713  0.0172  0.0339
13409W        W31613  14.800   4.893   5.384  0.2661 -0.0141 -0.2536
13410W        W31614   6.509  17.386  12.026 -0.1601 -0.1192 -0.0508
13411W        W31615  13.474  15.357   2.575  0.0066 -0.1395 -0.0890
13412W        W31616  12.193   2.937   4.813  0.2725 -0.3172 -0.3845
13413W        W31617   2.698  10.358   0.615 -0.2086 -0.0422  0.0611
13414W        W31618   9.623   6.765  12.280 -0.1527  0.1780  0.1517
13415W        W31619   0.003   5.275  11.701  0.1397 -0.1613  0.0189
13416W        W31620   5.856   4.816   3.901  0.2295  0.0625 -0.2578
13417W        W31621  11.753   8.461   2.924 -0.1098 -0.1788  0.1661
13418W        W31622   5.419   6.046  12.331  0.0241  0.1579 -0.0844
13419W        W31623  11.322  14.757  13.294 -0.1720  0.1473 -0.2727
13420W        W31624   0.784  16.308   4.393  0.0079  0.2923 -0.0006
13421W        W31625  12.514   6.275   0.469 -0.0015 -0.0597 -0.0135
13422W        W31626   2.409   2.270   1.099 -0.1070  0.0927 -0.0715
13423W        W31627   6.571   6.971  14.202  0.4049  0.0467  0.0655
13424W        W31628  10.375  14.280  15.548  0.1545  0.2845 -0.4161
13425W        W31629  15.520   4.636   0.431  0.2566 -0.0897 -0.1239
13426W        W31630   5.960  11.699   2.277  0.1964 -0.1034  0.0578
13427W        W31631  17.443   4.081  14.199 -0.2809 -0.1171 -0.0047
13428W        W31632   1.094   6.544  15.966 -0.1087 -0.0101 -0.3275
13429W        W31633   0.537   2.489   4.385 -0.3462 -0.0724 -0.0670
13430W        W31634   6.848  17.358   4.801  0.1011 -0.2299 -0.1171
13431W        W31635   7.651   4.287   4.164 -0.0715 -0.0158  0.1362
13432W        W31636  15.902  10.309  14.625 -0.0816 -0.1064  0.0475
13433W        W31637  16.607   6.969  11.711 -0.0608  0.0832  0.0733
13434W        W31638  14.071   4.716   4.666  0.2587  0.1178 -0.1353
13435W        W31639  12.732  17.573   2.097  0.3373  0.1315 -0.1952
13436W        W31640   0.715  12.330  14.105 -0.0610 -0.2946  0.0476
13437W        W31641   4.315  13.808  11.463  0.3197  0.4568  0.2880
13438W        W31642  16.348  17.912  13.808 -0.3427  0.1923  0.3226
13439W        W31643  14.908   4.808  15.701 -0.2499  0.0486  0.0477
13440W        W31644  12.789   6.963  15.876  0.1988 -0.1499 -0.2657
13441W        W31645  17.725   9.891   1.899 -0.1571 -0.3368  0.2243
13442W        W31646   1.000   3.472   2.863 -0.2231  0.0160  0.1107
13443W        W31647   7.505   8.514  11.226  0.0483  0.3735  0.1410
13444W        W31648  11.093   4.141   2.296 -0.0886  0.1369 -0.0000
13445W        W31649   6.498   0.538   3.194 -0.0491 -0.2103  0.1537
13446W        W31650  12.645   6.741   1.539 -0.1452 -0.0648  0.1424
13447W        W31651   7.192  15.830   4.173 -0.0891 -0.0802 -0.1484
13448W        W31652   3.314  15.618   2.698  0.1736  0.2005 -0.1857
13449W        W31653  13.367   3.412   4.308  0.0192 -0.0598  0.0322
13450W        W31654   8.320  10.907  15.831  0.0125 -0.1084 -0.2790
13451W        W31655  15.722   4.681  14.015  0.0745 -0.4106 -0.2167
13452W        W31656   5.463   2.847   0.412  0.1039 -0.1650 -0.1097
13453W        W31657  10.973  14.831   2.321  0.0080  0.1558  0.1847
13454W        W31658  10.772  10.300   2.467  0.1169  0.1647 -0.0158
13455W        W31659   8.054  13.780  13.016  0.2991  0.2377 -0.0626
13456W        W31660  11.424   4.820  14.784 -0.0769  0.0345 -0.2153
13457W        W31661   7.458  13.287  12.002 -0.1449  0.0877 -0.1414
13458W        W31662  15.823   3.748  16.043  0.0109 -0.1287  0.3605
13459W        W31663   4.561   7.909   2.751 -0.0787 -0.1187 -0.3204
13460W        W31664  10.211   9.996   0.953  0.0018  0.1315 -0.2173
13461W        W31665  15.966  16.429  11.607  0.1746 -0.0717  0.0999
13462W        W31666   6.643   6.478  12.054  0.1879  0.1296 -0.0844
13463W        W31667   4.162  14.756   5.783 -0.2134  0.3528  0.0189
13464W        W31668   5.970  13.207   2.154 -0.1041 -0.0964 -0.1758
13465W        W31669  10.826  11.451   4.608  0.0425 -0.3820  0.0097
13466W        W31670   1.887  13.776   1.603  0.0149  0.0135 -0.0653
13467W        W31671   4.528   3.101  15.106 -0.0850 -0.3159 -0.0737
13468W        W31672  16.939  14.992  11.274  0.0306  0.1763  0.0118
13469W        W31673   3.929  13.843  15.509 -0.1026  0.0687  0.3343
13470W        W31674  17.618  10.984  13.523  0.0134  0.0402  0.0112
13471W        W31675  12.054   7.041   0.307 -0.0206  0.1368  0.0478
13472W        W31676  15.194  15.312  12.869 -0.4143  0.1179 -0.1773
13473W        W31677  13.951  13.477  13.108 -0.0917 -0.0294  0.1792
13474W        W31678   9.431   2.176  11.984  0.2188  0.1692 -0.1309
13475W        W31679   7.356   8.072   4.958 -0.1729 -0.4375 -0.1892
13476W        W31680  17.205   7.177  14.172  0.0005 -0.1903  0.1085
13477W        W31681   1.701   0.359   0.707 -0.2948  0.0214  0.1255
13478W        W31682   0.130   8.623   2.232 -0.0238  0.2290 -0.0080
13479W        W31683   0.319  14.720   1.391 -0.0350 -0.3925  0.2279
13480W        W31684  11.048   3.972   4.774  0.3638 -0.0679  0.0753
13481W        W31685   8.228   5.846  10.885 -0.3882 -0.0934 -0.1260
13482W        W31686   9.110  17.163  12.470  0.0481  0.1765 -0.2792
13483W        W31687  11.339   8.409   1.547 -0.3182 -0.0863 -0.2273
13484W        W31688  16.835  12.626   1.511 -0.1103 -0.0483  0.1374
13485W        W31689  14.008   8.850   4.055  0.2628  0.2533  0.0761
13486W        W31690   2.596   5.976  10.625 -0.0853 -0.0584  0.2193
13487W        W31691  15.200   9.298  14.201  0.1593  0.1237  0.1044
13488W        W31692  10.422   8.162  13.505  0.2648  0.0173 -0.3588
13489W        W31693   5.021  17.109  13.753 -0.2390  0.1491 -0.1229
13490W        W31694  15.279   7.875   1.667 -0.1061 -0.1792  0.1509
13491W        W31695   4.666   0.233  12.752 -0.1951  0.2533 -0.0384
13492W        W31696   1.606  16.984   5.196  0.0196 -0.1728  0.0530
13493W        W31697   9.849   2.579   2.684  0.0837 -0.0004  0.3312
13494W        W31698  15.667  17.910   4.354 -0.1842  0.0947 -0.0333
13495W        W31699   6.890  16.745  15.757 -0.0079  0.0565 -0.0917
13496W        W31700  11.730  11.806  15.929  0.2424 -0.0341 -0.0533
13497W        W31701   4.774   6.234  15.061  0.1795  0.2034  0.1339
13498W        W31702   4.696  10.560  16.159  0.3156  0.2873 -0.1166
13499W        W31703   9.693  16.422  12.311 -0.2947  0.0982 -0.1417
13500W        W31704   1.676  10.069   0.928 -0.1708 -0.1999 -0.1006
13501W        W31705  16.390   5.714   4.196  0.0228 -0.2928 -0.0214
13502W        W31706  10.768   0.917  14.270 -0.3379 -0.6187  0.0257
13503W        W31707  12.626  11.047   2.767  0.6333  0.1192  0.1263
13504W        W31708  11.776   3.422  12.689  0.0408 -0.0148  0.3196
13505W        W31709   2.065   6.410   2.393  0.1862 -0.0213  0.1168
13506W        W31710   1.224   9.616   0.934 -0.1159  0.3335  0.1443
13507W        W31711  14.914   1.298  13.500 -0.2809 -0.0221 -0.0272
13508W        W31712   7.745  11.466  12.226 -0.1455 -0.0208 -0.1050
13509W        W31713  15.611   3.496  11.772 -0.1754  0.1872  0.0722
13510W        W31714  12.309  17.795   4.557  0.3235  0.0375 -0.0332
13511W        W31715  16.200   0.209   0.708  0.2092 -0.0469  0.0448
13512W        W31716  14.981  11.268  15.978  0.0632 -0.2002  0.1756
13513W        W31717   1.398   2.910  15.313  0.3586  0.0692  0.0868
13514W        W31718   8.538   7.727   3.797  0.3449  0.2469  0.2283
13515W        W31719  15.934   4.300  15.694 -0.0707  0.2039  0.0021
13516W        W31720   4.616   2.585   0.932 -0.0269  0.5183 -0.0531
13517W        W31721   5.632  16.123   2.661  0.1200 -0.0658 -0.1847
13518W        W31722   0.021   4.087   4.283  0.2069  0.3214  0.0386
13519W        W31723   9.376  17.174   4.860 -0.1349  0.0052  0.1797
13520W        W31724   0.742  10.587  14.783 -0.1582 -0.1074 -0.2039
13521W        W31725   2.024  11.859   0.907  0.2873  0.1408 -0.0116
13522W        W31726   9.069   4.008   0.172  0.1603 -0.1010 -0.1611
13523W        W31727   0.527   0.992   1.620 -0.1007 -0.0136  0.2116
13524W        W31728   1.536   1.341   2.878  0.0516  0.0806  0.0250
13525W        W31729  10.209   7.874  11.381 -0.2114  0.3937  0.0718
13526W        W31730  13.784   7.508  13.543 -0.1595  0.2923  0.2021
13527W        W31731   1.578  16.649  16.088 -0.2580  0.3206 -0.0083
13528W        W31732  17.818  17.503   0.617  0.1050 -0.1780  0.0213
13529W        W31733  15.864  15.990  11.201  0.1993  0.2280 -0.1941
13530W        W31734  17.246  11.925   1.990  0.0803 -0.0262  0.0181
13531W        W31735  10.318  12.061   3.943 -0.1872 -0.2516  0.2113
13532W        W31736  10.979  15.213  15.326 -0.1425  0.0769 -0.0978
13533W        W31737   9.747   1.534  15.996 -0.0326  0.1322  0.1985
13534W        W31738   0.040   1.432   2.982  0.0063  0.0564  0.0028
13535W        W31739  13.014   5.531  14.147  0.1257  0.0404  0.0456
13536W        W31740   5.048   4.224  12.411 -0.1714 -0.1873  0.0548
13537W        W31741  15.208  13.308   1.597  0.2063 -0.4371  0.3227
13538W        W31742  16.206  10.160  11.580 -0.4163 -0.0588  0.0402
13539W        W31743   5.606  11.990  16.099 -0.0056  0.0561 -0.0654
13540W        W31744   3.790   5.034  13.348 -0.4240  0.0581  0.2288
13541W        W31745  11.016   6.083   1.898  0.1067 -0.0948  0.1901
13542W        W31746  11.801   9.845   4.079  0.2223  0.0807 -0.1219
13543W        W31747   4.998   2.640   1.434 -0.1879 -0.1750 -0.0353
13544W        W31748  10.914   0.759   2.051  0.2417 -0.0293  0.1194
13545W        W31749   1.419   6.268   0.013  0.0837  0.0797 -0.1159
13546W        W31750   1.443  17.556   1.113  0.4654  0.0388 -0.1482
13547W        W31751  12.286   8.820   1.296  0.0007 -0.2089 -0.1798
13548W        W31752   5.226  11.886  11.559 -0.1010  0.1709  0.1401
13549W        W31753  10.776  10.634   3.400  0.0117  0.1782 -0.1873
13550W        W31754  15.789   9.582  13.460  0.0825  0.3230 -0.3256
13551W        W31755   1.053   5.133  16.117  0.1892  0.2133 -0.0827
13552W        W31756   2.735   2.698  13.875  0.0861  0.1981  0.2195
13553W        W31757  10.918   6.329   0.997  0.0495 -0.1069  0.0543
13554W        W31758   1.338   0.729  12.516 -0.0105 -0.1416 -0.1483
13555W        W31759  11.674   8.553  15.858  0.0021 -0.0497  0.0231
13556W        W31760   6.975  15.830  12.029  0.2271 -0.2111 -0.0320
13557W        W31761   7.479   7.017  12.120 -0.1196 -0.0481 -0.2319
13558W        W31762  15.080   8.891  14.489 -0.0884 -0.0022 -0.1080
13559W        W31763   1.650   1.883   4.370 -0.2091  0.1905 -0.1463
13560W        W31764   6.458  14.305  12.676  0.0307  0.0480 -0.2105
13561W        W31765  10.074   6.763  14.635 -0.3520  0.0227 -0.1292
13562W        W31766   3.074  10.816  15.094  0.1345 -0.2238  0.1347
13563W        W31767   3.065   3.730  14.945  0.0840 -0.4060 -0.3342
13564W        W31768   7.888   9.312  15.480 -0.0973 -0.3489  0.0439
13565W        W31769   4.609  10.180   1.476  0.1860 -0.1611  0.0656
13566W        W31770   5.632  12.907  12.421  0.0878 -0.1520  0.1320
13567W        W31771   9.103   3.535  11.057 -0.1283 -0.0809 -0.1983
13568W        W31772   7.677   2.973  10.960  0.0240 -0.0231  0.1286
13569W        W31773   2.812  12.972   2.766 -0.2199 -0.0310 -0.1321
13570W        W31774  17.859  17.472  13.128  0.2157 -0.1577 -0.1221
13571W        W31775  11.383   7.851   4.433 -0.2956  0.3139  0.0893
13572W        W31776  15.405   1.093  13.781 -0.0291 -0.3811  0.1165
13573W        W31777   1.290   2.588   2.977  0.0674  0.2260  0.1941
13574W        W31778  14.585   3.820   6.009 -0.0305  0.0864 -0.0909
13575W        W31779  12.900  13.501  15.890  0.1868  0.1820 -0.0031
13576W        W31780  15.489   0.900   2.022  0.0874 -0.3233 -0.0199
13577W        W31781  15.876   9.877  14.393  0.1659  0.0641  0.2949
13578W        W31782   9.020  17.163   2.025  0.2479  0.0247  0.0549
13579W        W31783   3.434   5.304  12.439 -0.2350  0.2545 -0.0917
13580W        W31784  10.393   9.166   2.018 -0.1597  0.1571 -0.1232
13581W        W31785   8.541  15.064  11.915 -0.0643  0.1862 -0.4438
13582W        W31786  11.311   2.329  14.955  0.2859  0.0894 -0.1798
13583W        W31787  11.933  14.154   3.230  0.1682  0.0684  0.0111
13584W        W31788   2.966   7.653  13.455 -0.3050  0.2012  0.4120
13585W        W31789  15.680  16.463  14.875  0.1304  0.0109  0.0082
13586W        W31790   8.409  11.307  14.127 -0.0629 -0.1075 -0.2320
13587W        W31791   1.950  10.521   5.139 -0.2661 -0.0550 -0.2775
13588W        W31792   8.488  14.575  15.416 -0.1666  0.1028 -0.1577
13589W        W31793  15.407   4.271  15.493  0.2271  0.1593 -0.4088
13590W        W31794  12.111  14.402   1.098  0.3199 -0.1128 -0.0715
13591W        W31795  12.444   7.426   0.325 -0.1445  0.0285 -0.1726
13592W        W31796  14.196   2.327   0.478  0.2212 -0.0528  0.2764
13593W        W31797   8.715   4.916   3.848 -0.1172  0.2293 -0.0206
13594W        W31798   2.856   3.660   3.340  0.0087  0.0115  0.0262
13595W        W31799  17.071  14.305   3.688  0.1131  0.1305  0.0121
13596W        W31800   5.023  14.326   4.660  0.2247 -0.2869  0.0520
13597W        W31801   4.033   1.384  15.583 -0.1007  0.0411 -0.3850
13598W        W31802  17.861   2.076   2.209  0.3273  0.2675 -0.2280
13599W        W31803   7.912  15.637   1.550  0.1352 -0.2421 -0.0017
13600W        W31804   0.520   9.875  13.553  0.0622 -0.1862 -0.0426
13601W        W31805   7.336  15.881  12.423 -0.0622 -0.5102 -0.0467
13602W        W31806   6.009  11.890  14.302 -0.4832 -0.0312 -0.0544
13603W        W31807   1.882   1.023  15.149 -0.1342  0.1990 -0.1702
13604W        W31808  12.104   3.931   1.995 -0.3496 -0.0396  0.1261
13605W        W31809   6.944   9.115  11.606 -0.1432  0.1031  0.2976
13606W        W31810   6.675  12.081   1.529  0.1357  0.0988 -0.2196
13607W        W31811   1.281  17.439  12.397  0.2093  0.3200 -0.2967
13608W        W31812  12.165   4.876  13.041  0.1138  0.0363 -0.2279
13609W        W31813   8.153   9.105   5.391 -0.1923 -0.0085 -0.1605
13610W        W31814   3.172  11.909   2.048  0.1414  0.0581  0.1658
13611W        W31815  11.259   9.479  16.171  0.0617 -0.0677  0.0402
13612W        W31816   1.017  15.174  12.637 -0.0885 -0.0647 -0.0749
13613W        W31817  13.321   0.826   2.683 -0.0133 -0.0479 -0.0184
13614W        W31818   0.048   2.620  11.288  0.4068 -0.1446  0.0262
13615W        W31819   0.378   8.145  14.760 -0.0098 -0.2642 -0.3047
13616W        W31820  13.304  10.750  14.387  0.1253  0.1793  0.0156
13617W        W31821   9.865  11.007   3.140  0.0073 -0.0504 -0.0575
13618W        W31822   3.570  15.264  12.532 -0.0075  0.0482  0.3359
13619W        W31823   3.749   1.644  11.312 -0.0256  0.0994  0.1617
13620W        W31824   6.231   8.552   2.588  0.0797 -0.3880  0.2484
13621W        W31825   6.234   7.628   2.900  0.3757 -0.1599 -0.0754
13622W        W31826  14.417  11.745  13.201 -0.2211  0.0283  0.0020
13623W        W31827  15.251   2.746  11.150 -0.0321 -0.0285  0.0091
13624W        W31828   4.794  12.974  13.140 -0.0351  0.0133 -0.1473
13625W        W31829  14.366   6.881   1.562 -0.2477  0.0671  0.0946
13626W        W31830   9.258  12.602   3.615 -0.1527  0.4162  0.0704
13627W        W31831  13.772  16.819   3.954 -0.2162  0.3003  0.0153
13628W        W31832  14.162   5.854  12.326  0.0639 -0.0050  0.0762
13629W        W31833  11.047   9.303   3.776  0.0263 -0.1632 -0.0902
13630W        W31834   8.293   5.103  11.593 -0.3072 -0.1753  0.3484
13631W        W31835   5.484  15.456   0.810 -0.3113  0.3633  0.1134
13632W        W31836   7.492  11.395   4.627  0.0143 -0.1751  0.2132
13633W        W31837   0.807  14.434  10.374 -0.2769 -0.2377 -0.0301
13634W        W31838  12.334   7.843   4.813  0.0910  0.0463  0.2950
13635W        W31839   1.278   7.120  15.368 -0.1487 -0.3439  0.0550
13636W        W31840   3.570  17.047  12.439  0.0882  0.3717  0.0190
13637W        W31841  13.140  10.100   2.104 -0.0060  0.1498 -0.1254
13638W        W31842   4.501   9.836   2.660 -0.1279  0.3241  0.1364
13639W        W31843  16.970  13.985  11.353  0.0498 -0.2526  0.0161
13640W        W31844   6.228  16.954  14.408 -0.0573 -0.0219  0.2534
13641W        W31845   9.743  15.288   3.203  0.1769  0.2369  0.3656
13642W        W31846  14.656  10.008  11.322  0.1074  0.0458 -0.0552
13643W        W31847   4.015  10.094  12.430  0.0960 -0.2914  0.0254
13644W        W31848   2.493  14.295   0.683  0.3478 -0.1079 -0.0592
13645W        W31849   9.524   0.732   1.099  0.1893  0.0989 -0.2678
13646W        W31850   7.344  16.975   1.833  0.2136 -0.0370 -0.1876
13647W        W31851  18.033  12.984  15.918  0.3150  0.2105  0.1489
13648W        W31852   9.593   8.516   3.729 -0.0457 -0.3791 -0.5808
13649W        W31853  17.872   8.194   3.469 -0.0136 -0.1602 -0.1427
13650W        W31854   4.125   1.726  13.365 -0.0215 -0.0326 -0.3881
13651W        W31855  10.827  17.427  14.780  0.1943  0.0372 -0.2529
13652W        W31856   2.739  15.005   2.281  0.1423  0.1686  0.1107
13653W        W31857   0.256   2.134   4.281 -0.0794 -0.0373  0.2376
13654W        W31858   8.936   5.607  13.088  0.0149 -0.7118 -0.1192
13655W        W31859  11.773  13.563   4.615  0.0792  0.1290  0.1865
13656W        W31860  14.682   7.903   4.291  0.0657  0.0518 -0.2571
13657W        W31861   9.375  12.094   0.255 -0.0527  0.1086  0.0002
13658W        W31862   8.488   4.883  15.476  0.1262  0.1274 -0.1829
13659W        W31863   2.108  12.800   0.441 -0.0877  0.0263  0.0830
13660W        W31864   6.915  15.740   2.173  0.3345  0.1163 -0.1292
13661W        W31865  10.873  16.923  14.943 -0.1423  0.2083  0.0136
13662W        W31866  10.251  14.603   4.589  0.0729 -0.0255 -0.0818
13663W        W31867  11.219   8.494   0.652  0.0160 -0.0303 -0.2149
13664W        W31868  12.139   5.754  13.448  0.1360 -0.2133  0.1285
13665W        W31869   5.093   4.536   3.744 -0.2830  0.1261 -0.0935
13666W        W31870   0.190  11.674   3.400  0.1823  0.0394  0.2968
13667W        W31871   4.366  12.160  13.881 -0.0459 -0.0974  0.0133
13668W        W31872   8.699  10.177  14.050 -0.0848 -0.3633  0.0652
13669W        W31873  13.708   5.194   3.280 -0.1418  0.2917 -0.0368
13670W        W31874  17.223  10.904   0.497 -0.1106 -0.1193 -0.0200
13671W        W31875   5.585   7.321  12.293  0.1716  0.0056  0.0520
13672W        W31876  15.240  14.169   1.229  0.0826 -0.0164  0.2297
13673W        W31877   6.038   9.840  12.657  0.0650  0.2720  0.0130
13674W        W31878   6.698  12.407  12.944 -0.0773 -0.2404 -0.1978
13675W        W31879   9.428   1.369   4.071 -0.3692 -0.0574  0.1587
13676W        W31880  11.100   6.208   2.906  0.3442 -0.0386 -0.1740
13677W        W31881   3.712   0.306   0.436  0.1278  0.0800  0.1658
13678W        W31882   8.931   7.288   0.227 -0.1884  0.1929  0.0494
13679W        W31883   1.192   9.985   4.567  0.3281 -0.2515  0.2309
13680W        W31884  11.235   9.695   1.721  0.2885  0.0754 -0.4104
13681W        W31885   0.007  10.250  11.750  0.1188 -0.1108  0.0312
13682W        W31886   8.329   7.539   1.036  0.2606 -0.4333 -0.2665
13683W        W31887  12.927   3.514   5.037 -0.2473 -0.0110  0.1602
13684W        W31888  16.398   2.293   1.937 -0.0574 -0.0619 -0.1982
13685W        W31889  17.482   0.944  12.932 -0.2297 -0.0089  0.1116
13686W        W31890   8.519  11.947  14.476  0.1093 -0.0919 -0.1325
13687W        W31891   5.063   7.600   2.256 -0.1691  0.0639  0.2881
13688W        W31892   1.899  15.714   1.565 -0.0826 -0.3441 -0.1435
13689W        W31893   4.791   6.416  11.824 -0.0820  0.2279  0.1572
13690W        W31894   3.304  17.216   5.694 -0.0475  0.0506 -0.3890
13691W        W31895  13.962  14.410  14.036  0.0683 -0.0599  0.2643
13692W        W31896   2.887   2.738  12.714  0.0688  0.2744  0.0704
13693W        W31897  15.756  16.526  15.656  0.0707 -0.2101  0.0879
13694W        W31898   0.260   5.842  15.653  0.0509  0.1339  0.1204
13695W        W31899   8.281   9.271   4.890  0.3270  0.1993 -0.0325
13696W        W31900   2.474   8.582   5.697  0.1366 -0.0066 -0.2360
13697W        W31901   1.782   6.589   4.868 -0.0941  0.0600 -0.0310
13698W        W31902  12.396  11.606   3.511  0.1345 -0.0392 -0.1594
13699W        W31903  17.261   8.468   1.161 -0.0548 -0.0966 -0.1616
13700W        W31904  11.772   0.742   2.012 -0.3986  0.1671  0.1026
13701W        W31905  14.186   3.935   1.508  0.4656  0.0799  0.1915
13702W        W31906  12.549  15.295   0.566  0.0057 -0.3635 -0.4891
13703W        W31907  14.035  16.724  12.393  0.2212  0.0907  0.0390
13704W        W31908  11.257  12.002  13.846 -0.1089 -0.0631 -0.1165
13705W        W31909   3.463   7.705   4.279  0.1379  0.1717  0.0199
13706W        W31910  14.453  11.417  15.280  0.1036  0.1652  0.2862
13707W        W31911   6.547  11.526  15.778  0.2289  0.0815  0.0744
13708W        W31912  13.767  14.832   1.888 -0.0403  0.0958 -0.1637
13709W        W31913  17.558   8.861  13.182  0.0695  0.1842  0.3304
13710W        W31914   9.738  14.929  13.639 -0.0911 -0.1465 -0.2258
13711W        W31915  17.205   0.505   2.779  0.2825  0.1358 -0.0055
13712W        W31916  16.729  12.930   0.502  0.3276  0.3234  0.0107
13713W        W31917   0.069  13.199   0.716  0.0445 -0.1497 -0.1015
13714W        W31918   3.799  16.606  12.508  0.0725 -0.1096  0.2203
13715W        W31919  12.891   2.616  15.079  0.1171 -0.1368 -0.2511
13716W        W31920   5.891   5.634  15.877  0.0673  0.1399  0.1356
13717W        W31921  12.205   9.014  12.200  0.1277  0.2286  0.0285
13718W        W31922   8.875   7.548  14.903 -0.0049 -0.1132  0.2030
13719W        W31923  15.458   0.415   0.124  0.3495  0.0096 -0.0801
13720W        W31924   5.438   0.819  14.949  0.0367  0.0011  0.1839
13721W        W31925   9.050  13.647   2.048 -0.0452 -0.0482  0.2634
13722W        W31926   7.557   4.707  13.831 -0.1578 -0.0351  0.0427
13723W        W31927   5.926  13.844   1.607 -0.2912 -0.0906 -0.1405
13724W        W31928   1.346   3.457   4.654  0.0471  0.2008  0.1130
13725W        W31929  14.378   4.914   5.013  0.2442 -0.2097 -0.0493
13726W        W31930   4.627  11.690  12.786 -0.0404  0.2095  0.0443
13727W        W31931   9.580   8.273   0.843  0.0184 -0.1292  0.0673
13728W        W31932   0.292   8.173   1.314  0.0727  0.0608  0.1354
13729W        W31933   7.807   6.408  15.978 -0.1834  0.0867 -0.0155
13730W        W31934   8.822  15.667  15.139  0.1811 -0.0083  0.2030
13731W        W31935  17.135  16.665   4.579  0.1623 -0.1548  0.0614
13732W        W31936   5.581   0.692   0.878 -0.0105 -0.1523 -0.0278
13733W        W31937  17.047  13.933   4.965 -0.2270 -0.2474 -0.2150
13734W        W31938   3.119   6.410   4.291 -0.0241 -0.1176 -0.1926
13735W        W31939   1.228  16.786   2.420  0.1094  0.1042  0.0667
13736W        W31940   0.913  15.425   2.507 -0.1717 -0.1947 -0.1839
13737W        W31941  11.082   8.166   1.104  0.0333 -0.0464  0.0666
13738W        W31942  13.117  15.001   5.210  0.0000  0.0181 -0.0315
13739W        W31943   9.745  15.325  12.350 -0.1776  0.1462  0.3214
13740W        W31944  12.134  17.583  11.216 -0.0264  0.0684  0.1610
13741W        W31945   0.383  16.676  14.281 -0.1748  0.0858 -0.1717
13742W        W31946   9.564  12.252  13.797  0.0594  0.3536 -0.2347
13743W        W31947   1.970   7.599   1.378  0.0191 -0.0042  0.0315
13744W        W31948   3.350  17.261  15.312  0.0342 -0.3101  0.0301
13745W        W31949  10.757   0.756   1.101  0.3054 -0.1771 -0.1558
13746W        W31950  11.141   2.301  14.260 -0.1926 -0.2356  0.0008
13747W        W31951   7.245   3.015  13.492 -0.3336 -0.0954  0.0807
13748W        W31952  13.268   5.237   0.357 -0.4258  0.2008 -0.1296
13749W        W31953  10.269  12.084  14.938  0.0039 -0.0235  0.5918
13750W        W31954   6.023   4.718  12.339 -0.0086 -0.3275 -0.3200
13751W        W31955   8.886  12.374  13.559 -0.1657 -0.0912 -0.3906
13752W        W31956   0.746  13.833   4.854 -0.0562 -0.1255 -0.1473
13753W        W31957  14.822   9.579   2.661 -0.2854  0.1856 -0.1550
13754W        W31958  17.375  10.228  15.442  0.0049  0.1775 -0.1234
13755W        W31959   0.091  12.494  10.838  0.0695  0.3597  0.1608
13756W        W31960  16.652   9.316  12.300 -0.2293 -0.0725  0.3416
13757W        W31961   4.315  13.951   2.579 -0.3479  0.1034 -0.1059
13758W        W31962   9.519  16.998   2.067 -0.0984 -0.0286  0.2445
13759W        W31963   8.826   2.065  13.327 -0.0103  0.0806  0.0832
13760W        W31964   4.131  14.319  10.822  0.3787 -0.3681 -0.1107
13761W        W31965   5.212   8.730  13.553 -0.0598  0.0627  0.2238
13762W        W31966   0.378  14.453  12.763 -0.1572  0.3191 -0.0106
13763W        W31967  11.873   2.017  14.201  0.1036  0.1338 -0.0042
13764W        W31968   6.764   1.058   2.372 -0.1638 -0.0423  0.1833
13765W        W31969   3.999   0.989   2.627  0.0626  0.4150  0.0393
13766W        W31970   5.112  13.636   1.594 -0.4482 -0.1881  0.2879
13767W        W31971   6.247  17.092   3.529  0.3743 -0.0830 -0.3012
13768W        W31972   7.318   9.020  14.407 -0.1478  0.0427  0.1479
13769W        W31973   5.408  12.509  13.832  0.1184 -0.0499  0.2310
13770W        W31974   0.340   0.321   4.070 -0.0772  0.0658  0.2711
13771W        W31975   1.447  13.286  12.747  0.0323  0.1924 -0.0749
13772W        W31976   1.439   7.694   4.220  0.1765  0.0823  0.2807
13773W        W31977   9.316   9.126   2.129  0.2114  0.2748  0.1925
13774W        W31978   7.351  13.236  12.462  0.0902 -0.1772 -0.4037
13775W        W31979   3.835   7.727  13.404 -0.1474  0.1057  0.1359
13776W        W31980  14.621   5.986  12.713  0.0906  0.0709 -0.1666
13777W        W31981   7.054  13.798   1.165 -0.1363  0.1080 -0.0987
13778W        W31982   1.028   8.274   0.090  0.2779 -0.1339 -0.3165
13779W        W31983   2.642  14.830   3.479 -0.1139  0.1376 -0.1348
13780W        W31984  13.550   5.441  14.862  0.2535  0.0668 -0.0341
13781W        W31985  12.272  17.998  13.803 -0.1156  0.2865  0.0553
13782W        W31986   7.813   1.134   0.656 -0.2992 -0.0697  0.1150
13783W        W31987  17.076  16.806   0.739  0.0215 -0.0562 -0.1775
13784W        W31988   3.758   2.920  13.891  0.1968  0.1148 -0.1145
13785W        W31989   0.851   1.429  14.199 -0.1641 -0.1339  0.3122
13786W        W31990  10.840   8.764  15.134 -0.2634 -0.1258 -0.2146
13787W        W31991   6.802   7.725   4.449 -0.0567 -0.0007  0.3322
13788W        W31992   5.091  14.415   2.537 -0.0467  0.2768  0.5563
13789W        W31993   7.837  12.212   0.326 -0.1562 -0.1951  0.0348
13790W        W31994  12.046   7.647   5.271 -0.2741  0.0611 -0.1193
13791W        W31995  12.355  13.015   4.041 -0.3668  0.0488 -0.1138
13792W        W31996  12.037  13.545  14.967 -0.1561 -0.1651 -0.0961
13793W        W31997  16.834   1.644  14.911  0.2057  0.3246 -0.0624
13794W        W31998  14.166  10.137   2.231  0.3045 -0.2455 -0.0097
13795W        W31999  12.632  10.058   0.400 -0.0325 -0.0805 -0.0891
13796W        W32000  11.578   3.794  12.991  0.0626 -0.1195 -0.1615
13797W        W32001   6.885  15.654   0.423 -0.4310  0.0518  0.1397
13798W        W32002  16.092   7.346  15.455  0.0838  0.0811  0.4817
13799W        W32003   8.248  13.488   1.711 -0.0791  0.1269  0.0063
13800W        W32004   3.867  11.373  13.816  0.3095  0.2946  0.2620
13801W        W32005  11.524  15.774  14.807 -0.2835 -0.0252  0.0078
13802W        W32006  12.882   4.520   1.888 -0.1483  0.4874 -0.2589
13803W        W32007  13.493   5.627   2.490  0.1975 -0.0884  0.2258
13804W        W32008  16.703   0.152   0.917  0.1960  0.0492  0.1941
13805W        W32009   4.371  15.618   3.459  0.1174 -0.2019 -0.0839
13806W        W32010   0.328   9.269  12.389 -0.0890  0.0295  0.1450
13807W        W32011   9.875   0.900   4.075 -0.1321 -0.0836  0.2586
13808W        W32012  11.748   4.518  14.301 -0.1607  0.1719  0.0632
13809W        W32013   5.014   3.040  13.562 -0.0583  0.1321  0.0444
13810W        W32014  12.848  15.095  11.405  0.0944 -0.0389 -0.0534
13811W        W32015  14.165  13.922   0.369  0.1779 -0.0910  0.0836
13812W        W32016  11.429   6.604  13.142 -0.0255  0.0374  0.1808
13813W        W32017   2.057  17.486  11.620  0.2182  0.0826 -0.2357
13814W        W32018  16.842   7.953   2.008  0.0071  0.2412  0.4319
13815W        W32019  11.872  16.500  11.316  0.2385 -0.2241 -0.1624
13816W        W32020   7.134  13.402  13.282 -0.0615  0.0227 -0.2723
13817W        W32021   8.059   1.281  11.102  0.0638  0.0127  0.3088
13818W        W32022   0.126  12.655   2.892 -0.0258 -0.0050 -0.0684
13819W        W32023  15.205  16.654   4.502 -0.1448  0.2917  0.2117
13820W        W32024  12.797   1.380  15.066  0.1045 -0.2065 -0.1668
13821W        W32025  11.171  11.194  14.447 -0.0358 -0.2043  0.1735
13822W        W32026   7.459  10.872   2.271 -0.0057  0.4660  0.3557
13823W        W32027  14.560  11.084  11.630  0.1683  0.2102  0.1391
13824W        W32028   9.726   9.604   2.059 -0.2054 -0.1869 -0.2570
13825W        W32029   1.746  10.319  14.594 -0.1616 -0.4367 -0.3038
13826W        W32030   3.310  16.597  11.465 -0.3212 -0.0834  0.0619
13827W        W32031  16.264   6.823   2.546  0.0171 -0.0280  0.4016
13828W        W32032   6.251  17.395  16.111  0.1727 -0.0273 -0.2125
13829W        W32033  13.126  13.851  16.110 -0.5285 -0.3178 -0.1764
13830W        W32034  14.758   2.012  10.238  0.1514 -0.0300 -0.2268
13831W        W32035  15.522   1.351  14.213  0.1104  0.0323  0.0340
13832W        W32036   6.705   2.844  11.215  0.0664 -0.2899 -0.0158
13833W        W32037   3.282  11.434  16.173  0.2307  0.0753  0.0573
13834W        W32038  17.127   4.416  14.275  0.2082 -0.0160 -0.2703
13835W        W32039   8.813  15.631   3.416  0.0184  0.0104  0.0381
13836W        W32040   7.302   0.432   3.525 -0.1720 -0.0984 -0.1947
13837W        W32041   4.106  15.732  13.830  0.1002  0.0368  0.1664
13838W        W32042  13.964   5.548   0.926  0.3296 -0.1659 -0.1435
13839W        W32043  14.582   4.104   2.304  0.0335 -0.0288  0.3743
13840W        W32044   1.818   6.570  12.568 -0.1705  0.0750 -0.1447
13841W        W32045   8.543   5.016  13.791  0.1227  0.0597  0.1471
13842W        W32046   9.469  14.504  14.342 -0.0506 -0.0495  0.0819
13843W        W32047  16.555   5.608   2.724 -0.3507  0.0045 -0.1544
13844W        W32048  11.067  17.868  11.962  0.0920 -0.0687 -0.1116
13845W        W32049   6.912  14.277   0.209 -0.2007 -0.0305 -0.1182
13846W        W32050  14.141  15.039   1.055 -0.4627  0.1558 -0.1118
13847W        W32051   9.484  13.638  15.644  0.0324  0.0790  0.0796
13848W        W32052   8.832   5.165  10.612 -0.3091  0.1566 -0.2408
13849W        W32053  14.033   7.169   1.721  0.0744 -0.1765 -0.2712
13850W        W32054  13.645  15.372  10.469  0.0415  0.0871 -0.1091
13851W        W32055   2.390  13.815  13.545  0.0296  0.2020 -0.0425
13852W        W32056   4.890   4.707   0.528 -0.2028  0.0154  0.1281
13853W        W32057  13.346  10.261  11.525  0.0895  0.1778  0.1349
13854W        W32058  10.519  16.864  12.611 -0.2113  0.2973  0.2176
13855W        W32059  15.635   6.757  13.576  0.0608  0.0189  0.0559
13856W        W32060  16.779   4.388  11.536 -0.0885  0.0489 -0.2867
13857W        W32061   2.045  14.568   4.179 -0.3275 -0.1092  0.2832
13858W        W32062   1.158   3.982  14.575 -0.5221  0.0083  0.1019
13859W        W32063   9.714  16.670   3.094  0.0150 -0.0871  0.0174
13860W        W32064   1.573  14.638  15.048  0.0026 -0.0225  0.1129
13861W        W32065   3.652   3.012   0.878  0.0949  0.1135  0.0465
13862W        W32066   7.896  10.350  12.791  0.0210 -0.0295  0.1786
13863W        W32067  16.894   5.163   6.266 -0.0541 -0.4160  0.1383
13864W        W32068  10.817   2.120  15.740  0.0886  0.3312  0.0920
13865W        W32069   6.436   0.854  14.838 -0.2033  0.0395  0.0876
13866W        W32070  12.898  13.746   3.103  0.0173  0.0633  0.1085
13867W        W32071   1.123  10.491   4.672  0.2635  0.0968  0.0651
13868W        W32072   1.219   7.034  13.054  0.0246 -0.1797 -0.2398
13869W        W32073   2.390  11.387   4.472  0.1691  0.0640  0.0700
13870W        W32074  16.282  14.674  13.719 -0.0006  0.0800  0.3993
13871W        W32075   4.839   0.580  13.038 -0.0601  0.0032  0.2522
13872W        W32076  17.678   0.279   2.793  0.2483 -0.0029 -0.0578
13873W        W32077   8.947  11.788   4.289 -0.1184 -0.1098  0.1635
13874W        W32078  12.420  17.216  11.063  0.1220 -0.0390 -0.1175
13875W        W32079  15.675  17.922   3.153 -0.3008 -0.0640  0.2032
13876W        W32080   7.343   2.424  14.565  0.1488  0.0333 -0.0876
13877W        W32081  11.798  16.418  13.427 -0.0666 -0.1012 -0.0065
13878W        W32082   7.219  13.744  15.144 -0.1234 -0.0301  0.0301
13879W        W32083   4.278  13.306  11.612  0.1289  0.3122 -0.2026
13880W        W32084  17.567  16.385   3.838  0.1975  0.1536  0.3613
13881W        W32085  12.488  17.656  11.974  0.2871  0.0246 -0.2690
13882W        W32086   6.020   2.774   1.481  0.1398 -0.1201  0.2182
13883W        W32087   9.781   6.625  12.836 -0.0537  0.1018 -0.0985
13884W        W32088   3.857  10.359   5.153  0.0910  0.4613 -0.0494
13885W        W32089   6.428  14.907   0.417  0.0263 -0.1410  0.3228
13886W        W32090  13.016   9.046  15.816 -0.0977 -0.4739  0.0468
13887W        W32091  14.706   0.624  12.409 -0.3299  0.0372 -0.1235
13888W        W32092   3.271   7.771   3.574  0.0763 -0.0879 -0.1343
13889W        W32093   9.330   3.590   2.682  0.1698 -0.0249 -0.0163
13890W        W32094   8.611   1.171  14.382 -0.0318  0.1181 -0.0436
13891W        W32095  17.443   2.253   2.446  0.3390  0.0252  0.1030
13892W        W32096   3.145   4.997   3.460 -0.2382  0.1080  0.3109
13893W        W32097   4.008   4.679   4.102 -0.2404 -0.0545  0.0974
13894W        W32098  15.047  14.421  12.845 -0.1630  0.2199  0.1747
13895W        W32099   0.807  12.797  13.938  0.0484  0.3522  0.1327
13896W        W32100   3.060  12.368   2.125  0.2946 -0.4244  0.1583
13897W        W32101   7.115   0.615  12.666  0.1067 -0.0090 -0.0442
13898W        W32102  17.172   8.764   3.216 -0.2154 -0.0966 -0.0185
13899W        W32103  17.301  17.709   4.131  0.1566  0.0725  0.0038
13900W        W32104  15.407  10.276   2.208 -0.2135 -0.1287 -0.1519
13901W        W32105  11.756  16.213   1.095  0.1713  0.1146  0.2940
13902W        W32106   2.979  16.200  12.412  0.2032  0.2291  0.0957
13903W        W32107  17.080   7.039   3.025  0.1997  0.3115 -0.1540
13904W        W32108   3.418  13.878   2.700  0.0694  0.1187 -0.1044
13905W        W32109   0.659  14.198  13.041  0.0330  0.0330 -0.3389
13906W        W32110   7.377   6.367   3.127  0.0170  0.0441  0.3810
13907W        W32111  17.317  15.327  16.067 -0.1205 -0.2825 -0.0134
13908W        W32112   2.844  16.578  12.762 -0.0325 -0.0798 -0.0442
13909W        W32113  17.189   2.632   1.242 -0.0595 -0.0042 -0.0971
13910W        W32114   5.586  15.004  15.375  0.1902 -0.0922 -0.1369
13911W        W32115   7.649   7.319   1.125 -0.1564  0.0666  0.1024
13912W        W32116   9.120   7.276   4.922  0.0537  0.0333 -0.0927
13913W        W32117  16.547   7.545   3.077  0.0871  0.3193 -0.1684
13914W        W32118   1.631  11.723  11.556 -0.0960  0.0503 -0.1351
13915W        W32119   6.318   6.734   2.226  0.2054  0.1313 -0.1726
13916W        W32120  17.043   6.916   3.882  0.2089  0.0662  0.2931
13917W        W32121   2.096  13.961   0.635  0.0269  0.0404 -0.1506
13918W        W32122  17.022  12.208  10.993 -0.1272 -0.1977  0.0180
13919W        W32123  11.863   1.210   2.894  0.2010  0.2170 -0.1578
13920W        W32124  13.634   8.353  12.024  0.0364  0.0126 -0.0425
13921W        W32125  15.380   2.738  15.851 -0.0351  0.3448  0.0230
13922W        W32126   0.397   8.662  15.361 -0.0316  0.1106 -0.0046
13923W        W32127   1.226  11.914   2.065  0.0254  0.0988  0.3188
13924W        W32128   7.566   6.183  13.381  0.0101  0.0056  0.0649
13925W        W32129  12.540  12.957   1.725 -0.0500  0.0215 -0.1419
13926W        W32130  10.338   4.289   3.590  0.2559 -0.0956  0.1351
13927W        W32131   1.707   6.465  13.505  0.0068  0.0714  0.1667
13928W        W32132   8.399   3.212   3.450  0.2418 -0.0302  0.1318
13929W        W32133  15.232   2.302   3.482 -0.3897 -0.1282 -0.1332
13930W        W32134   8.714  10.694  12.918  0.1879 -0.0237 -0.1189
13931W        W32135   9.581  15.184   4.635 -0.0047 -0.3420 -0.2187
13932W        W32136  12.883   4.528   3.149 -0.1502  0.0500  0.1747
13933W        W32137   4.259  11.127  11.959  0.0238 -0.0393 -0.1343
13934W        W32138   1.615  16.898  15.055 -0.0787  0.1042 -0.0586
13935W        W32139   7.417  11.502   2.507  0.0782 -0.0105  0.1934
13936W        W32140  17.659   0.475  12.883 -0.1865  0.3489 -0.0129
13937W        W32141  11.818  13.052   2.754  0.0415  0.1633 -0.2636
13938W        W32142   2.127  10.561   2.285  0.0238  0.0712 -0.0861
13939W        W32143  11.980   5.890   4.564  0.1453 -0.2017 -0.0205
13940W        W32144   9.617   4.412  13.475  0.0329 -0.2133 -0.1645
13941W        W32145   5.590  11.580  11.917 -0.1244 -0.0524  0.0161
13942W        W32146  15.125   2.963   0.445  0.0235 -0.1064  0.2736
13943W        W32147   0.106   8.081   2.132 -0.3439 -0.2230 -0.1341
13944W        W32148  12.379  13.247  14.073 -0.2956  0.1136 -0.1474
13945W        W32149   5.869  12.043   1.592  0.0933 -0.3755  0.0451
13946W        W32150  16.053   6.539   1.887 -0.1633  0.1419 -0.0908
13947W        W32151  10.278  17.157   1.795 -0.3065 -0.0204 -0.0347
13948W        W32152  14.642   3.161   0.281 -0.0624  0.0729  0.0978
13949W        W32153  15.443   8.793   1.501  0.1827 -0.0821 -0.0625
13950W        W32154   1.279  10.522  14.714 -0.1567  0.1459 -0.0847
13951W        W32155  13.090   1.671   0.360 -0.1176  0.0409  0.2035
13952W        W32156  12.412  15.131  15.742  0.1356  0.2057  0.0727
13953W        W32157  10.096  16.611  15.028  0.1418  0.4710 -0.0767
13954W        W32158  12.026   0.806  12.268 -0.2175 -0.1512 -0.0014
13955W        W32159   1.114   5.357   5.005  0.1378 -0.1454  0.1716
13956W        W32160   1.342   5.590   0.603 -0.1931 -0.1786 -0.0904
13957W        W32161   9.698   6.769   0.170  0.2755  0.1400 -0.0543
13958W        W32162  11.190   2.002  15.352 -0.1650 -0.1003  0.1774
13959W        W32163  12.659  12.476   4.276 -0.1673  0.2309 -0.0904
13960W        W32164   1.609   3.554   1.980 -0.2230 -0.3785 -0.1708
13961W        W32165  17.994   8.989   2.996 -0.2370 -0.1259  0.0725
13962W        W32166  13.684   7.435  16.045 -0.0448 -0.1669 -0.2605
13963W        W32167   5.970   0.322   4.981  0.2097 -0.0122  0.2555
13964W        W32168  16.306   3.581  11.907  0.0864 -0.2606  0.1936
13965W        W32169  10.591   2.896   4.353  0.1914  0.0244  0.0897
13966W        W32170  11.309  17.676  11.145  0.2686 -0.2979 -0.0197
13967W        W32171   2.422  13.552  14.407  0.1785 -0.1666  0.0165
13968W        W32172   5.336   9.283   1.140 -0.2139 -0.0492  0.0817
13969W        W32173   4.431   6.617   2.363 -0.1835  0.2520  0.0232
13970W        W32174   2.102   2.707  11.762  0.2513  0.2621 -0.1573
13971W        W32175   0.130  12.294   4.156 -0.0522 -0.3531 -0.1912
13972W        W32176  12.985  10.790  15.559  0.1737  0.3842  0.0338
13973W        W32177   5.834   3.062   2.463  0.1680 -0.1880  0.1204
13974W        W32178   3.909   2.284  15.895  0.2997  0.0616 -0.0593
13975W        W32179   7.753   1.240   3.362  0.0557 -0.1089  0.1374
13976W        W32180  17.068   9.391  16.158  0.3806 -0.0878  0.0962
13977W        W32181   0.445   6.177  15.142 -0.0815 -0.0700  0.0703
13978W        W32182  17.045  17.098   4.838  0.0957  0.1416 -0.2045
13979W        W32183   2.567  11.470  11.601 -0.0630  0.1954  0.1136
13980W        W32184   9.523  14.699  15.196  0.2655 -0.0588  0.1982
13981W        W32185   0.383   3.237  14.310  0.0867 -0.0192 -0.0523
13982W        W32186  14.455   2.764  13.844 -0.1238 -0.0161  0.3504
13983W        W32187   9.307  15.909  11.081 -0.1672 -0.0568  0.2590
13984W        W32188   9.078   8.355   2.329 -0.0223  0.0670  0.0411
13985W        W32189   3.508   1.765  13.386 -0.0279  0.0161  0.2684
13986W        W32190  10.010  13.877   4.875 -0.1682 -0.1526  0.0702
13987W        W32191  15.006  10.290  15.915  0.2881  0.3687 -0.2675
13988W        W32192  15.178   7.845   3.064  0.0096 -0.1772  0.1995
13989W        W32193  14.058   1.592  13.254 -0.2151 -0.0759 -0.4865
13990W        W32194   2.162  16.599  14.472  0.3135  0.0706 -0.1556
13991W        W32195   3.124  13.353   2.724 -0.0069  0.0769 -0.0733
13992W        W32196  10.865   3.714   0.537  0.0550  0.1394 -0.0696
13993W        W32197  11.972  16.592   0.818  0.0231 -0.2864 -0.2159
13994W        W32198   6.834  13.576   3.064  0.1045  0.2301  0.0936
13995W        W32199   0.961   9.059  12.334 -0.1750  0.0095  0.0865
13996W        W32200   5.946  16.912  14.898  0.0907  0.1930 -0.1634
13997W        W32201   1.534   7.387   3.777  0.1403 -0.2739  0.0699
13998W        W32202  15.223   2.512   4.337 -0.0145 -0.1275 -0.2688
13999W        W32203  11.936  10.575  13.056  0.1639 -0.1259  0.1725
14000W        W32204   3.140   8.157  11.875 -0.2433 -0.2135 -0.1479
14001W        W32205  15.774   9.483   2.349 -0.0521 -0.1076  0.0461
14002W        W32206  15.388   3.341   0.726 -0.3384 -0.1663 -0.0840
14003W        W32207  16.166  11.181  14.872  0.0194  0.1584 -0.1576
14004W        W32208   8.678   9.787   1.156  0.1663 -0.0060 -0.0870
14005W        W32209   5.720   4.062   1.444 -0.1524 -0.3527 -0.1573
14006W        W32210   0.847  11.081  12.085 -0.2540  0.0461  0.0258
14007W        W32211   8.719   0.563  11.487  0.2335 -0.0083  0.1098
14008W        W32212   6.912   5.473   2.052 -0.3064 -0.1801 -0.1754
14009W        W32213   8.271  13.635   0.358 -0.2180 -0.1426  0.1404
14010W        W32214   2.622   0.134   3.714 -0.0504  0.2244 -0.1218
14011W        W32215  15.324  12.150   1.908 -0.2257 -0.2702  0.0450
14012W        W32216  15.926  10.255   3.950  0.3238 -0.0754  0.0138
14013W        W32217   2.677   3.324   1.821  0.2523 -0.0152  0.0121
14014W        W32218  13.043  17.951   4.403 -0.0092  0.0785 -0.1247
14015W        W32219   6.146   4.011   2.309 -0.3955 -0.5730 -0.2737
14016W        W32220   4.556  13.292  15.539  0.1126 -0.2540  0.3264
14017W        W32221  13.481   2.855   5.023  0.0037 -0.1159  0.0222
14018W        W32222   9.675   2.175  11.512 -0.0286  0.0015  0.0319
14019W        W32223   7.482  12.160   0.897  0.0594 -0.2621 -0.1932
14020W        W32224   4.380   3.538   3.699 -0.0153 -0.2354  0.0168
14021W        W32225   6.245  17.596  12.732 -0.1096 -0.1013 -0.2652
14022W        W32226  13.754   0.837   2.941  0.1685  0.0522 -0.0373
14023W        W32227   3.557  15.987   4.005  0.0688  0.1017 -0.0461
14024W        W32228   4.653   6.567  13.426 -0.0872 -0.3487  0.0040
14025W        W32229   2.088  10.220   3.068 -0.0861  0.1080 -0.1726
14026W        W32230  14.916  13.601  12.566 -0.1495  0.2309  0.1374
14027W        W32231   6.907   7.028  15.991  0.0642 -0.0650  0.0990
14028W        W32232   0.410  18.018  13.568 -0.3585  0.1106  0.0545
14029W        W32233  10.474  16.851  11.631  0.1080 -0.0171  0.0351
14030W        W32234  11.715   8.360  12.069 -0.2220  0.0363  0.2506
14031W        W32235  16.833  15.674   4.231  0.0168 -0.0391  0.0559
14032W        W32236  10.323   2.375   2.959  0.0888  0.0955 -0.0733
14033W        W32237  12.374  16.093   1.926  0.0301  0.2617  0.0944
14034W        W32238   5.174   6.125  11.580  0.1533 -0.1375  0.3017
14035W        W32239  17.928  13.076   0.230  0.2720 -0.2238 -0.1292
14036W        W32240   3.749   7.552   0.568  0.1252  0.1530 -0.0849
14037W        W32241  13.066  15.685  15.220  0.1681  0.0816 -0.1971
14038W        W32242   7.313  17.300  11.598 -0.1059  0.0549 -0.0329
14039W        W32243  10.168  16.368  12.508 -0.3028  0.0053  0.0563
14040W        W32244   2.282  11.014   0.044 -0.0476 -0.0063  0.1150
14041W        W32245  17.463   6.255   0.256  0.0061  0.4060 -0.2846
14042W        W32246   4.549  16.063   1.491  0.1819 -0.1599 -0.2828
14043W        W32247   0.430   5.737   4.611 -0.0892  0.1546  0.1361
14044W        W32248   0.468   6.354  12.311  0.0134  0.0957  0.2985
14045W        W32249  15.866  12.033  15.235  0.0953  0.3710 -0.2389
14046W        W32250  12.084   1.154   2.039  0.0532 -0.0652  0.2053
14047W        W32251   8.058   8.700  14.573 -0.0003 -0.0928  0.0366
14048W        W32252  15.370  10.276   0.883  0.2081  0.1168 -0.1160
14049W        W32253  12.649   4.390   1.295 -0.3518 -0.0251  0.1825
14050W        W32254   8.215  15.709  10.908  0.1699  0.0002 -0.0119
14051W        W32255   3.907  10.356   4.285  0.0662 -0.0857 -0.3181
14052W        W32256   9.747   4.680   3.899 -0.0607  0.1543  0.1119
14053W        W32257  16.376  14.370  11.919 -0.1210 -0.1398 -0.0043
14054W        W32258   2.972   9.495   2.569  0.2741 -0.1238  0.0655
14055W        W32259   8.138   4.995  15.798  0.1694  0.0537 -0.1460
14056W        W32260   1.087  15.853   2.047 -0.4277  0.1200 -0.0471
14057W        W32261   6.439   1.483   1.515 -0.0302 -0.1005 -0.0144
14058W        W32262   4.509  10.633  13.645 -0.2501 -0.1101 -0.2690
14059W        W32263  12.735   4.172   0.662  0.1287  0.0249 -0.0389
14060W        W32264  11.128  14.442   5.502 -0.1356 -0.2072 -0.2794
14061W        W32265   2.008   0.334  12.227  0.2064  0.1917  0.1201
14062W        W32266   1.622   6.944  12.163  0.0268 -0.0002 -0.0013
14063W        W32267  14.554  11.751  16.057 -0.2552  0.2413 -0.0899
14064W        W32268   8.707   8.507  15.123  0.0248 -0.1581 -0.3508
14065W        W32269   3.015   7.304   2.890  0.1326 -0.0309  0.1360
14066W        W32270   3.394   5.807  12.135 -0.0436 -0.1503  0.2610
14067W        W32271  11.652   2.671  15.402 -0.0017  0.2908  0.1416
14068W        W32272   0.426  17.937  12.849  0.1263  0.0215 -0.2304
14069W        W32273   4.002   0.790  11.199  0.0286  0.0721  0.0486
14070W        W32274   6.517   9.762  12.756  0.1095 -0.0961 -0.0830
14071W        W32275   7.917   3.433   4.039  0.0235  0.0942 -0.2281
14072W        W32276   4.310  16.405   1.812  0.2401 -0.4189  0.1283
14073W        W32277   5.704  16.156   0.300  0.1373  0.0219  0.1937
14074W        W32278  12.024   1.571  14.373  0.0603  0.2406  0.1089
14075W        W32279   9.579   1.624   4.564 -0.2940 -0.1481 -0.0972
14076W        W32280  15.967   5.018  15.829  0.1066 -0.2327  0.0815
14077W        W32281   2.152   7.181   3.704 -0.1188  0.0521 -0.3990
14078W        W32282   9.064   4.639  11.906 -0.0070 -0.2793  0.0894
14079W        W32283   2.134   4.625   4.114 -0.1699 -0.0173  0.0344
14080W        W32284  12.005   2.789   1.893  0.2562 -0.1261  0.0357
14081W        W32285  16.382  11.441   1.971 -0.1814 -0.1637  0.1233
14082W        W32286   9.788   5.658   0.474  0.1144  0.2197 -0.1490
14083W        W32287  15.793  11.517   4.526 -0.0191  0.2788 -0.0763
14084W        W32288   8.496   0.325   5.035  0.0170 -0.1979 -0.2629
14085W        W32289   9.668   2.076  13.055 -0.1103  0.1156 -0.0389
14086W        W32290   9.833  14.817  14.153  0.1060  0.2701 -0.0823
14087W        W32291   2.111   0.395   0.322  0.1820  0.0827 -0.1149
14088W        W32292  17.642   5.387  11.961  0.0902 -0.0375 -0.2994
14089W        W32293   7.718   7.519   4.170 -0.1949 -0.0025  0.1919
14090W        W32294   8.075   1.751  11.761  0.1159 -0.1549  0.1885
14091W        W32295   9.804  11.588  14.157 -0.3111 -0.2058  0.2409
14092W        W32296   2.347   1.248  16.080 -0.0032 -0.1337  0.1136
14093W        W32297  17.706   3.707   4.151  0.1621  0.0986 -0.0607
14094W        W32298   4.078   5.104   1.380  0.3312  0.2697 -0.0777
14095W        W32299   9.789  11.554   0.707  0.1656 -0.4205 -0.2391
14096W        W32300   3.625   4.421  14.567  0.1989  0.0548 -0.1501
14097W        W32301   4.319   9.382   2.986  0.0409  0.1091  0.1984
14098W        W32302  11.982   1.566   3.963 -0.0066 -0.0716  0.0849
14099W        W32303  14.307   4.898  11.814  0.0587  0.1563  0.2359
14100W        W32304  10.074   0.888  15.507 -0.0352  0.0257 -0.4713
14101W        W32305   2.440   2.937  14.264  0.3046  0.2075 -0.0258
14102W        W32306  14.178   4.579   3.080  0.0591  0.1442 -0.1314
14103W        W32307   3.258  10.091  14.560 -0.3367 -0.1642 -0.1407
14104W        W32308   1.396  11.564   3.903  0.2408 -0.1997 -0.0228
14105W        W32309   3.002  16.973   2.718 -0.2152  0.1760  0.1080
14106W        W32310   2.277   7.784  14.749 -0.1290  0.0771 -0.0065
14107W        W32311   1.870  15.088  15.373  0.1235 -0.2849 -0.0249
14108W        W32312  15.089   1.875   1.462  0.1631 -0.0392  0.0382
14109W        W32313  13.558   1.148   2.282 -0.0442 -0.0204  0.2678
14110W        W32314  11.955   0.086   1.171  0.3503 -0.0153 -0.2747
14111W        W32315  11.906   4.603   0.587  0.2197  0.1136 -0.1285
14112W        W32316  10.107   8.213   0.693 -0.1377 -0.1051  0.2866
14113W        W32317   6.884   7.862  11.930  0.2536  0.0053 -0.0510
14114W        W32318   8.824  14.548   2.679 -0.1279 -0.1531 -0.1164
14115W        W32319  11.649  15.128  13.870 -0.1639  0.3178  0.2985
14116W        W32320   1.909   2.442  15.552 -0.0495 -0.2366  0.2171
14117W        W32321   0.622  12.257  15.524  0.1160  0.2026 -0.1696
14118W        W32322  10.193   7.469  11.014 -0.1655  0.1295  0.1436
14119W        W32323   1.523  10.179  12.198  0.2280 -0.1020  0.0760
14120W        W32324   9.497  15.271   3.697  0.2649 -0.0030  0.0296
14121W        W32325   3.727   2.279   4.387  0.1422  0.0121 -0.1046
14122W        W32326  17.982  10.824  10.408  0.2489  0.3313 -0.2508
14123W        W32327  17.459   0.444   1.589 -0.1827  0.1950 -0.2497
14124W        W32328   3.341   3.122   2.231  0.3677  0.0123 -0.0680
14125W        W32329  17.169   8.953   1.491  0.1401  0.1431 -0.2197
14126W        W32330  15.384   2.569  12.756  0.0065 -0.2159  0.0052
14127W        W32331   9.797   7.491   0.196  0.1172 -0.3052  0.0590
14128W        W32332  15.370   0.566   2.407 -0.0221 -0.1513 -0.0936
14129W        W32333   0.386  11.286   3.616  0.2711  0.0331  0.0940
14130W        W32334   3.424   2.317  13.263 -0.0605 -0.0747 -0.2043
14131W        W32335   0.082   9.199  14.141 -0.0204 -0.1902  0.0347
14132W        W32336  16.933   7.082  15.397 -0.1087 -0.0474  0.1065
14133W        W32337  11.547   6.129  11.873  0.1407 -0.0847  0.3072
14134W        W32338  12.963  11.306   3.553  0.0726  0.0991 -0.2558
14135W        W32339  14.155  13.799   2.608  0.2380  0.3025  0.1102
14136W        W32340   7.963   9.280  15.945 -0.0072  0.0935 -0.3089
14137W        W32341   0.595  16.438  15.835  0.0364 -0.2330  0.1247
14138W        W32342   4.968   7.636  12.829  0.1198  0.2127  0.1291
14139W        W32343   3.051   2.734   2.983  0.0287  0.0768  0.2063
14140W        W32344   6.432  12.193   0.660  0.1707  0.0536  0.0331
14141W        W32345  17.561   0.507   2.363 -0.4560 -0.2654 -0.0084
14142W        W32346   9.627   1.565   3.304  0.0466  0.0180  0.1815
14143W        W32347  16.212  12.141  13.928  0.0962  0.3402  0.2885
14144W        W32348   1.045   7.591   3.858  0.1202  0.2752 -0.0099
14145W        W32349   7.586   1.097   5.178 -0.0941 -0.0229  0.0379
14146W        W32350   9.625   7.392   4.205  0.0780  0.1765  0.0644
14147W        W32351   3.449   8.109  14.104 -0.0054 -0.4050  0.0571
14148W        W32352   1.113  12.723  16.137 -0.0297  0.0095  0.1096
14149W        W32353  12.672  13.368   2.394 -0.0882 -0.0558 -0.0514
14150W        W32354  17.988  12.800   1.040 -0.2919  0.1289 -0.1769
14151W        W32355   2.579  17.903   2.485  0.0636 -0.0775  0.0755
14152W        W32356   3.530  16.671  14.337  0.0356  0.0256  0.0343
14153W        W32357  17.924  15.066  14.655 -0.1627 -0.2721 -0.1374
14154W        W32358   9.184   8.742   4.169  0.1863 -0.3264 -0.2361
14155W        W32359  12.240  14.464  13.226  0.0062 -0.0174 -0.1154
14156W        W32360   9.437  11.581   0.402  0.1852  0.4804  0.0907
14157W        W32361   0.818   7.267  13.914 -0.3503 -0.3026  0.0134
14158W        W32362   7.310   1.471   2.503  0.3333  0.2168  0.1299
14159W        W32363   5.628  13.119   1.089 -0.1809 -0.1815  0.2162
14160W        W32364  15.515   2.400   2.046 -0.0869 -0.0995 -0.2955
14161W        W32365  17.816  12.526   3.288 -0.1944 -0.0372  0.2187
14162W        W32366   5.242   2.080  15.438 -0.1214 -0.2876  0.0665
14163W        W32367   8.505  15.294   3.379  0.1853  0.1827  0.0276
14164W        W32368  11.813   1.619  12.159 -0.1279  0.0931  0.2823
14165W        W32369   9.579  17.194  12.944  0.0314  0.1428  0.0092
14166W        W32370   5.084  11.510  14.356  0.0290  0.1809 -0.2791
14167W        W32371   7.799   0.043  15.510 -0.0865 -0.1156  0.2703
14168W        W32372   5.159   0.833   2.388  0.1816  0.2393 -0.0296
14169W        W32373   4.481   3.681   0.592  0.2761 -0.3949 -0.1335
14170W        W32374  15.517  15.360   3.998  0.1471  0.0073 -0.1331
14171W        W32375  11.825  15.547   1.679 -0.1420 -0.0025  0.1139
14172W        W32376  14.551  14.113  15.782  0.0788  0.0741 -0.3271
14173W        W32377  16.003  13.592  12.364 -0.2176 -0.0359 -0.0494
14174W        W32378   8.396   9.342   1.879 -0.1684 -0.0981  0.3973
14175W        W32379  11.970   4.316   3.253 -0.2156 -0.0486 -0.0092
14176W        W32380  17.673  12.781  15.169  0.1257  0.1321  0.2504
14177W        W32381  16.301   1.479   3.455 -0.0598 -0.1195  0.0780
14178W        W32382  17.660  14.389  15.771 -0.2247 -0.1507  0.0420
14179W        W32383  10.833   4.808   2.980 -0.0376  0.2861 -0.0431
14180W        W32384   3.203  15.210  13.011 -0.0526 -0.1199  0.1423
14181W        W32385   1.778  15.085  14.846  0.0365  0.2216 -0.2043
14182W        W32386  15.129   3.675   0.414  0.4352 -0.0600 -0.1801
14183W        W32387  12.466   4.684   0.649  0.0225 -0.2926  0.1324
14184W        W32388  14.058   1.113   2.484  0.3835  0.3353 -0.3360
14185W        W32389   0.832   3.431  12.070  0.1017  0.2443  0.2623
14186W        W32390   4.344   6.620   3.238  0.0160 -0.1281  0.0220
14187W        W32391  15.781  10.385  11.666  0.0196 -0.0615  0.1419
14188W        W32392  11.201   3.378   0.774  0.0728  0.0867  0.1716
14189W        W32393   5.841  10.609  11.989 -0.0179 -0.0985  0.1582
14190W        W32394   0.226  12.234   1.979  0.1519  0.3061  0.0718
14191W        W32395  16.058  13.544   4.355 -0.0826 -0.1948  0.0984
14192W        W32396   4.403   4.305  15.060 -0.0360 -0.1216 -0.0533
14193W        W32397  10.872  15.301   4.408  0.0439 -0.2600 -0.0997
14194W        W32398  16.280   6.929  12.959 -0.0332  0.0772  0.0769
14195W        W32399  10.756  11.775  15.599 -0.0422  0.0630  0.2386
14196W        W32400  13.933  13.036   3.059 -0.0078 -0.1715 -0.1863
14197W        W32401  11.830  13.683   3.337 -0.1081  0.1831  0.2336
14198W        W32402  16.912   6.833  14.985  0.1201 -0.0512 -0.0356
14199W        W32403   7.760   1.030  11.596 -0.1225 -0.3212 -0.0927
14200W        W32404  12.403   0.054  11.807 -0.0140 -0.0946  0.3439
14201W        W32405   8.611  14.978  14.660 -0.1068  0.2203 -0.2539
14202W        W32406  15.406  15.587  10.962  0.0639 -0.0227 -0.0627
14203W        W32407   6.716   8.412  11.912 -0.0213 -0.2178 -0.4514
14204W        W32408  15.505  15.554  14.576 -0.4380  0.1583 -0.0888
14205W        W32409   8.678   8.696   2.464 -0.0217  0.2533 -0.1454
14206W        W32410   9.862  12.059   1.607 -0.0310  0.2695 -0.3430
14207W        W32411   4.616   0.708   0.471  0.1472 -0.0087  0.0145
14208W        W32412  16.021  12.729   0.450  0.0361  0.1538 -0.0547
14209W        W32413   1.633  13.718   3.730  0.2426 -0.2549  0.2453
14210W        W32414   0.225  15.993   2.578  0.1015 -0.0843 -0.0221
14211W        W32415   1.350   3.947   0.631  0.0205 -0.1293  0.1804
14212W        W32416   7.361   1.874  14.208  0.1161  0.4604 -0.0703
14213W        W32417   3.156   8.095   3.170 -0.1925  0.0451  0.1482
14214W        W32418   4.600  18.015   1.176  0.5232  0.0556  0.0009
14215W        W32419  11.522  16.899  12.116 -0.0395  0.0873 -0.1091
14216W        W32420   0.822  15.011  16.146 -0.1237  0.2002  0.0526
14217W        W32421  15.848  13.834  15.807  0.0456  0.0754  0.1443
14218W        W32422   4.632   8.659   1.279  0.0161 -0.0281 -0.0743
14219W        W32423   6.828   3.265   3.669  0.0234 -0.0699  0.0838
14220W        W32424   7.457   8.650   4.992  0.2107 -0.0825  0.3956
14221W        W32425   6.134  11.821   0.758  0.1473  0.0326  0.0221
14222W        W32426  10.064  14.399  13.697 -0.0015 -0.1755 -0.0276
14223W        W32427   3.160   6.503  15.271 -0.2391  0.0059 -0.0900
14224W        W32428  17.584  13.107  13.201 -0.0846 -0.0232 -0.1034
14225W        W32429   4.231   0.247  11.788 -0.1542 -0.0397 -0.0982
14226W        W32430   9.216   8.408   1.664 -0.0803 -0.0382  0.1264
14227W        W32431   8.227  11.709   1.826 -0.0077  0.0703  0.1129
14228W        W32432   7.511   0.029  14.241 -0.0362  0.0614  0.0271
14229W        W32433   6.259  16.113   5.045 -0.0858 -0.3058  0.1853
14230W        W32434  14.339  13.461   0.289 -0.0524  0.0966 -0.1537
14231W        W32435   7.968  11.093   3.769  0.0865  0.3479 -0.1250
14232W        W32436  12.395  11.890   0.584  0.2345 -0.0708  0.0506
14233W        W32437   6.171   9.669   3.585  0.2173 -0.3942 -0.1845
14234W        W32438   2.969  14.477  11.320  0.0283  0.0297 -0.1178
14235W        W32439  13.051   7.387  14.187 -0.1238  0.2044 -0.3043
14236W        W32440  12.498  11.846  16.171 -0.0541  0.2147 -0.0493
14237W        W32441   9.237  12.498   2.554  0.1604 -0.2043 -0.0844
14238W        W32442   8.924   1.789   1.201 -0.1949  0.1176 -0.1473
14239W        W32443  12.493  11.196   1.428 -0.0727 -0.2017 -0.1828
14240W        W32444  13.177   3.230  12.858 -0.2947 -0.1274 -0.2515
14241W        W32445   0.016   3.063  12.069  0.3191  0.0665 -0.1102
14242W        W32446  17.652  14.158   1.484  0.0024  0.0277  0.1497
14243W        W32447   8.982  15.404   4.068 -0.0610 -0.0009 -0.0170
14244W        W32448   1.430   3.578  12.188 -0.1221 -0.4301 -0.1564
14245W        W32449   8.088  12.367  13.472  0.0710  0.0528  0.4486
14246W        W32450   3.122   9.373   4.101 -0.3009  0.3741 -0.2348
14247W        W32451  12.548   7.258  14.187  0.0642  0.0845 -0.0828
14248W        W32452  11.414   6.203  13.545  0.1313 -0.2990  0.0824
14249W        W32453   6.429  13.975  13.624 -0.0220 -0.1139  0.2654
14250W        W32454   9.844   3.772   1.114 -0.0608 -0.1245  0.0806
14251W        W32455   1.715   6.158   3.209 -0.0277 -0.0034 -0.0676
14252W        W32456  15.759   4.637  15.400  0.0193 -0.2234  0.0570
14253W        W32457   3.310   8.330   5.064  0.0754  0.3090  0.2578
14254W        W32458  10.423   3.340   0.257  0.0086  0.0325 -0.1480
14255W        W32459   7.182  13.316  11.475 -0.0759 -0.0465  0.2409
14256W        W32460   7.261  15.468  10.848 -0.0228 -0.0143  0.2437
14257W        W32461  15.252   2.950  14.728 -0.0591  0.0859  0.2886
14258W        W32462   1.551   2.558  14.001  0.3223  0.0746 -0.1661
14259W        W32463   6.866   7.755   3.950 -0.0310 -0.2027  0.1484
14260W        W32464   4.240  14.699   3.734 -0.0492 -0.0027  0.1094
14261W        W32465   9.458   4.942  11.812  0.2051 -0.1217 -0.2208
14262W        W32466  11.495  17.363  14.165  0.1832 -0.1119  0.0362
14263W        W32467   2.690  11.143   1.683 -0.0327  0.2139  0.1494
14264W        W32468  10.593  14.877   3.575 -0.1571 -0.0489  0.4102
14265W        W32469   0.691  10.666  12.866  0.3432  0.1172 -0.0173
14266W        W32470  18.008  14.600  14.970 -0.0787 -0.0548  0.0619
14267W        W32471   3.250   4.405  13.550 -0.2044 -0.0485  0.0344
14268W        W32472  17.077  16.623  12.582  0.2274  0.1286  0.3041
14269W        W32473  17.418   5.358   6.364 -0.4716 -0.1726 -0.1506
14270W        W32474   3.500   8.139   4.658  0.0703  0.0387 -0.0689
14271W        W32475  11.004   4.391   4.394 -0.0979  0.0892  0.2149
14272W        W32476   4.267   4.065   1.731  0.1652  0.0756  0.0698
14273W        W32477   3.390   8.520  15.031 -0.0440  0.2548 -0.2347
14274W        W32478   8.878   8.925   0.298  0.2066  0.0996 -0.1041
14275W        W32479   2.053  13.575   4.637 -0.0433 -0.0616 -0.1019
14276W        W32480   7.341  14.367  16.174 -0.1548 -0.0182  0.2611
14277W        W32481  10.512  11.249   2.649 -0.0458 -0.0948 -0.1022
14278W        W32482  14.224  16.205   2.218  0.4389  0.0159  0.1883
14279W        W32483  13.170  15.187   2.924  0.0698  0.2328  0.0255
14280W        W32484   7.616   5.413   0.905 -0.0667  0.2042  0.1357
14281W        W32485  16.411   3.800   1.683  0.2904  0.2626  0.2157
14282W        W32486  10.523  14.733  11.443  0.2270 -0.0977 -0.1451
14283W        W32487   3.594   7.462  12.582  0.0954 -0.1684 -0.2187
14284W        W32488  14.325  12.391   5.328  0.3332  0.0582 -0.0433
14285W        W32489  17.155  12.500  12.996  0.2130  0.0132  0.2375
14286W        W32490  12.835  15.258  14.305 -0.2816 -0.0009 -0.0702
14287W        W32491   3.028  11.951   4.190  0.2794 -0.3731  0.1011
14288W        W32492   5.436   4.171  12.813  0.2948 -0.2615  0.3083
14289W        W32493   9.235   9.409  15.025  0.0475 -0.1811  0.0111
14290W        W32494   9.106  14.531  15.794  0.0910 -0.0596 -0.2588
14291W        W32495  11.129  13.628  12.709 -0.0775 -0.2484 -0.1523
14292W        W32496   3.630  14.861  13.087  0.0068  0.1546 -0.2135
14293W        W32497  12.914  12.930   4.593 -0.2777  0.2290 -0.3644
14294W        W32498  13.209  10.419  13.831 -0.2730 -0.1097  0.0565
14295W        W32499   9.840  18.011  12.006 -0.1147 -0.0114 -0.2767
14296W        W32500   6.719  17.664   4.412 -0.3060 -0.0845 -0.0944
14297W        W32501  17.377   3.727  13.051 -0.2603 -0.0903 -0.0332
14298W        W32502  15.228  15.939  12.460 -0.1614  0.1193  0.0551
14299W        W32503  14.402   0.546  15.126 -0.0996 -0.0102  0.1578
14300W        W32504   1.308  14.530  11.591  0.0784 -0.2298 -0.3037
14301W        W32505   1.708   7.243  13.943  0.2168  0.0431  0.0383
14302W        W32506   3.315   5.070   2.867 -0.0680 -0.0997 -0.0785
14303W        W32507  16.099   1.777   1.307  0.0451  0.2590  0.0907
14304W        W32508   0.437  10.084   2.583  0.1924  0.0782  0.0227
14305W        W32509   6.298  17.216  12.464 -0.0436  0.0442  0.1124
14306W        W32510  11.576   4.832   0.879  0.1609  0.0328 -0.1862
14307W        W32511   2.939   1.592  11.782  0.1358  0.0258 -0.0427
14308W        W32512  14.481  15.724  14.318 -0.0325  0.0681  0.0045
14309W        W32513   3.518   1.110   0.741  0.0004 -0.1255 -0.1989
14310W        W32514  17.555   3.403   0.975 -0.0562 -0.0235  0.2227
14311W        W32515   8.078   6.030   1.424  0.2803  0.3211 -0.1101
14312W        W32516  17.779   3.034  11.208  0.1442 -0.0525  0.2519
14313W        W32517   5.999  15.808  14.384 -0.0761 -0.1447 -0.1883
14314W        W32518  12.472   4.176   2.274 -0.0319  0.0465  0.1068
14315W        W32519  10.951   2.115  12.363 -0.1083  0.0989 -0.1474
14316W        W32520   0.878  11.139  14.737 -0.2558 -0.0194 -0.1325
14317W        W32521  16.261   7.137   4.378  0.0449  0.2587 -0.0880
14318W        W32522   8.395  16.266   4.783 -0.1864  0.1967 -0.1817
14319W        W32523   9.946  13.720  15.435 -0.0213 -0.3968  0.0757
14320W        W32524   5.283  14.244   0.180  0.1638  0.2658 -0.1549
14321W        W32525   3.623   9.315   1.844  0.1532 -0.0367  0.0144
14322W        W32526   3.440   8.143  15.840  0.3848  0.1234 -0.0490
14323W        W32527   8.296   7.090   4.551 -0.1337  0.2339  0.0154
14324W        W32528   0.871   3.131  11.112  0.0300 -0.0749  0.1547
14325W        W32529  14.105  15.347  12.880 -0.1428  0.0620  0.0990
14326W        W32530   9.787  14.881   4.294 -0.0784  0.1854 -0.0005
14327W        W32531  14.843   2.833  13.511 -0.0282  0.0669  0.1088
14328W        W32532  13.437   7.450   3.664 -0.1243 -0.1159 -0.0227
14329W        W32533  10.662  11.863   2.114 -0.0226  0.2257 -0.0218
14330W        W32534  10.229   8.454  10.799 -0.0907  0.0379 -0.1234
14331W        W32535   4.957  11.110   2.951 -0.1487 -0.3455  0.1674
14332W        W32536   4.394  16.089   3.139  0.1019 -0.0751 -0.2099
14333W        W32537  12.574   6.444   2.797  0.2209  0.1504 -0.2591
14334W        W32538  14.587  15.882  15.794 -0.0404 -0.1376  0.0997
14335W        W32539  10.127  14.269   3.230  0.2346 -0.3577  0.0180
14336W        W32540   9.605  11.785  13.729 -0.0176 -0.0899  0.0373
14337W        W32541   8.285   8.515   0.822 -0.0948 -0.0859 -0.1953
14338W        W32542   9.314   4.180  15.766  0.0376  0.0165 -0.0537
14339W        W32543   4.840  17.938   3.189  0.0565  0.0375 -0.1076
14340W        W32544  10.117   5.461   4.413 -0.2246 -0.0038 -0.0605
14341W        W32545  10.370   6.929  15.666 -0.0491 -0.1329  0.0609
14342W        W32546   3.995   5.184  15.579  0.1234 -0.1691  0.1437
14343W        W32547  17.251   4.373  15.535  0.2224  0.0161  0.1476
14344W        W32548   9.519   3.925   1.615  0.0073 -0.0668  0.0441
14345W        W32549  17.728   8.110  16.140 -0.1906  0.0746 -0.2734
14346W        W32550   3.066   5.728  11.414 -0.0888 -0.1760 -0.2317
14347W        W32551   9.157   2.663   1.014  0.1874  0.0010 -0.0451
14348W        W32552  15.023   1.921  12.229  0.1397 -0.4431 -0.0435
14349W        W32553  14.918  11.460  14.013 -0.1656 -0.2718 -0.1706
14350W        W32554   0.395   8.797   4.463 -0.1203 -0.1128 -0.1025
14351W        W32555  13.800   1.604   2.506 -0.1902  0.1571 -0.0117
14352W        W32556  14.985   4.171  11.869  0.3321 -0.2301  0.0628
14353W        W32557  14.741  12.053  13.829  0.1487  0.0479  0.1475
14354W        W32558   6.002   2.791  14.307 -0.0823  0.0867 -0.0156
14355W        W32559  11.063   0.328  12.283  0.3365 -0.2245 -0.1675
14356W        W32560   4.764  13.530  11.510  0.1872  0.0993 -0.0131
14357W        W32561  15.943   2.311  13.878  0.2096 -0.4018 -0.0675
14358W        W32562   9.622  18.013   1.669 -0.1608  0.1624 -0.1168
14359W        W32563   9.875  17.219  15.688  0.1414 -0.1467  0.2094
14360W        W32564  16.427   8.525   3.287 -0.1228 -0.0819 -0.0316
14361W        W32565  14.309   5.242   5.374  0.2203  0.2065 -0.0812
14362W        W32566  17.299   6.054   2.633  0.0757 -0.1673 -0.1088
14363W        W32567  16.396   6.100  14.119 -0.2075 -0.0688  0.0491
14364W        W32568   7.633   4.869   2.562 -0.2222 -0.3612  0.0310
14365W        W32569   7.875  16.178   3.621 -0.0895  0.0270 -0.5209
14366W        W32570   6.326  13.900   0.559 -0.1306 -0.0952  0.0405
14367W        W32571  13.403  11.999  16.014  0.2550 -0.0815 -0.0086
14368W        W32572   2.174   0.647   4.018  0.2024  0.1305 -0.2057
14369W        W32573  10.882  12.110  16.113  0.2014 -0.0487 -0.4052
14370W        W32574   9.790  16.317   0.045  0.0364  0.2111 -0.2325
14371W        W32575  13.021   1.082  12.479 -0.1132 -0.0706  0.0298
14372W        W32576  13.178   1.893   2.283  0.1435  0.0415  0.2069
14373W        W32577   5.079   3.524   0.917  0.3380  0.0314  0.0385
14374W        W32578   1.324   8.026  11.228 -0.1308 -0.1549  0.1888
14375W        W32579   8.016   6.444   1.729 -0.0445 -0.0473  0.2633
14376W        W32580   6.035   2.254   2.698  0.1584  0.0783  0.1378
14377W        W32581   7.435   2.017  13.316  0.2565  0.0145 -0.2203
14378W        W32582   3.900  15.210  16.157 -0.1742  0.2872 -0.0639
14379W        W32583  11.817   5.333  11.698  0.1088  0.1527  0.0154
14380W        W32584   4.093  15.813  10.266 -0.0585 -0.2530  0.1375
14381W        W32585   0.239  17.889   3.375 -0.2047 -0.0442 -0.2464
14382W        W32586  16.336   6.548  14.923  0.3335  0.0331  0.1432
14383W        W32587   0.785  12.938  12.363  0.0255 -0.1353 -0.0388
14384W        W32588  15.809  15.787  10.699  0.0841 -0.0702 -0.1934
14385W        W32589  17.755   9.869   2.921  0.4025 -0.0204  0.1852
14386W        W32590   9.964   0.395  15.556 -0.2330 -0.0724 -0.3688
14387W        W32591  17.457  16.555  12.299 -0.3866 -0.2018  0.1114
14388W        W32592   8.976  14.659   2.136 -0.1252  0.0268 -0.0314
14389W        W32593  16.571  15.858  12.291 -0.1571 -0.2851 -0.0660
14390W        W32594   4.204   6.400   2.760 -0.0194 -0.2286 -0.1373
14391W        W32595   8.334   8.138   1.204 -0.3676 -0.1633 -0.0338
14392W        W32596   0.955  17.093  16.166  0.1261 -0.1594 -0.0249
14393W        W32597   7.804   1.534  14.035 -0.0431 -0.0566  0.1284
14394W        W32598   8.596   4.203  13.117  0.5317 -0.0341  0.1685
14395W        W32599  14.164   7.992   0.565  0.0396 -0.0456 -0.2855
14396W        W32600  12.683   7.967  15.646  0.2300  0.3008 -0.1603
14397W        W32601   5.975   1.293  12.528 -0.1363  0.2019 -0.0313
14398W        W32602   9.463  16.478   3.661  0.0892 -0.0966 -0.0943
14399W        W32603   5.904   4.182  15.196 -0.4482 -0.0044  0.2172
14400W        W32604  13.595   1.718   0.426  0.0704 -0.2086 -0.0896
14401W        W32605   3.037  10.678  12.187 -0.1343  0.0619  0.0245
14402W        W32606  16.939  17.723   3.120  0.1745 -0.1879 -0.0498
14403W        W32607   4.090  10.919   1.739 -0.1633 -0.2187  0.0980
14404W        W32608  12.230  10.106   4.691  0.3491 -0.2093  0.2335
14405W        W32609   2.247   8.155  15.896 -0.0014 -0.0370 -0.1853
14406W        W32610  16.637  15.212   4.267 -0.1201 -0.2337  0.0409
14407W        W32611  17.497   9.933  13.586  0.1210  0.3095 -0.1056
14408W        W32612   6.059   4.965  12.763  0.1369 -0.2933 -0.0639
14409W        W32613   5.482   2.695   1.484 -0.1779  0.3079 -0.3425
14410W        W32614  11.055   9.260   0.996  0.0268  0.2470  0.1114
14411W        W32615  14.468  11.606   3.148 -0.0357 -0.1714 -0.0709
14412W        W32616   9.401  15.421   0.075 -0.0013  0.1436  0.3396
14413W        W32617  15.078  15.541   1.831 -0.3394 -0.1900 -0.2407
14414W        W32618   4.493  14.603  10.482  0.2141  0.1431 -0.0935
14415W        W32619   3.515   1.046   2.605 -0.1151 -0.0572 -0.0689
14416W        W32620   0.596   7.559   3.543  0.2130 -0.0407 -0.1489
14417W        W32621   0.813   5.095   2.197 -0.1641  0.1736  0.0024
14418W        W32622   1.712   9.427  13.544 -0.2056 -0.3215 -0.0325
14419W        W32623   2.785  11.185   0.010  0.2018  0.1142  0.2634
14420W        W32624   4.301   0.653  15.000 -0.3902 -0.0088 -0.1590
14421W        W32625  16.606   1.412  12.912  0.0836 -0.2860  0.0215
14422W        W32626  17.990  16.358  11.887 -0.2760 -0.2789 -0.0220
14423W        W32627  16.049  17.708   3.927 -0.1363 -0.1831 -0.0124
14424W        W32628  16.357   7.380  12.438  0.2218 -0.1497 -0.3257
14425W        W32629  10.802  17.322  12.968 -0.0600 -0.6501 -0.0981
14426W        W32630  12.125   3.698   3.167 -0.2306  0.3036 -0.3564
14427W        W32631   5.323   6.778  16.129  0.2226 -0.0222 -0.0045
14428W        W32632  10.385   8.984  15.219  0.0724 -0.0560 -0.0729
14429W        W32633  14.783   9.561   4.124  0.2179 -0.0506 -0.0865
14430W        W32634  12.449   9.385   3.885 -0.0185  0.1003  0.2077
14431W        W32635  13.350  10.792  13.538 -0.1041 -0.0874 -0.1769
14432W        W32636  14.308   7.324  14.871 -0.3030 -0.1454  0.1859
14433W        W32637  14.715   2.767   1.465 -0.0104 -0.1358  0.3329
14434W        W32638   4.964  16.019  11.453 -0.0614  0.1552 -0.0644
14435W        W32639   9.735  15.604   2.021  0.0341  0.0091  0.0903
14436W        W32640  15.449   8.930   4.525 -0.1855  0.0364  0.0704
14437W        W32641   2.509  16.606   3.527 -0.0138 -0.1869 -0.0553
14438W        W32642  15.410  10.396   1.714 -0.0505 -0.2357  0.1013
14439W        W32643   6.821   2.178   1.453 -0.0266 -0.3037  0.1489
14440W        W32644  13.519   8.589  13.397  0.0505  0.0799  0.0276
14441W        W32645   6.737   0.496   4.557 -0.1260  0.3181 -0.0475
14442W        W32646  14.185   1.590  11.533  0.4057  0.0984 -0.1344
14443W        W32647  10.188  17.741  12.309  0.1731 -0.1202  0.2895
14444W        W32648   0.511  13.963   3.995  0.0458 -0.0576  0.1962
14445W        W32649   1.663  17.326  10.771  0.0260 -0.1120 -0.2200
14446W        W32650   3.060   8.189  13.571  0.5059  0.1522  0.0243
14447W        W32651   1.695   8.243  14.197 -0.0221 -0.1133 -0.3226
14448W        W32652   5.672   1.930   2.810  0.2738 -0.2348  0.0407
14449W        W32653   7.550  15.765  11.976  0.0203  0.0177 -0.1169
14450W        W32654   1.126  13.567   4.204 -0.3126 -0.0467 -0.1291
14451W        W32655  12.522   6.206  14.210  0.1298  0.0753  0.3676
14452W        W32656   3.122   9.247   1.689  0.0993  0.0804 -0.0381
14453W        W32657   5.903   4.053   4.422  0.0760  0.0813 -0.1757
14454W        W32658   4.796   8.398  14.213 -0.0562  0.0992 -0.0623
14455W        W32659  15.512  10.060  11.222  0.0058 -0.2255 -0.0755
14456W        W32660   3.153   3.761   0.992 -0.0225  0.2090 -0.1009
14457W        W32661   9.699   5.939   1.234  0.0568  0.2048 -0.1323
14458W        W32662   2.490  14.537   3.106 -0.0316 -0.0943 -0.1387
14459W        W32663   1.914  12.177  12.772  0.0134 -0.1120 -0.0830
14460W        W32664  12.093   9.368  14.519  0.0479 -0.1535 -0.3122
14461W        W32665  14.897  14.153   1.651 -0.2704  0.2514 -0.2599
14462W        W32666   7.464   2.829   1.705 -0.1367 -0.0881 -0.0628
14463W        W32667   9.728   3.098   1.794 -0.1524 -0.0684  0.0208
14464W        W32668  10.602  14.013   0.101 -0.2477  0.2544  0.1278
14465W        W32669   5.089  10.850   0.866 -0.2912 -0.0404  0.1129
14466W        W32670   4.303   3.644  12.184  0.1396 -0.3706  0.1181
14467W        W32671   9.709   7.308   0.639 -0.1094  0.0943  0.0853
14468W        W32672  15.489   0.444  12.262  0.0356  0.1762  0.1611
14469W        W32673  12.679   9.209  16.152 -0.1760  0.0978 -0.1208
14470W        W32674   3.177  10.159  15.832  0.0761 -0.2499  0.3374
14471W        W32675   2.187  17.748   5.203 -0.0267 -0.2582 -0.0629
14472W        W32676   0.135   5.342  15.610 -0.1016  0.0256  0.0977
14473W        W32677   1.587  15.505  14.579  0.1044 -0.2289  0.0276
14474W        W32678  11.329   6.089  13.073 -0.0387 -0.3316  0.1407
14475W        W32679  10.390  16.865   3.876  0.0732  0.3488 -0.1771
14476W        W32680   2.504   9.866  13.647 -0.4438 -0.0690  0.0071
14477W        W32681   0.339   3.341  13.737  0.1310 -0.0643  0.0810
14478W        W32682   2.439   4.034   4.886  0.0396 -0.1896  0.0583
14479W        W32683   8.582  16.103   3.253  0.1888 -0.3140  0.1530
14480W        W32684   2.356   7.492  11.924  0.1547 -0.1514 -0.2019
14481W        W32685   3.640   0.308  16.002  0.0559 -0.0859 -0.1380
14482W        W32686   5.003  15.084  14.363 -0.0551 -0.0901  0.0657
14483W        W32687  13.288   3.637  11.707  0.3922  0.0917  0.0726
14484W        W32688  17.541  15.742   3.017 -0.0795 -0.0668  0.0338
14485W        W32689   5.649  16.292  13.074  0.0283  0.1582 -0.1503
14486W        W32690  15.247   2.521   0.201  0.0844 -0.1690 -0.1707
14487W        W32691  14.220  13.468   5.548  0.2780  0.1885 -0.1868
14488W        W32692  16.186   4.681   5.114 -0.2164 -0.0073 -0.0075
14489W        W32693  12.594   8.833   3.934 -0.0319  0.0125 -0.2748
14490W        W32694   4.820   6.161  15.554  0.3499  0.0654 -0.1283
14491W        W32695  12.612  16.691   3.942  0.0000  0.1236 -0.2080
14492W        W32696  13.213   7.546  12.037  0.1390 -0.1262 -0.1081
14493W        W32697   4.527  10.170  13.344 -0.2731  0.1685 -0.0106
14494W        W32698   7.825  16.989   4.259 -0.1733  0.0809 -0.0473
14495W        W32699  15.484   1.771   5.382  0.0381 -0.0670  0.0576
14496W        W32700  11.384   5.986   3.308 -0.1444  0.3836  0.0956
14497W        W32701   1.533  15.066   3.081 -0.0894 -0.0524 -0.0316
14498W        W32702  17.401   9.027  14.016 -0.2064 -0.1440 -0.1459
14499W        W32703   0.847  17.913  12.578  0.2711 -0.3210  0.0314
14500W        W32704  12.543  16.119  12.868 -0.2335  0.1667  0.2329
14501W        W32705  13.861   1.709  15.607  0.2583  0.2703 -0.1299
14502W        W32706  11.712   7.394   4.432 -0.2144  0.0737  0.0163
14503W        W32707  14.342   2.739  10.648 -0.0064 -0.3913  0.3350
14504W        W32708   4.529   3.129   3.412 -0.2293  0.1008 -0.2691
14505W        W32709   4.511   9.980   3.568  0.2637 -0.3003  0.0181
14506W        W32710   7.978  17.235  13.940 -0.2931  0.3346  0.2332
14507W        W32711   6.206   7.201  14.503  0.2754 -0.1510  0.1730
14508W        W32712   7.703  11.641   3.896 -0.1949  0.1704  0.0040
14509W        W32713   3.305  13.933   3.168  0.1705 -0.2435 -0.0111
14510W        W32714  13.587   4.286  16.079  0.0880 -0.0775 -0.0291
14511W        W32715  13.745   4.816   4.250  0.0558  0.2092  0.2387
14512W        W32716   1.201   4.194  13.725  0.3721 -0.2830  0.0379
14513W        W32717  16.407  13.465  14.965 -0.1010 -0.0638 -0.0205
14514W        W32718   7.966   5.553  15.826  0.0668 -0.1035 -0.0773
14515W        W32719  17.014   0.015   3.960  0.0742 -0.0707  0.0917
14516W        W32720   8.031  14.815   1.816  0.0687  0.1669  0.3617
14517W        W32721   1.255  10.796  15.856 -0.1887 -0.1311  0.0940
14518W        W32722   2.382   2.041   0.094  0.2376 -0.1134 -0.1154
14519W        W32723   6.299   2.893   5.278 -0.0718 -0.1319 -0.2369
14520W        W32724  10.567  15.458   3.458 -0.2148 -0.0758  0.0758
14521W        W32725   3.353  10.387   4.003  0.4543  0.2180 -0.3671
14522W        W32726   2.962  10.687  15.850  0.0575  0.2206 -0.1602
14523W        W32727   0.082   4.003  12.877 -0.4455 -0.2193 -0.1669
14524W        W32728  13.710  10.192   2.003 -0.0197  0.0007 -0.0255
14525W        W32729  16.011   8.228   1.908 -0.0706  0.2386 -0.0818
14526W        W32730   7.743  13.853  15.512  0.0889 -0.3170  0.1566
14527W        W32731   3.321  14.393   4.605  0.0469  0.0280 -0.2144
14528W        W32732   1.915  16.350  12.958  0.0315  0.1520 -0.4229
14529W        W32733   0.521   5.976   2.958 -0.0455  0.0798  0.0403
14530W        W32734   5.996  18.029   0.504  0.0632  0.2008 -0.3952
14531W        W32735  13.106  14.582  12.554  0.3910  0.1789  0.0284
14532W        W32736  12.476  15.267   2.316 -0.1551 -0.0183  0.1009
14533W        W32737  16.743  10.622   1.374 -0.1999  0.0732  0.1671
14534W        W32738  15.201   5.523   4.258 -0.1676  0.2056 -0.1891
14535W        W32739  14.134   1.210   3.002  0.0019  0.0867 -0.2395
14536W        W32740   0.057  10.715   0.294  0.1451  0.0579 -0.1087
14537W        W32741   1.522   7.315  14.467 -0.0672  0.1787 -0.2537
14538W        W32742   6.325   3.264   3.877 -0.0063 -0.2315  0.0388
14539W        W32743  16.104  15.557  13.662 -0.0091  0.2481 -0.0955
14540W        W32744   3.000  16.991  15.054  0.0560  0.0171  0.3035
14541W        W32745   7.002   8.625   3.492 -0.0119  0.1176  0.2309
14542W        W32746   8.193  15.132   1.366 -0.0584  0.1420 -0.0185
14543W        W32747  11.266   8.715  15.517  0.0335  0.0844  0.2477
14544W        W32748  17.234   9.864   1.620  0.2720  0.0541  0.3398
14545W        W32749   6.902   2.128   0.969  0.1299  0.2356  0.0358
14546W        W32750   4.564   5.360   3.071 -0.1680 -0.2924 -0.3990
14547W        W32751  17.650  16.685  13.892  0.2350 -0.4378 -0.0871
14548W        W32752   9.779  10.717   3.582 -0.0472  0.1479 -0.0335
14549W        W32753   8.038   2.593  14.389 -0.1960 -0.0743  0.4713
14550W        W32754  10.966  17.529  15.506 -0.0382 -0.0402 -0.0757
14551W        W32755  11.510  15.023   0.635  0.1886 -0.1765 -0.3022
14552W        W32756  15.655   0.067   1.631 -0.0712 -0.1478 -0.3422
14553W        W32757  16.987   9.103  13.786 -0.1668  0.1816 -0.1497
14554W        W32758  10.653   6.714  13.316 -0.0217 -0.0692  0.1741
14555W        W32759   6.440  14.734  11.542 -0.3517  0.0352 -0.3228
14556W        W32760   2.664  16.085   0.539  0.1050  0.0713  0.0893
14557W        W32761   3.215   3.000  14.639 -0.0236  0.2619 -0.1503
14558W        W32762   6.767   2.777   0.926  0.0805  0.1619 -0.1201
14559W        W32763  17.634  14.336   5.500  0.0314 -0.0130 -0.0178
14560W        W32764   7.122  10.867   0.721  0.1501 -0.2518  0.2323
14561W        W32765   1.566  18.007   2.600  0.2486  0.0765  0.1221
14562W        W32766   8.774  15.929   1.765  0.1685 -0.1073 -0.3191
14563W        W32767   3.267   3.425  12.138  0.0624  0.1581 -0.0463
14564W        W32768  11.254  14.288   3.114  0.0525  0.1799 -0.0780
14565W        W32769  16.333   5.001  14.070 -0.0004 -0.1037 -0.5889
14566W        W32770  14.453   9.341   0.820 -0.1673  0.0267  0.0624
14567W        W32771  17.376  10.077   3.628  0.0927 -0.0866 -0.1149
14568W        W32772   5.255   0.350  14.119  0.3625 -0.1405  0.0400
14569W        W32773  14.810   6.403   4.872 -0.4606 -0.0111  0.0685
14570W        W32774  15.900   0.567  13.840 -0.1001  0.0651  0.2652
14571W        W32775  14.673  11.999   3.475 -0.0168  0.1797 -0.0792
14572W        W32776   2.715  16.206   2.290 -0.1261 -0.0439 -0.1578
14573W        W32777   1.451   6.056   0.960 -0.0108 -0.1583 -0.0991
14574W        W32778   6.186   4.514  15.359  0.2924 -0.1559  0.2260
14575W        W32779  12.321  13.959  15.179 -0.1299 -0.1948  0.0469
14576W        W32780   3.557   3.932  14.693 -0.3499  0.0116 -0.1349
14577W        W32781  17.625  13.913   3.393 -0.0856 -0.2634  0.2358
14578W        W32782  12.343   4.397  11.243 -0.1654 -0.4469 -0.3210
14579W        W32783   9.731   3.501  15.269  0.0952  0.1572 -0.0064
14580W        W32784  17.655  13.563  15.703  0.0554  0.2420  0.2595
14581W        W32785  15.284   1.522  12.472  0.1589 -0.0685  0.1785
14582W        W32786   4.184  17.615  13.690 -0.1385  0.1556 -0.2731
14583W        W32787   1.937   8.083  14.615 -0.0448  0.1511  0.0979
14584W        W32788  14.996   6.019   6.368 -0.2031 -0.4217  0.0213
14585W        W32789   0.507  15.165  13.388 -0.1899  0.0311  0.0744
14586W        W32790  14.458   1.715  11.016  0.1063  0.0623  0.1790
14587W        W32791   8.795  17.075   3.270  0.1973 -0.0896  0.3340
14588W        W32792   1.522   6.475  12.063  0.2492 -0.1185 -0.3510
14589W        W32793   8.973  15.913  12.305  0.0008 -0.2675 -0.2364
14590W        W32794   5.333   5.560   3.644  0.1674 -0.2276  0.1637
14591W        W32795   4.992  14.509   3.085 -0.3151 -0.1152  0.0949
14592W        W32796   7.934   7.923  15.962 -0.2704  0.0286  0.0631
14593W        W32797  12.513  14.132   0.390 -0.0759  0.2591 -0.2659
14594W        W32798  16.550   0.251  11.655 -0.0335  0.1021 -0.0225
14595W        W32799  16.306   9.852  14.759 -0.0118 -0.3856  0.5900
14596W        W32800  16.195   1.073   3.776  0.0612  0.1060 -0.3144
14597W        W32801   5.243   2.518  14.462  0.1200 -0.0967 -0.2131
14598W        W32802  13.037  14.557  15.426 -0.3331 -0.0069  0.1079
14599W        W32803   7.000   8.234  14.846 -0.0502  0.2421 -0.0555
14600W        W32804   7.937   6.489  14.241 -0.1368  0.0668 -0.3650
14601W        W32805   3.867   6.531   4.729 -0.0491  0.0214 -0.2804
14602W        W32806  12.428   3.316  14.517 -0.0606  0.2230 -0.0285
14603W        W32807   0.624   2.049   1.311  0.1557  0.0658 -0.0781
14604W        W32808   8.771  14.253   0.986  0.0447  0.1053 -0.1781
14605W        W32809   8.460  16.699   4.469  0.2141  0.0825 -0.0023
14606W        W32810  10.467  14.327   1.096 -0.1630 -0.1840  0.3189
14607W        W32811  12.312   4.012   2.742  0.1797  0.2183 -0.0254
14608W        W32812   3.725   5.576   0.063 -0.0529 -0.1186 -0.0293
14609W        W32813   5.996  15.089  11.722  0.0743 -0.0520 -0.2090
14610W        W32814   5.661   9.518  11.097  0.0006  0.0516 -0.0172
14611W        W32815  10.177   1.990  11.369 -0.0242  0.1448 -0.1856
14612W        W32816   4.710   4.049  16.110 -0.1107  0.3404 -0.2224
14613W        W32817  11.663   0.495  12.567  0.0172 -0.0391  0.0884
14614W        W32818  12.763  10.573   4.372  0.1463  0.0743 -0.1880
14615W        W32819  11.793   2.553  12.381  0.0918 -0.0948 -0.2254
14616W        W32820   2.168  13.644  12.020 -0.1905 -0.2917  0.1460
14617W        W32821   4.493  11.204  12.377  0.0977 -0.2126 -0.3012
14618W        W32822  17.723  15.246   3.187 -0.0601 -0.2408 -0.1407
14619W        W32823  14.923   6.179   5.797 -0.2412  0.0134 -0.1233
14620W        W32824   8.194  14.987   4.746 -0.0602 -0.0224  0.2408
14621W        W32825  12.074  10.999   1.666  0.0978  0.1164  0.1188
14622W        W32826   5.263   2.394   0.317 -0.2896  0.3297  0.2507
14623W        W32827   9.664  17.293   1.176  0.1408  0.0902  0.1119
14624W        W32828  10.126  17.278   3.799  0.2030  0.0190  0.1298
14625W        W32829  10.892  12.197   3.600  0.0424 -0.0051 -0.0139
14626W        W32830  16.477  17.510   3.169  0.0310  0.0236 -0.1435
14627W        W32831   8.070  17.921   2.265 -0.5721  0.0205  0.0434
14628W        W32832   8.151  10.692   0.174  0.0836  0.1058  0.0588
14629W        W32833  10.307  14.869  15.692  0.0005 -0.1033  0.1864
14630W        W32834  12.624   8.318  13.486  0.0633  0.1649  0.2027
14631W        W32835  16.855   4.752   0.156  0.3459  0.1016  0.1890
14632W        W32836  10.495   0.514  15.450  0.2204  0.0033 -0.0776
14633W        W32837   7.700   4.227   2.839  0.0359 -0.1707  0.0114
14634W        W32838  12.847  14.173  12.281 -0.0397  0.1995  0.1762
14635W        W32839  11.223   3.339   4.024  0.0892  0.1435 -0.1000
14636W        W32840  17.343   3.604  16.172  0.2832 -0.1464 -0.3669
14637W        W32841   1.935   1.108  12.939 -0.0095  0.3520 -0.0434
14638W        W32842   1.297  10.537  11.265 -0.1415  0.0238  0.0101
14639W        W32843  16.850  13.883  10.552 -0.0937  0.0973 -0.1454
14640W        W32844  15.574   8.729   3.606 -0.0631 -0.0983 -0.0576
14641W        W32845   0.507   4.129   4.404  0.0937 -0.0469  0.0492
14642W        W32846   4.952   5.151  15.514 -0.1520  0.1576  0.1551
14643W        W32847   1.419  12.170  11.445  0.0549 -0.0970 -0.1607
14644W        W32848  18.037   6.487  12.487  0.2209 -0.1073 -0.2651
14645W        W32849   2.585  14.255   2.717 -0.2244  0.1044  0.0575
14646W        W32850  10.966  16.675  14.545 -0.0079 -0.2484  0.0423
14647W        W32851  14.175  13.804  12.632  0.1058  0.1998 -0.2359
14648W        W32852  17.792   6.241  11.658  0.0845  0.1608 -0.1521
14649W        W32853   6.752  14.389  14.600  0.0231 -0.3053  0.3243
14650W        W32854   9.428  11.739   3.544  0.3472  0.0669 -0.1327
14651W        W32855   3.138   5.455   1.687 -0.0999 -0.1579 -0.0387
14652W        W32856   3.934  13.308   0.996  0.1399 -0.0250 -0.1812
14653W        W32857   5.789   4.375   3.081 -0.1579  0.0385 -0.1991
14654W        W32858  13.450   7.316  13.838 -0.0060 -0.0254 -0.2054
14655W        W32859  17.086  17.535  11.157  0.0867  0.4257  0.0395
14656W        W32860   7.831   8.781  15.656 -0.2476  0.0624  0.1505
14657W        W32861   4.165  13.481  14.371  0.1578 -0.0159  0.0886
14658W        W32862   6.719   7.383   4.897  0.4302  0.1995  0.2242
14659W        W32863   5.817  13.980  13.565  0.0124  0.2973 -0.2824
14660W        W32864  17.592   0.047  11.899 -0.2592  0.0838 -0.0875
14661W        W32865   9.070   0.308   5.734  0.4122 -0.2590 -0.0662
14662W        W32866  14.734  15.733   2.894  0.0161  0.0385 -0.1648
14663W        W32867   8.843   4.401  15.587  0.2328  0.2710  0.0601
14664W        W32868   4.401   6.873   0.023  0.2057  0.0626  0.0914
14665W        W32869  12.575  11.740   5.260 -0.0565  0.0422 -0.0907
14666W        W32870  10.548  11.562  11.709 -0.0612 -0.2250 -0.0997
14667W        W32871  12.394  17.398  15.279  0.2282  0.0743 -0.2095
14668W        W32872   3.448   2.703  12.917 -0.5021  0.0309  0.0685
14669W        W32873   8.521  17.305   1.040  0.0573 -0.0200  0.0616
14670W        W32874  14.726  12.555  11.181 -0.1542  0.2161  0.1619
14671W        W32875  12.832  14.185   0.964 -0.0534  0.0259  0.0124
14672W        W32876   0.201  16.640  15.573 -0.0614  0.0190  0.1116
14673W        W32877   3.586  14.567   3.236  0.2359 -0.0824  0.0674
14674W        W32878   9.998  10.997   4.772 -0.2368 -0.2154 -0.1267
14675W        W32879   6.119  14.289   1.426  0.4552  0.1062 -0.4404
14676W        W32880  11.157   0.460   1.291  0.1657 -0.1049  0.0825
14677W        W32881  17.341   5.871  15.259  0.2519 -0.0159 -0.2723
14678W        W32882  15.247   6.755  15.640  0.0817 -0.0458  0.1857
14679W        W32883  13.714   6.066   0.949 -0.2552 -0.1867  0.1328
14680W        W32884   6.115   5.861  15.057 -0.1697 -0.0556 -0.1267
14681W        W32885   3.735  11.133   0.862  0.0727 -0.0690 -0.1834
14682W        W32886   2.188   5.829  13.390 -0.0181  0.0403  0.1254
14683W        W32887  17.872   0.543  13.942 -0.0605 -0.2319 -0.3753
14684W        W32888   7.192  17.278   3.259  0.4547  0.1620  0.0760
14685W        W32889   1.490   1.039   3.809 -0.3216  0.4125  0.1330
14686W        W32890  10.235   3.947  14.113 -0.0051  0.0712 -0.1553
14687W        W32891   1.187  17.589  12.864 -0.1679 -0.0805  0.0057
14688W        W32892   3.314   9.115  12.327  0.0084 -0.2443 -0.1500
14689W        W32893  15.012   2.778   3.468  0.0781 -0.0213 -0.2741
14690W        W32894   8.925  13.256  13.318 -0.1471 -0.0928  0.1702
14691W        W32895   7.664  13.618  12.597 -0.0758 -0.0602  0.0047
14692W        W32896  10.679  14.837   4.566 -0.0992 -0.0529  0.1617
14693W        W32897   3.997   6.567   0.053 -0.2437 -0.1039  0.2857
14694W        W32898  13.083   7.055  13.029 -0.0567  0.0711 -0.0342
14695W        W32899   2.602   3.208   2.341 -0.2232  0.0465 -0.1040
14696W        W32900  11.661  16.862  12.723  0.2355  0.0194 -0.2181
14697W        W32901   9.086   6.506  15.140  0.2210 -0.1768 -0.0862
14698W        W32902   2.884   4.787   4.744 -0.1345  0.0228 -0.2138
14699W        W32903   6.420  13.562  12.344  0.1752 -0.5962  0.0088
14700W        W32904   5.931  16.921   3.207  0.1453  0.1240  0.0961
14701W        W32905   7.737   1.407  16.125  0.1995 -0.1373 -0.0344
14702W        W32906   9.647   1.201   0.244  0.1470  0.3339 -0.0386
14703W        W32907   1.089  14.697  15.104 -0.2660  0.0410  0.0210
14704W        W32908  15.773  18.036   3.635 -0.1348 -0.1419 -0.1689
14705W        W32909   4.480  15.806   4.515 -0.0309  0.3191 -0.1367
14706W        W32910  11.702   3.056  12.151  0.0965  0.0607  0.1532
14707W        W32911  14.878  13.506  11.647  0.2813  0.0241 -0.2701
14708W        W32912   5.679  17.402  12.121 -0.0557 -0.0400  0.0785
14709W        W32913   4.441  13.809   4.167  0.0762  0.2978  0.0405
14710W        W32914   3.745   5.828   1.173 -0.0405 -0.1950  0.1295
14711W        W32915   9.801   5.743   4.110  0.1143  0.0192  0.2914
14712W        W32916   7.567   8.544  15.187  0.1935 -0.0232  0.2125
14713W        W32917  15.435   5.589  13.281  0.3827  0.1603 -0.0242
14714W        W32918  14.745   4.635  15.251  0.0179  0.1262 -0.1252
14715W        W32919   4.581   0.684  16.013  0.1394 -0.0087  0.0574
14716W        W32920   6.902   4.205  14.247 -0.3256 -0.1068  0.0405
14717W        W32921   8.505  16.071  14.992  0.0433 -0.4397 -0.1359
14718W        W32922   5.854  17.094  13.390  0.0677 -0.2648 -0.0937
14719W        W32923  17.610   0.991  14.504  0.0527  0.1241 -0.2235
14720W        W32924  16.141  16.874   4.672 -0.1313  0.2230  0.2433
14721W        W32925  17.452   9.760  14.577 -0.1940 -0.1723 -0.0795
14722W        W32926  13.120   5.664   2.126 -0.1565  0.0897 -0.2446
14723W        W32927   8.762  17.365  14.124 -0.0434  0.0845  0.1533
14724W        W32928   9.221  10.002  11.783 -0.1051 -0.0058 -0.3941
14725W        W32929   7.069  11.110   2.511 -0.2737 -0.0173 -0.0383
14726W        W32930  10.396   2.040   0.929 -0.2550 -0.0995  0.0418
14727W        W32931   1.009   1.924  11.598  0.1800  0.0152  0.1473
14728W        W32932  16.398  10.655  15.712 -0.0570  0.4229 -0.2670
14729W        W32933   3.685  17.969  13.117 -0.1306  0.0472  0.0825
14730W        W32934   3.607  11.995  13.372 -0.1572 -0.2330  0.0063
14731W        W32935  15.001  17.008   0.151  0.2472  0.0517 -0.2208
14732W        W32936  12.083  14.304   3.715 -0.3349  0.2582 -0.0427
14733W        W32937   5.576   8.872   2.657 -0.0946  0.0872  0.0942
14734W        W32938  14.899  16.644  15.411  0.0795 -0.1942  0.2256
14735W        W32939   3.411   2.978  11.940 -0.1572 -0.3697 -0.1360
14736W        W32940  10.300   5.823  15.759  0.1881 -0.3245  0.1242
14737W        W32941   4.110   6.306   0.660  0.2299  0.0588 -0.1657
14738W        W32942  16.089  13.884  15.243 -0.0284 -0.0236 -0.1875
14739W        W32943  15.249  17.732  15.795 -0.1483 -0.3291 -0.0229
14740W        W32944  12.465  17.538  15.856  0.1580  0.0519  0.0079
14741W        W32945   2.417   6.659   3.638 -0.0775 -0.4181  0.0592
14742W        W32946  14.927   9.518   4.777 -0.0284  0.0931  0.0969
14743W        W32947  16.288   4.825   4.559  0.0633 -0.0457  0.1137
14744W        W32948  17.109   8.610  12.886  0.0180  0.1591 -0.0972
14745W        W32949   9.972  13.349   2.135  0.2605  0.4565 -0.0880
14746W        W32950   0.142  17.034  10.774 -0.2034 -0.3057  0.1560
14747W        W32951   9.778  14.713  15.952  0.0751  0.1373  0.0038
14748W        W32952  13.926  15.987  14.034  0.3180  0.0581 -0.1302
14749W        W32953   0.197   7.716   5.150  0.2965  0.3057  0.1666
14750W        W32954  16.430  13.976   1.788 -0.0686  0.0552 -0.3404
14751W        W32955  11.241   4.042  13.686 -0.0231 -0.0367 -0.0115
14752W        W32956   8.491   6.026  13.699  0.1251 -0.5016  0.2055
14753W        W32957  12.600  17.956   0.105 -0.1328 -0.0042  0.2436
14754W        W32958   7.778  12.920   3.958 -0.1373  0.2798  0.2011
14755W        W32959   6.487   0.162   0.561  0.0829  0.0164 -0.2898
14756W        W32960   3.825   6.702  14.666  0.1014 -0.1176  0.0601
14757W        W32961  11.913   9.033   1.836  0.1607 -0.0515  0.0896
14758W        W32962   9.237   3.737   4.492 -0.1415  0.1314  0.2013
14759W        W32963  13.084  17.192  14.773 -0.0774 -0.1329  0.1379
14760W        W32964  15.435   1.052   0.257  0.1062  0.3571 -0.1417
14761W        W32965  14.912   7.088   1.226  0.1088  0.2024  0.0320
14762W        W32966   5.121  16.401   0.276 -0.0082  0.1729  0.2388
14763W        W32967   1.949   3.663   1.559 -0.1769  0.0048 -0.1268
14764W        W32968   9.190  16.288  11.387  0.0344  0.0881 -0.3035
14765W        W32969   5.760   0.842  12.382 -0.0343 -0.0304  0.0244
14766W        W32970  10.643   4.836   0.009  0.2840  0.0625  0.1395
14767W        W32971  17.696   3.131   0.618 -0.1104 -0.1125  0.1808
14768W        W32972   0.465  12.617  13.260 -0.3232 -0.0980  0.0241
14769W        W32973  16.645   9.506  15.273 -0.0098  0.0450 -0.0404
14770W        W32974   3.904  14.920  13.535 -0.2190  0.1646 -0.1145
14771W        W32975   3.695   1.534   1.250 -0.2349 -0.2724  0.0075
14772W        W32976   2.975   5.516   3.704  0.0844 -0.1671 -0.1597
14773W        W32977  10.723   6.770  16.118  0.0878  0.0959  0.0271
14774W        W32978  13.412  14.586   2.162  0.2689  0.1142  0.0536
14775W        W32979  14.559   2.410  13.417 -0.0898  0.0397  0.1708
14776W        W32980   5.632   3.853  13.565  0.1083  0.4322 -0.0023
14777W        W32981   0.426  16.593   0.808 -0.1383 -0.0087 -0.1374
14778W        W32982  15.771  14.262  16.013 -0.0501 -0.3477 -0.3113
14779W        W32983   8.778  16.359  10.054  0.0408 -0.1951  0.1756
14780W        W32984   8.940   1.398  13.742  0.1114 -0.1561  0.2829
14781W        W32985   4.124  13.053   1.443 -0.1590  0.1601  0.1456
14782W        W32986  14.949  13.282  13.144  0.2314  0.0406 -0.3319
14783W        W32987  16.481   8.937   4.522 -0.0485  0.2709 -0.1602
14784W        W32988   4.132  10.241   4.735 -0.1477  0.1714  0.2064
14785W        W32989   0.737  10.327   0.999  0.0289  0.0571  0.1913
14786W        W32990   4.688   6.617  13.989  0.0803  0.0210  0.1604
14787W        W32991   7.431  12.173  14.647  0.2450 -0.0797  0.0062
14788W        W32992   9.983   4.164   4.527 -0.2424  0.0873  0.0150
14789W        W32993  14.259  11.063  12.021 -0.0757 -0.1936  0.3104
14790W        W32994   6.021   5.413   4.690  0.3614  0.2211  0.1259
14791W        W32995   5.376   9.730   1.453 -0.1393  0.0119 -0.2391
14792W        W32996   5.117   4.139  11.829  0.2857  0.3238 -0.0548
14793W        W32997   7.930   3.978   3.184 -0.2488  0.0345 -0.2022
14794W        W32998  15.951  11.217  11.737 -0.0916  0.2190 -0.2809
14795W        W32999  15.934   9.740  12.442  0.0530  0.2393  0.0858
14796W        W33000  16.268   0.489  15.306  0.3943  0.0182 -0.0862
14797W        W33001   1.552   6.474   2.520  0.0980  0.0700 -0.0110
14798W        W33002  17.998   6.902  11.023  0.1189 -0.0685  0.0891
14799W        W33003  15.206   1.368   3.809 -0.2142  0.1708  0.2273
14800W        W33004  13.541   2.995  14.807 -0.2018  0.1483 -0.1429
14801W        W33005  15.883   7.259   0.826 -0.3631  0.2222 -0.1459
14802W        W33006   2.187   5.496  11.396  0.1479  0.1136 -0.1044
14803W        W33007   5.398   3.322  14.966  0.5599 -0.1101  0.2573
14804W        W33008  11.293  13.379  15.940 -0.0180 -0.0356  0.2249
14805W        W33009  10.050   3.402  11.960  0.0317 -0.2599  0.0690
14806W        W33010   6.612  13.894   0.162  0.1147 -0.1081 -0.5486
14807W        W33011  12.291   4.269  13.477 -0.1315 -0.2147 -0.1074
14808W        W33012   0.324  11.270  13.104  0.1946  0.0283 -0.1149
14809W        W33013   3.342   1.593  16.052 -0.0394 -0.1273  0.1552
14810W        W33014   9.244  12.680   2.038  0.1715 -0.0308  0.1612
14811W        W33015   1.023  17.502   0.223 -0.0566 -0.1556  0.1663
14812W        W33016   1.874   3.441   1.150  0.2652 -0.2398  0.1597
14813W        W33017   1.763   5.394  14.099  0.2664  0.2675  0.2029
14814W        W33018   8.921   5.587  12.082  0.2518  0.1860  0.0372
14815W        W33019   7.609   9.507   2.515  0.1234 -0.0484 -0.0823
14816W        W33020   9.004   1.643  12.609 -0.1805  0.2141 -0.1072
14817W        W33021  17.079  10.139  11.902  0.0972 -0.0727 -0.0011
14818W        W33022   1.142  14.492   3.355 -0.2463 -0.0075 -0.0188
14819W        W33023  17.665   1.401   0.461  0.1400 -0.2244  0.1864
14820W        W33024   6.380  13.258   4.361 -0.0731  0.2215 -0.3918
14821W        W33025  11.782   7.203  15.215  0.2265  0.1835  0.0504
14822W        W33026   1.958  16.401   2.737  0.2231 -0.0675 -0.0616
14823W        W33027   7.520  17.253   1.278  0.1240  0.3694  0.1851
14824W        W33028  13.391  14.435  12.090  0.3080  0.0485  0.2066
14825W        W33029   8.802   3.922   4.100 -0.3321 -0.2718 -0.0470
14826W        W33030  16.011  17.141   4.229 -0.1440  0.0016  0.1190
14827W        W33031   0.969  10.642  13.285 -0.0631 -0.2910  0.0758
14828W        W33032   2.131   2.405  13.098 -0.2468  0.0291  0.0795
14829W        W33033   9.235   8.432  12.002  0.2793 -0.0064  0.1230
14830W        W33034  14.412   5.654   2.667  0.1846  0.1058  0.0170
14831W        W33035   0.031   5.195   0.403  0.3002  0.0222  0.1415
14832W        W33036  14.534   6.220   3.653  0.5034 -0.4038  0.0538
14833W        W33037   8.641  13.827  15.821 -0.1269 -0.1969 -0.0665
14834W        W33038  16.376   2.880  12.109  0.0366 -0.2544  0.0125
14835W        W33039  16.880  10.398  15.555  0.1780 -0.0088  0.1043
14836W        W33040   8.413   8.613  13.636 -0.1265 -0.0366 -0.1219
14837W        W33041  11.483   2.458   0.277 -0.1897  0.0423  0.0749
14838W        W33042  11.885   8.837   1.025 -0.1942 -0.0844  0.0169
14839W        W33043  10.088   6.503  14.103  0.3244  0.0088 -0.0168
14840W        W33044   6.450   2.854  12.294  0.0904 -0.1766  0.2847
14841W        W33045   2.465   4.881  13.018  0.2245 -0.1345 -0.0547
14842W        W33046   4.146  12.463  14.209 -0.0296  0.1442  0.1665
14843W        W33047  12.866  13.900  12.717 -0.0520  0.0942 -0.2413
14844W        W33048   6.307   1.491  12.226 -0.1315 -0.1599 -0.2296
14845W        W33049   1.142  17.949   1.779 -0.3244  0.0244 -0.1291
14846W        W33050   1.162  10.905  14.344  0.0349  0.5781 -0.2042
14847W        W33051   5.558   7.146  12.785  0.0013  0.1811  0.0676
14848W        W33052   4.261  13.103  14.854 -0.0169  0.0069  0.1590
14849W        W33053   9.854  16.285  15.241 -0.1199  0.2659 -0.0366
14850W        W33054   1.865  15.899   3.781  0.1538 -0.1876  0.1655
14851W        W33055  11.940  15.370  15.561  0.0642 -0.0575  0.0486
14852W        W33056  12.045  11.971  11.961  0.1376 -0.0540  0.3027
14853W        W33057   6.340   2.059  12.204  0.0974  0.1666  0.0684
14854W        W33058  15.283   0.429   1.867  0.0622 -0.0092 -0.0708
14855W        W33059  10.461  16.620  14.280 -0.0349  0.1943 -0.1415
14856W        W33060  10.682   2.728   3.079  0.1145  0.0221 -0.2630
14857W        W33061   3.656  13.652   4.345 -0.0900 -0.4661 -0.0064
14858W        W33062   4.988   0.091  13.807 -0.2268 -0.0147  0.3014
14859W        W33063   9.724   6.079  11.644  0.1079  0.3421 -0.1875
14860W        W33064   9.221  11.231   4.371  0.0002  0.1076 -0.2101
14861W        W33065   7.608   4.745   4.962  0.0964  0.0857 -0.4333
14862W        W33066  12.707   2.753  12.586  0.1430 -0.3051 -0.0073
14863W        W33067   4.667  13.361  12.917 -0.1407 -0.0066  0.2380
14864W        W33068  12.718   3.041  12.075  0.0961  0.0686 -0.1423
14865W        W33069   5.902  16.171   1.578 -0.0433  0.1563 -0.2133
14866W        W33070   5.627  14.134  13.124  0.1262 -0.0506 -0.2938
14867W        W33071   1.260   8.981  15.724 -0.0028  0.3249 -0.0904
14868W        W33072   2.310  11.850  13.790 -0.0777  0.0137 -0.0121
14869W        W33073   9.763  18.018  13.815  0.2846 -0.1200  0.1517
14870W        W33074  13.209  13.439   0.184  0.0441  0.1327  0.2184
14871W        W33075  17.310   6.684   3.487 -0.0808  0.0293 -0.1970
14872W        W33076  11.564   1.448   3.693 -0.3182  0.1626  0.3228
14873W        W33077   4.491   7.202  14.119 -0.3295  0.0513  0.0153
14874W        W33078  16.291   9.332   4.356  0.4799 -0.0593  0.0278
14875W        W33079  12.214   6.389   4.637 -0.0491  0.0754 -0.1017
14876W        W33080   1.306  10.146   0.230  0.2847  0.0176  0.1197
14877W        W33081   6.056   3.673  15.114 -0.2385 -0.2920  0.0173
14878W        W33082  13.172  17.266  14.260  0.0782 -0.0096  0.0155
14879W        W33083   6.358  12.695   0.617  0.0689  0.1253 -0.0532
14880W        W33084  11.326  17.812   1.758  0.0695  0.0970 -0.2704
14881W        W33085   1.584  13.662  10.217  0.0476  0.1422 -0.0656
14882W        W33086  16.651   2.735   1.227 -0.1681  0.1734  0.0555
14883W        W33087   9.772  14.749   3.095 -0.2130 -0.0401 -0.4807
14884W        W33088   8.126  12.229  15.085 -0.0949  0.2584  0.1081
14885W        W33089  14.156   6.416   1.462  0.0247 -0.1660  0.1195
14886W        W33090   7.252  14.025  13.359  0.0500  0.1529  0.1355
14887W        W33091   2.343  15.334   1.902 -0.0968 -0.0296 -0.1726
14888W        W33092   7.041   2.512   0.668  0.0899  0.2319  0.1255
14889W        W33093  11.575   6.047  12.656  0.1147 -0.2730  0.0079
14890W        W33094  11.227   1.836   1.108 -0.0041  0.0020 -0.1475
14891W        W33095   6.262  12.231  12.321 -0.2311 -0.1707 -0.4390
14892W        W33096  15.186   4.688   3.286  0.0227 -0.0687 -0.2908
14893W        W33097  13.179   0.377  10.827  0.1429 -0.2926 -0.2367
14894W        W33098  17.800   7.384  14.959 -0.1302  0.1947 -0.0020
14895W        W33099  11.462   0.353  15.517  0.2186  0.0879  0.0657
14896W        W33100  10.992  11.651  13.148  0.2497  0.0205  0.1538
14897W        W33101  11.087  14.839  12.093  0.1219  0.2489 -0.2805
14898W        W33102  13.772   5.567   6.084 -0.2302 -0.0507 -0.2911
14899W        W33103   5.989   3.504  16.056 -0.0420 -0.2094  0.1158
14900W        W33104   1.674   3.902   2.682  0.0573 -0.0189  0.1196
14901W        W33105   6.517   9.721   5.929  0.1196 -0.0146  0.1388
14902W        W33106   3.387   3.887  12.323 -0.0214  0.5022 -0.1231
14903W        W33107   7.669   2.038  12.542 -0.1758  0.0581  0.4854
14904W        W33108  13.953   3.042   1.384 -0.0719  0.2279  0.2156
14905W        W33109   2.432   9.175   3.366  0.1310  0.0728  0.0636
14906W        W33110  14.245   2.818   1.774  0.2514  0.1918 -0.1064
14907W        W33111  14.415  14.985  13.135  0.1720  0.0967 -0.1724
14908W        W33112   2.880   6.331  13.874 -0.2037 -0.1116  0.4018
14909W        W33113  16.940  15.828  12.652 -0.2352  0.0495 -0.1763
14910W        W33114   4.204  14.195   3.637  0.0238  0.1208  0.0261
14911W        W33115  15.474  15.484  12.408 -0.2129 -0.1987 -0.2424
14912W        W33116   4.628  17.256   4.660 -0.2512  0.0064  0.1564
14913W        W33117  11.521  10.029  14.226 -0.1858  0.0982 -0.2293
14914W        W33118  12.458  12.546   3.830  0.4499  0.0917  0.1291
14915W        W33119   4.978   4.308   4.695 -0.1333  0.0219 -0.1078
14916W        W33120   1.213   3.002  14.272  0.1352  0.3947  0.1789
14917W        W33121   5.481  11.795   3.433  0.1579 -0.0623 -0.0051
14918W        W33122   4.882  17.117   2.146 -0.0663  0.2849 -0.1713
14919W        W33123   3.114   8.402  12.787 -0.1275  0.0152  0.0968
14920W        W33124   6.970  12.507   4.028 -0.0882 -0.3393 -0.0211
14921W        W33125  11.710   0.166  13.369  0.1811  0.1958 -0.2321
14922W        W33126  12.526   2.124   1.749 -0.0869  0.2733  0.0393
14923W        W33127   8.314  15.399  14.921 -0.1132  0.1339  0.0714
14924W        W33128  17.193  11.866  13.548  0.0276 -0.0570 -0.1178
14925W        W33129  12.243  16.424   3.696  0.2540 -0.0127 -0.0007
14926W        W33130   0.966   4.790  13.580 -0.2748 -0.3008 -0.0423
14927W        W33131   0.269   1.499  12.620 -0.0889 -0.0041  0.0110
14928W        W33132  15.804  11.926   3.315 -0.0501  0.3950 -0.1667
14929W        W33133  10.708   1.963   1.323 -0.1987  0.4579 -0.1105
14930W        W33134   6.611  13.737   1.872 -0.1716 -0.2428 -0.5502
14931W        W33135   8.519   1.232  14.890  0.1024  0.1611 -0.1219
14932W        W33136   6.699   6.536   1.526  0.2195 -0.1674  0.1316
14933W        W33137   5.092   5.360   2.339  0.1416  0.0251  0.1833
14934W        W33138   4.086  13.473   5.006 -0.1131  0.1858  0.0657
14935W        W33139   7.352  11.736   3.290  0.2769 -0.0683  0.0045
14936W        W33140   9.232   5.429  13.652 -0.2726 -0.0187  0.1465
14937W        W33141   4.626  12.369  12.037  0.0195  0.2817 -0.0990
14938W        W33142  16.258   0.207  12.956  0.0228  0.3547 -0.2301
14939W        W33143   3.947  14.601  11.270  0.0659  0.2905 -0.0851
14940W        W33144   1.141   0.808   2.274 -0.1319  0.0123  0.1929
14941W        W33145  10.597   5.672   1.641  0.2798 -0.2185 -0.0485
14942W        W33146   2.821   9.521   0.371 -0.0963  0.0453 -0.3284
14943W        W33147  11.366   7.538  12.078 -0.0404 -0.3984  0.1577
14944W        W33148  10.979  16.873  10.821 -0.0646 -0.0182  0.0796
14945W        W33149  12.078  18.031  14.261 -0.0720 -0.0780 -0.1321
14946W        W33150  14.449   6.991  15.910  0.1009 -0.0250  0.0897
14947W        W33151   6.787   1.182  15.982 -0.1729 -0.0006 -0.0787
14948W        W33152  15.530  16.665  13.809 -0.1847 -0.0664 -0.1304
14949W        W33153   6.224  11.230   2.212  0.2118 -0.1284 -0.3236
14950W        W33154   1.022   2.587   1.086  0.1711  0.0339  0.0804
14951W        W33155   4.021  14.764   0.190  0.2023 -0.1346 -0.2934
14952W        W33156  15.890   4.210  13.824  0.0762  0.1891 -0.0884
14953W        W33157   1.915   4.542  11.023 -0.1018  0.0767 -0.1376
14954W        W33158   6.662   8.126   0.838  0.1977  0.1410  0.2140
14955W        W33159  17.095  15.483   3.822  0.2322  0.1662  0.2851
14956W        W33160   6.115  13.284  14.021  0.2660 -0.1095 -0.0755
14957W        W33161  15.129  15.145  15.999 -0.1230  0.0596  0.1928
14958W        W33162  15.764  16.017   4.498  0.2528 -0.3068  0.2377
14959W        W33163  17.236   7.974  15.924  0.1848 -0.0005  0.0062
14960W        W33164  13.064   0.402   2.559  0.3113  0.1622 -0.0674
14961W        W33165   9.831  10.076   4.737  0.0473 -0.1055 -0.2172
14962W        W33166  15.875   6.765   3.496  0.1057  0.1784 -0.0611
14963W        W33167   7.836   3.207  16.041  0.0807 -0.1758  0.2272
14964W        W33168   8.443   4.961  13.234 -0.0436 -0.0169 -0.1839
14965W        W33169  13.862   2.116   0.808 -0.2318  0.1879  0.4150
14966W        W33170   9.137   3.679  15.760  0.0493  0.0049 -0.1557
14967W        W33171  10.769   2.694  14.851 -0.1394 -0.0866  0.1761
14968W        W33172  15.164   5.087   0.419 -0.3201  0.0914 -0.0153
14969W        W33173  17.056   9.707   3.479 -0.0526  0.1723  0.0155
14970W        W33174  10.768   3.448   4.161  0.0163  0.0704 -0.1138
14971W        W33175  14.389   3.771   1.964  0.1134 -0.1189  0.4278
14972W        W33176   2.501   4.406  10.851  0.0763  0.0298  0.0709
14973W        W33177  10.920   0.146  14.666 -0.0314  0.2107  0.1498
14974W        W33178   0.391  17.405  10.469  0.0701  0.3036 -0.1573
14975W        W33179   6.463   3.584   0.278 -0.0335 -0.0314  0.1278
14976W        W33180   9.066   9.594  14.394  0.0919  0.2024 -0.1044
14977W        W33181  12.043  12.757   0.756 -0.0906 -0.2146 -0.0179
14978W        W33182   3.317   9.722  14.855  0.1813 -0.1305  0.1278
14979W        W33183   7.299   2.378   3.853 -0.1184  0.2764 -0.2038
14980W        W33184  12.141  17.640  12.562 -0.1177 -0.0624 -0.1013
14981W        W33185   9.099  17.045   2.514 -0.1114  0.0595 -0.1906
14982W        W33186   4.164  10.785   5.023 -0.0170  0.1179 -0.0647
14983W        W33187  11.143  17.905   0.709 -0.0878 -0.1314 -0.1407
14984W        W33188  10.222  12.084   0.178  0.0952  0.1679 -0.0457
14985W        W33189  15.622   1.824  14.019 -0.2876  0.0152 -0.0036
14986W        W33190   5.275  15.625   4.085  0.1029 -0.1227 -0.1913
14987W        W33191  16.812   0.561  10.887  0.3862 -0.0580  0.4531
14988W        W33192   5.311   9.133  11.554 -0.1162  0.2611 -0.2530
14989W        W33193  16.878   4.329   0.432 -0.2115 -0.0446  0.1398
14990W        W33194  17.501  11.529   1.697 -0.1657  0.0333  0.2324
14991W        W33195   3.825   4.133  13.668 -0.2752 -0.0832  0.0561
14992W        W33196  15.311   3.843  12.063 -0.0110 -0.1333  0.1999
14993W        W33197  10.818   7.935   1.899  0.0882  0.1628 -0.3972
14994W        W33198  13.017   3.646   5.501  0.0470  0.0146 -0.2740
14995W        W33199  13.003   8.903   3.692  0.0042  0.0360  0.0729
14996W        W33200   6.318   0.821   4.187 -0.0746 -0.0343 -0.2017
14997W        W33201  16.698  13.524   1.888 -0.0004 -0.3140 -0.0890
14998W        W33202  17.975   4.682  15.120  0.0659 -0.2451 -0.1820
14999W        W33203   8.081   2.105   2.687 -0.1668  0.1167  0.0323
15000W        W33204   8.478  11.968  11.566  0.1375 -0.0636 -0.2091
15001W        W33205   3.668  11.634   3.187  0.2228  0.0586  0.0470
15002W        W33206  13.609  16.746  12.121  0.0311 -0.1380 -0.0943
15003W        W33207  17.683   7.111   6.380 -0.1306  0.3280 -0.2196
15004W        W33208   4.137   0.414  12.566 -0.1120  0.1306  0.1458
15005W        W33209   0.163  15.267   0.446  0.3284  0.1742  0.1928
15006W        W33210   5.647  17.466  15.051 -0.0929 -0.1162  0.2247
15007W        W33211   5.797  15.667  12.856  0.2401  0.2067 -0.0866
15008W        W33212  17.305  12.681   1.585  0.0233  0.0408  0.1242
15009W        W33213   9.926   8.550   3.284  0.1521  0.0548  0.0983
15010W        W33214   4.944   9.794   3.799 -0.2529 -0.1854 -0.0418
15011W        W33215   0.262   7.258   3.274  0.1090 -0.1020 -0.1263
15012W        W33216   2.924  16.264   0.062 -0.1008  0.0576 -0.2323
15013W        W33217  13.616  14.529   0.590 -0.0424 -0.1827 -0.2780
15014W        W33218   2.466   1.387   5.320 -0.0158  0.2644 -0.1974
15015W        W33219   8.445   5.393  16.022  0.0245  0.0416  0.0199
15016W        W33220   5.312  15.072  15.818  0.2139 -0.0450  0.0390
15017W        W33221   0.349  15.407   2.677 -0.2300 -0.1686  0.1143
15018W        W33222   0.821   6.457   6.279  0.0205 -0.4441  0.2401
15019W        W33223  15.959   5.367  13.351 -0.1260  0.0131  0.1983
15020W        W33224  16.355   8.637   1.065 -0.0755  0.0962 -0.1945
15021W        W33225  14.840   0.849  15.335 -0.3700 -0.0931 -0.0279
15022W        W33226   6.376   4.206  13.157 -0.1445 -0.1338  0.1291
15023W        W33227   4.364  11.546  11.706 -0.0823 -0.0477 -0.1145
15024W        W33228  10.991   5.848  15.794  0.1045  0.1346  0.1491
15025W        W33229  10.583  11.941  14.474 -0.1213 -0.1763 -0.2964
15026W        W33230  15.876   0.871   2.920 -0.2653  0.2144 -0.1406
15027W        W33231   9.015  12.781  15.413 -0.2910 -0.1645 -0.3929
15028W        W33232   8.601   9.611   0.704 -0.0988  0.0290  0.1924
15029W        W33233   9.215  10.374  12.206  0.2640  0.1763 -0.0301
15030W        W33234  15.341   4.301  12.796 -0.2707  0.1373 -0.2462
15031W        W33235   5.752  13.455  13.239  0.0558  0.0234  0.1670
15032W        W33236  15.075  13.192  12.051  0.2949 -0.2137 -0.4257
15033W        W33237  12.120   1.738   0.480  0.0402  0.1334 -0.1212
15034W        W33238   4.682  13.168   2.705 -0.1878  0.0275  0.3252
15035W        W33239  14.776   4.832   2.366 -0.0533  0.0922 -0.3212
15036W        W33240  15.242   8.687  11.869 -0.0175  0.0473 -0.1046
15037W        W33241   1.520  15.443  15.507 -0.2902 -0.4017 -0.3698
15038W        W33242  15.475  16.228   0.881  0.5685  0.0533 -0.2391
15039W        W33243   2.755  15.783  12.250  0.0442  0.0801  0.0814
15040W        W33244   9.114   8.599  15.591 -0.0293 -0.0144 -0.2133
15041W        W33245  15.263   8.042  16.070  0.0759  0.1566 -0.2284
15042W        W33246   6.651   5.476  12.369 -0.1629 -0.3276  0.2917
15043W        W33247  10.042  11.981   2.328  0.1262  0.3259  0.1655
15044W        W33248  16.511   8.323   0.422 -0.0157  0.1697  0.1151
15045W        W33249   0.297   2.739  12.310 -0.0145  0.0966  0.0128
15046W        W33250  12.552   0.132   1.025 -0.0635 -0.1454  0.2017
15047W        W33251  11.910   9.042   3.431 -0.1623 -0.2491  0.1565
15048W        W33252   5.433  13.237   3.337 -0.1607  0.0053 -0.0470
15049W        W33253  12.292  10.351   2.187 -0.0226 -0.0355  0.2838
15050W        W33254   7.599   9.841  14.321 -0.3661 -0.3487  0.0776
15051W        W33255   7.963  16.650   2.990  0.1649 -0.2021  0.0009
15052W        W33256   7.110   8.334  15.316 -0.0342 -0.2339 -0.1889
15053W        W33257   8.046  10.233  15.411  0.0226  0.1034 -0.0403
15054W        W33258  14.930  12.709  12.647 -0.2334 -0.2581 -0.0245
15055W        W33259   6.372   0.832   2.093  0.2142  0.0090  0.0510
15056W        W33260  11.269   6.711   4.804 -0.0647 -0.2849  0.1198
15057W        W33261   8.364   5.866   0.574 -0.1726 -0.2750  0.2620
15058W        W33262   0.491  14.918   4.004 -0.0219  0.2623 -0.2166
15059W        W33263   3.161   2.733   0.771 -0.2736  0.2361 -0.1032
15060W        W33264   1.203   7.126  14.184 -0.2223 -0.2109 -0.1112
15061W        W33265  10.718   9.292  16.140  0.0385 -0.3898  0.0474
15062W        W33266  14.805  15.945   0.189 -0.0445  0.0369 -0.0681
15063W        W33267  11.006   2.495   0.556 -0.0366 -0.2159 -0.0358
15064W        W33268   5.948   0.190   3.981  0.0419 -0.0619  0.2951
15065W        W33269   0.932   2.722   2.607  0.2296  0.1265 -0.0478
15066W        W33270   4.123   8.217   0.130 -0.1480  0.0275 -0.0005
15067W        W33271   4.358   6.177  11.871 -0.0884 -0.0101 -0.2850
15068W        W33272   2.566  12.923   0.174 -0.1937 -0.0771 -0.0366
15069W        W33273   2.453   8.605  12.479  0.3065 -0.2197 -0.0343
15070W        W33274   6.079  15.451  12.394 -0.1676  0.1724 -0.0441
15071W        W33275  17.902  17.719  14.652  0.1603 -0.0334  0.1054
15072W        W33276   6.543   7.514   3.649 -0.0999 -0.2491 -0.0183
15073W        W33277  12.766  11.360   2.409 -0.2559 -0.1047 -0.1572
15074W        W33278   5.004  17.464  13.164 -0.2073  0.1756 -0.0431
15075W        W33279   6.488  16.379   4.027 -0.0229  0.0710 -0.0626
15076W        W33280  14.533  13.164  11.755 -0.2335  0.1386  0.1405
15077W        W33281   0.556   9.832   2.042 -0.0071 -0.0743 -0.0435
15078W        W33282  12.909   8.581   4.255  0.0252  0.0201  0.3173
15079W        W33283   2.006  15.142   0.601 -0.0098 -0.0737 -0.0068
15080W        W33284  11.328   7.913  13.620  0.0804 -0.4339  0.0490
15081W        W33285  14.284  10.510  11.701 -0.1163  0.0802 -0.0652
15082W        W33286   9.067  11.041   2.839  0.3727 -0.0816  0.3503
15083W        W33287   5.828  10.882  13.036 -0.0052  0.0026 -0.2915
15084W        W33288   4.638   3.419  16.072 -0.1399  0.0856  0.2250
15085W        W33289   9.049  12.279  15.503 -0.1689  0.1664  0.0555
15086W        W33290  17.837   8.399   3.912  0.0037 -0.0306  0.0005
15087W        W33291   7.924   3.664   2.708  0.1015  0.0737 -0.1707
15088W        W33292  10.415   2.034  12.252 -0.2449 -0.0624  0.4646
15089W        W33293  15.133  13.898  11.501  0.1866  0.1497 -0.1253
15090W        W33294   5.798   7.222   1.120 -0.4147 -0.1925  0.0759
15091W        W33295  10.529   0.541  14.674 -0.2042 -0.3376 -0.1729
15092W        W33296  14.897   6.395  12.469  0.0419  0.0650  0.1255
15093W        W33297   7.068   2.848   2.671 -0.0768  0.0513 -0.1243
15094W        W33298  14.828   1.162   0.293 -0.3367  0.0882  0.1742
15095W        W33299   9.665   0.629   1.935 -0.0571  0.1874 -0.0130
15096W        W33300   8.146  12.233  15.588 -0.2665 -0.1751  0.0766
15097W        W33301   4.628  11.693   2.554 -0.3641 -0.0056 -0.1054
15098W        W33302  17.017  12.510   3.336  0.1091  0.2385  0.2363
15099W        W33303   4.402  10.836   3.673  0.1219  0.3133  0.0293
15100W        W33304  16.819  15.723  15.179  0.1800 -0.0100 -0.0650
15101W        W33305  12.640  14.829   2.234  0.1607  0.1659  0.1241
15102W        W33306   2.883   0.602  14.628  0.2106 -0.0394  0.0204
15103W        W33307   7.129   2.164  12.745  0.0578  0.0531 -0.1829
15104W        W33308  12.794  14.947  12.564  0.1191  0.3661  0.2051
15105W        W33309  10.487   6.181   1.726 -0.2067  0.0066 -0.0418
15106W        W33310  14.703  12.800   1.263 -0.3341  0.0382  0.0584
15107W        W33311  13.513   1.248   0.684  0.1532  0.2336 -0.0532
15108W        W33312  16.218  12.098  16.088 -0.1461  0.2208 -0.1625
15109W        W33313   4.827   7.898   6.010  0.1494 -0.0794 -0.0483
15110W        W33314   5.188   6.011   3.460  0.0175  0.4255  0.1689
15111W        W33315   0.065  15.203   2.288  0.1331  0.0234  0.2109
15112W        W33316   0.918   8.822  14.459 -0.2475 -0.0718  0.1186
15113W        W33317  10.557   1.161   5.657  0.2385  0.3444 -0.1800
15114W        W33318   5.628  17.944  12.107  0.0448  0.0005  0.0672
15115W        W33319   4.627  12.661   3.042  0.0542  0.0906  0.1432
15116W        W33320   6.573   8.972  15.945  0.2295  0.0740 -0.0976
15117W        W33321   2.709  14.471  15.631 -0.0833 -0.2927  0.4180
15118W        W33322   0.472   3.710   5.106 -0.1342 -0.0289 -0.2659
15119W        W33323   3.204  17.599   0.056  0.1137  0.1320  0.0323
15120W        W33324   8.896   5.770  15.861  0.1434  0.0499  0.0558
15121W        W33325  16.531  14.544   1.061 -0.0694  0.0944 -0.4413
15122W        W33326   9.967  11.489   2.760 -0.0588  0.3478 -0.1048
15123W        W33327   2.181   8.885  14.722 -0.1488  0.0409 -0.2022
15124W        W33328   5.482   8.058   0.882 -0.1693 -0.1023  0.2408
15125W        W33329  11.628   4.956   4.091 -0.1594  0.0176  0.1059
15126W        W33330   3.277   1.988  11.813 -0.0253  0.0600 -0.0159
15127W        W33331  11.251  11.600   4.889 -0.0432  0.1863 -0.0135
15128W        W33332  16.184   8.676  13.429 -0.0147  0.2928 -0.0099
15129W        W33333   5.302  12.949  14.013 -0.2901  0.0190  0.1427
15130W        W33334   7.079   2.326   2.332 -0.2589 -0.0221  0.1811
15131W        W33335   0.618   8.932  12.718 -0.1343  0.1015 -0.0547
15132W        W33336   6.513   3.263   0.843 -0.0314  0.1149  0.1274
15133W        W33337  11.241   1.433   1.496  0.1414  0.1145 -0.2985
15134W        W33338   2.663   4.004  11.247 -0.2079  0.1368 -0.1913
15135W        W33339  14.853  14.416  12.027  0.0971  0.2518 -0.0183
15136W        W33340  14.955   3.684  11.633  0.1268  0.1465 -0.0641
15137W        W33341  17.470   3.192  13.217  0.1920 -0.1228  0.1288
15138W        W33342  14.598  11.062  13.867 -0.3344  0.1076 -0.0899
15139W        W33343  16.225   5.583  11.528 -0.0127 -0.2497  0.1907
15140W        W33344   4.205   1.118  13.708  0.0803 -0.1421 -0.0012
15141W        W33345   4.557   1.031  12.909  0.0832 -0.0372 -0.4768
15142W        W33346   5.497  15.203   2.086  0.1806 -0.0192  0.1614
15143W        W33347  16.730  16.862  10.885  0.0016  0.2717 -0.2697
15144W        W33348  15.314  13.481   2.111  0.0301 -0.2557  0.0896
15145W        W33349   3.711  16.955  13.476 -0.1166 -0.4777 -0.3092
15146W        W33350   2.826   0.672  13.957  0.0232 -0.2075 -0.1465
15147W        W33351  11.559  13.469   4.189  0.0643  0.0732 -0.1620
15148W        W33352   5.834   7.760  12.144  0.1042  0.1420 -0.2522
15149W        W33353   9.590   2.816   3.975  0.0729  0.2107 -0.0816
15150W        W33354  15.749   9.457  11.928  0.1587 -0.1665 -0.2307
15151W        W33355  11.665   9.548  14.384  0.0355  0.2424 -0.0285
15152W        W33356  13.330  15.809   3.439  0.0782 -0.1875  0.0920
15153W        W33357  12.865   3.086  13.302 -0.0119  0.0561  0.3378
15154W        W33358   0.457  13.386   4.851 -0.1517  0.1238  0.0081
15155W        W33359  16.134   4.137   3.729  0.0346 -0.0250  0.0100
15156W        W33360   6.206  13.010   3.932  0.1571 -0.0439 -0.1328
15157W        W33361  10.171   8.227  14.702  0.0928 -0.2717  0.2515
15158W        W33362  10.146   5.061  11.642  0.0018 -0.0964  0.2559
15159W        W33363   4.355   7.912  15.950 -0.0639 -0.3129  0.0490
15160W        W33364  13.172   5.794  11.853  0.3163  0.2010 -0.0678
15161W        W33365  14.993  16.755  14.047 -0.1102  0.2602 -0.2422
15162W        W33366   8.003  10.223   2.268  0.1024 -0.0239 -0.1831
15163W        W33367  10.859  16.610   3.357 -0.1246 -0.3040  0.0265
15164W        W33368  15.301   0.229  15.799 -0.0368  0.1276 -0.0487
15165W        W33369   5.315   5.068  11.739  0.0445 -0.1873  0.3120
15166W        W33370  10.349  12.716   4.805  0.2253 -0.2675  0.0952
15167W        W33371   0.840  16.510  13.953  0.0290  0.1273 -0.2459
15168W        W33372   8.206  15.491   4.569 -0.0129 -0.1586  0.1074
15169W        W33373  16.366   3.231   3.946  0.1180 -0.0160  0.1207
15170W        W33374  14.641   9.181   3.762  0.1967 -0.1863  0.1556
15171W        W33375   0.145   6.852   2.405 -0.0062  0.0304 -0.0671
15172W        W33376  16.072   3.016   1.448  0.0947 -0.1266  0.1970
15173W        W33377  12.732   8.376   0.318  0.0172 -0.1422  0.1911
15174W        W33378  16.138   3.500   1.351  0.0806  0.0090  0.1915
15175W        W33379   8.479   6.248   1.598  0.2140 -0.5776  0.0001
15176W        W33380   7.095  13.241  10.721  0.1847 -0.0183  0.2747
15177W        W33381  17.033  17.605  15.790  0.1794  0.0539  0.0304
15178W        W33382   4.933   1.491  16.056 -0.0858 -0.2899  0.0275
15179W        W33383   3.471   9.170  14.290 -0.1141  0.0872 -0.1318
15180W        W33384  12.393   6.402  15.408  0.2208  0.0966  0.1335
15181W        W33385   0.579   0.173  12.004 -0.0689  0.0760  0.0003
15182W        W33386  14.170   3.210  14.745  0.2673  0.0581 -0.0575
15183W        W33387   1.060  12.832   1.875 -0.1388 -0.1548  0.2003
15184W        W33388   6.411  11.099   0.319 -0.2366 -0.0369  0.2836
15185W        W33389   6.040  14.355  14.915 -0.0243  0.0348 -0.1948
15186W        W33390   0.370   4.688   4.934  0.0524  0.3676  0.2192
15187W        W33391  12.677   8.275  12.150 -0.1551 -0.0772 -0.1659
15188W        W33392  14.045  12.789   4.309  0.2815 -0.0888 -0.0953
15189W        W33393  10.532   5.852  13.129 -0.1815  0.0478  0.2068
15190W        W33394   8.429   4.627  14.961 -0.1548  0.4065 -0.2875
15191W        W33395   7.701  13.807  12.138 -0.2574  0.2393 -0.0240
15192W        W33396  13.009  13.097   5.597  0.0013  0.0212  0.1237
15193W        W33397   3.418   8.644   4.662  0.1634  0.0772  0.0784
15194W        W33398   5.570   6.925  14.227  0.1505 -0.2032 -0.0719
15195W        W33399  15.088   1.186  14.515 -0.0909  0.0277  0.1217
15196W        W33400   1.294   3.533  15.975  0.0799  0.0679 -0.1096
15197W        W33401   1.305  17.400  11.142 -0.0366  0.2620  0.0856
15198W        W33402  13.425   4.236  12.321  0.0288 -0.0121 -0.0186
15199W        W33403   7.191  16.445   0.888  0.0426  0.0068 -0.0546
15200W        W33404  17.079   5.136   4.356  0.0324 -0.4352 -0.4981
15201W        W33405   3.437  10.050  12.092  0.1835 -0.0507 -0.0050
15202W        W33406   8.608   9.036  15.467  0.2864  0.0631  0.0015
15203W        W33407  15.190   2.698  11.675  0.2709  0.0317 -0.1480
15204W        W33408   2.173   0.340  11.336  0.1146 -0.0277  0.2630
15205W        W33409   4.276   6.510  14.311  0.2940 -0.0847 -0.0479
15206W        W33410   4.043   2.090   4.742 -0.0175  0.3025 -0.1448
15207W        W33411   0.344   7.863  12.124  0.1841 -0.0266 -0.3699
15208W        W33412   1.989  15.575   1.084 -0.0623 -0.0724 -0.2928
15209W        W33413   6.654  16.528   3.465 -0.0614  0.1727  0.1710
15210W        W33414  15.088  14.725   2.367  0.3635 -0.4675 -0.1724
15211W        W33415  15.564  12.429   3.422  0.1881 -0.0793  0.0818
15212W        W33416  10.254  15.684  13.310  0.2277 -0.0569  0.0264
15213W        W33417   9.707  17.052  13.504 -0.2613 -0.0777  0.2188
15214W        W33418  14.358   0.373   4.517  0.1929  0.0389 -0.1984
15215W        W33419  14.069   7.620   1.370  0.2633 -0.1473  0.0584
15216W        W33420  16.829  13.729   3.124 -0.0962 -0.0346  0.1345
15217W        W33421   0.398  12.168   5.030  0.3546  0.0143  0.1469
15218W        W33422  10.090   8.869   3.695 -0.0453 -0.1841  0.2487
15219W        W33423   3.686  17.930   5.083  0.3335 -0.0300  0.1698
15220W        W33424   3.834  14.817   2.405 -0.1144  0.0393 -0.0295
15221W        W33425   3.169   1.452  12.754 -0.1912  0.0849  0.3274
15222W        W33426   1.676  10.833  14.462 -0.2614 -0.2175 -0.0704
15223W        W33427  11.372  10.424   4.190 -0.1275  0.2762 -0.2582
15224W        W33428   4.606   5.231   2.384  0.0758  0.2683  0.0848
15225W        W33429  17.034   2.753   4.557  0.0609 -0.1649  0.0310
15226W        W33430   6.019   5.497   0.146  0.1902 -0.1851 -0.0054
15227W        W33431  11.474  12.219  10.791  0.0940 -0.0485  0.0969
15228W        W33432  13.313  16.805  15.463  0.0973  0.1887 -0.2079
15229W        W33433  14.856   6.526  15.934 -0.1473  0.0515  0.0499
15230W        W33434   3.422   4.188   2.776 -0.2002 -0.1105 -0.0253
15231W        W33435  15.322  14.618  14.394 -0.1882  0.1064 -0.1349
15232W        W33436  12.693   2.948   0.263 -0.1936 -0.1665  0.2442
15233W        W33437   1.722  15.414  13.065  0.2236  0.1543 -0.0929
15234W        W33438   1.106  14.134   1.613 -0.0530  0.1545  0.2990
15235W        W33439   0.358  12.140  11.961 -0.3354 -0.1055 -0.3119
15236W        W33440  13.167   3.729   1.701 -0.0791 -0.0629  0.0492
15237W        W33441   2.629  13.196   0.644  0.0237  0.0238  0.1316
15238W        W33442   4.053   2.529  13.701 -0.0956  0.1499  0.4644
15239W        W33443   5.291  16.851   1.082  0.0469  0.1525  0.0699
15240W        W33444   6.007   9.193  13.833  0.0069 -0.0928 -0.1763
15241W        W33445  14.503  15.995  15.226 -0.0360 -0.1621  0.0753
15242W        W33446   7.283  16.820   4.222  0.1394 -0.1266 -0.0564
15243W        W33447   2.020   1.449  13.988 -0.0327  0.1190  0.2628
15244W        W33448   4.004   1.874  12.650 -0.1303 -0.0934  0.0517
15245W        W33449   1.640   3.931   1.144  0.2296  0.1552  0.1447
15246W        W33450   3.436   5.178  12.958  0.0189 -0.1100  0.0923
15247W        W33451   6.933  14.391   1.003 -0.0196  0.2855  0.0101
15248W        W33452  14.479  13.283  13.879 -0.1314 -0.1984  0.0569
15249W        W33453  15.498   8.448  16.001 -0.1910  0.2154 -0.1871
15250W        W33454   0.266   6.908   2.930  0.2140 -0.0934  0.5041
15251W        W33455   1.327   4.263  12.951 -0.1323  0.2330  0.0538
15252W        W33456   9.227  16.298   4.799 -0.2940  0.0308 -0.0521
15253W        W33457  15.058   8.431  15.589  0.2643 -0.0693  0.5142
15254W        W33458  15.474   4.830  14.440  0.0468  0.0325  0.3672
15255W        W33459   0.765  16.226   2.118  0.0470  0.1959 -0.1295
15256W        W33460   9.691   3.839  14.319 -0.1433  0.3428  0.0695
15257W        W33461  13.243   3.268   1.527  0.2257 -0.0624  0.1807
15258W        W33462   1.551   1.292   1.819  0.1220  0.2976  0.1504
15259W        W33463   7.794  12.398   4.908 -0.0680 -0.1296  0.0096
15260W        W33464   5.278   6.660   6.108 -0.3778 -0.1434 -0.0172
15261W        W33465  16.901  12.508   2.796  0.0565 -0.2669  0.0895
15262W        W33466   6.757   9.740   2.733  0.1728 -0.0139 -0.0351
15263W        W33467  17.857  10.895   3.433 -0.0523  0.2483 -0.1150
15264W        W33468  12.399   6.982  13.309  0.1625 -0.1088 -0.0038
15265W        W33469   1.381   7.510   4.691  0.1568 -0.0182 -0.0172
15266W        W33470   0.624   4.225  11.288 -0.3049  0.2488 -0.1020
15267W        W33471  12.583  11.026   3.748 -0.0385 -0.4995 -0.4565
15268W        W33472   4.194   4.490  11.672 -0.1698 -0.4094 -0.1961
15269W        W33473  15.424  16.055   3.610  0.0294 -0.0115 -0.1908
15270W        W33474  15.425  10.659  12.295  0.3640 -0.0762 -0.0463
15271W        W33475   7.034   3.104  10.982 -0.0040  0.2319  0.2760
15272W        W33476   8.154   4.400  14.370 -0.0582  0.1097  0.2254
15273W        W33477  16.659   1.465  10.372  0.1310  0.1976  0.0293
15274W        W33478  15.096  15.297   4.361 -0.2622  0.4155  0.3043
15275W        W33479   6.410  10.186  12.465 -0.1067  0.0752 -0.2166
15276W        W33480   4.304   1.399   1.356  0.0912 -0.0985  0.3478
15277W        W33481  10.250  15.187  13.238  0.1187 -0.2566  0.0822
15278W        W33482   9.986   0.217   4.600 -0.0539  0.2749  0.1321
15279W        W33483   6.849  12.466   0.607 -0.3048 -0.0198  0.3017
15280W        W33484   5.033  14.360   3.568 -0.0519 -0.3519 -0.2110
15281W        W33485  15.010   0.996   1.808 -0.1612 -0.0734 -0.1443
15282W        W33486   9.833   0.408  11.684  0.1938 -0.2672  0.2624
15283W        W33487  10.324   9.180   4.719  0.2329 -0.1978  0.0585
15284W        W33488   2.359  17.513   4.819  0.2366  0.0823  0.1082
15285W        W33489  13.036   9.122   1.277 -0.1318 -0.2287  0.1931
15286W        W33490   0.239  10.768  14.329 -0.3428 -0.1353  0.1761
15287W        W33491   5.627  12.782   3.582  0.0974 -0.3653  0.1259
15288W        W33492   2.458   8.858   2.010  0.0099  0.2874 -0.2453
15289W        W33493  17.236  10.051   0.709  0.1743 -0.0054  0.1515
15290W        W33494   0.112   1.722  15.917 -0.2063 -0.2316  0.0106
15291W        W33495   0.393  13.515   1.756 -0.0883  0.3025  0.3180
15292W        W33496  12.865  11.787   3.504 -0.0342 -0.2145  0.0238
15293W        W33497  14.609  10.399  15.603  0.0696  0.0851 -0.0865
15294W        W33498   2.091  16.190   0.468 -0.0068 -0.0145  0.0448
15295W        W33499  16.584   9.704   1.674 -0.0211 -0.0981  0.0190
15296W        W33500   5.492  12.077  13.464  0.0538  0.0111  0.0197
15297W        W33501   9.675  14.081  12.824 -0.0407 -0.0276 -0.0705
15298W        W33502  14.093  13.242  11.455 -0.0656  0.0768  0.1475
15299W        W33503   1.939  14.682  12.425  0.0993 -0.1468 -0.0489
15300W        W33504  14.237  14.187   3.930 -0.1255 -0.0860  0.1032
15301W        W33505  16.564  15.561   0.926  0.1845  0.2379 -0.0146
15302W        W33506  11.475  17.078  11.319 -0.1985 -0.0819 -0.2447
15303W        W33507   5.516   2.977  13.402  0.1380  0.1494 -0.1151
15304W        W33508  11.959   4.687  11.099  0.2069  0.1472  0.2794
15305W        W33509  13.637  15.135  11.955 -0.0087 -0.0098 -0.5439
15306W        W33510  10.285   0.186  13.432  0.0742  0.0135  0.0849
15307W        W33511  14.145   0.283  15.484 -0.3466 -0.1611 -0.0767
15308W        W33512   9.306  15.504   3.337 -0.3767  0.1507  0.1375
15309W        W33513   1.119   1.114   1.678  0.0551 -0.1086 -0.2677
15310W        W33514   0.330   5.006   2.062 -0.2285  0.3448  0.2162
15311W        W33515  12.996   0.942   4.514  0.2344 -0.0402 -0.0660
15312W        W33516  17.644   5.608  11.493 -0.1347 -0.0608 -0.1401
15313W        W33517  10.123   7.820  12.360  0.0542 -0.1312  0.0042
15314W        W33518  15.138  15.180   2.642  0.0223 -0.0543  0.0826
15315W        W33519   9.567   4.533  12.777 -0.1873  0.2915 -0.1588
15316W        W33520  16.866   4.398  10.620 -0.0144 -0.1109  0.0079
15317W        W33521  13.541  13.049   1.590 -0.2394 -0.0940  0.0406
15318W        W33522  14.863   9.661  14.464 -0.1213 -0.0349  0.3713
15319W        W33523  10.453   7.634  15.041 -0.1990  0.1299 -0.2604
15320W        W33524   7.832   7.530  11.800  0.0792  0.0185  0.1169
15321W        W33525  10.626   8.604   2.669 -0.0449 -0.0945 -0.0543
15322W        W33526  15.379   3.092  14.216 -0.2463  0.2733 -0.4215
15323W        W33527   2.692   6.766   0.562 -0.0820 -0.1449  0.0704
15324W        W33528   7.707  16.519   1.095  0.1069  0.0117  0.1198
15325W        W33529  17.353   3.508   4.494  0.1963 -0.1058  0.0239
15326W        W33530   3.267   6.044   0.497 -0.0254  0.3452  0.3066
15327W        W33531   0.739   5.462   0.279  0.4452 -0.1131 -0.1252
15328W        W33532  15.468  13.437  13.994 -0.1435  0.0392 -0.0536
15329W        W33533  15.199   4.963   5.062  0.1378  0.0607 -0.1668
15330W        W33534  15.857  16.937   1.133 -0.2469  0.1509 -0.2886
15331W        W33535  11.487   8.252  11.466  0.0505  0.0050  0.3321
15332W        W33536   9.562  12.892   2.395  0.1203  0.2304 -0.1234
15333W        W33537   8.211   8.852   3.369  0.3939  0.0887  0.0313
15334W        W33538  15.532  13.328  12.975 -0.3372 -0.1344  0.2135
15335W        W33539  14.129  15.922   0.609 -0.0702  0.0803  0.1483
15336W        W33540  15.380  11.019  12.689 -0.1596  0.0072 -0.1246
15337W        W33541  14.766  15.379  15.725  0.1494  0.1451  0.0072
15338W        W33542   3.696   3.044   1.428 -0.1704  0.0768  0.2280
15339W        W33543   2.624  10.574  14.898  0.0318  0.0776 -0.1236
15340W        W33544   6.846  14.557  14.014  0.0991  0.2679 -0.2235
15341W        W33545  13.615   8.209  13.675 -0.1080  0.2050 -0.1495
15342W        W33546   6.119   9.848  13.678  0.3884 -0.2532 -0.1461
15343W        W33547  17.223   5.250  11.555  0.2929 -0.2621  0.0152
15344W        W33548   9.460   6.842   4.244  0.0293 -0.0113 -0.1800
15345W        W33549  13.410  10.172   4.829  0.0150  0.3195 -0.0117
15346W        W33550   3.585  10.162   1.288 -0.2161 -0.0876 -0.1734
15347W        W33551  10.457  11.952  12.404 -0.0309 -0.2024 -0.0580
15348W        W33552   1.482   1.940   3.511  0.0445 -0.1213 -0.0181
15349W        W33553   0.671  13.357  12.712 -0.0924  0.0123  0.2603
15350W        W33554   3.066  16.860  13.575 -0.1817 -0.3984  0.2653
15351W        W33555   9.152  16.827  12.969 -0.0686 -0.0659 -0.0118
15352W        W33556  17.214  16.274   0.800 -0.2607 -0.0494  0.3068
15353W        W33557  10.343   3.867   0.295  0.3301  0.2643 -0.1655
15354W        W33558   8.547   8.891   1.937 -0.1128  0.1339  0.3231
15355W        W33559   1.160   8.697   0.426  0.2065  0.2471  0.2069
15356W        W33560   1.950   5.952   3.599  0.2178 -0.2443  0.0104
15357W        W33561   1.212   6.919   0.948  0.1510 -0.0753 -0.0131
15358W        W33562   0.850   5.062   4.253  0.3300  0.1440  0.2527
15359W        W33563  17.152  17.717  11.905 -0.0010  0.1817  0.0817
15360W        W33564  12.541   5.619  13.109  0.1863  0.2829 -0.0481
15361W        W33565  16.674   1.925  16.140  0.0852  0.0089 -0.0406
15362W        W33566   2.840  12.816  14.939  0.0002 -0.0447  0.1462
15363W        W33567  13.988  10.477   4.367 -0.0555  0.0633 -0.2025
15364W        W33568   4.256  16.940  14.699 -0.0233  0.0769  0.1591
15365W        W33569   2.773   4.248  13.690 -0.0187  0.1316 -0.1402
15366W        W33570   1.791  10.753   0.423  0.3062  0.2043  0.0051
15367W        W33571  13.207  12.217   1.581 -0.0386  0.1664 -0.2405
15368W        W33572  17.795   4.094  15.020  0.0245 -0.0242 -0.0299
15369W        W33573  11.244  12.502   3.332  0.0044  0.0157 -0.2603
15370W        W33574  12.090   0.438   0.879 -0.1558  0.3014 -0.1593
15371W        W33575  16.059   2.755   3.267  0.3787  0.1917 -0.2108
15372W        W33576  12.686   8.275   1.655 -0.3275 -0.2634  0.1437
15373W        W33577   6.357   8.308  13.678 -0.2543 -0.3465 -0.0411
15374W        W33578   7.777  13.111   4.466  0.2680  0.0167 -0.3359
15375W        W33579   0.861  12.030   3.134  0.0259  0.1884 -0.1546
15376W        W33580  10.353  12.382   0.513 -0.2245  0.1885  0.0943
15377W        W33581  10.718   3.157  16.115  0.1439  0.0619 -0.2311
15378W        W33582   2.928   7.438   5.833 -0.0726  0.0759 -0.0286
15379W        W33583  16.470  14.614  12.685 -0.0480  0.3478 -0.1746
15380W        W33584  15.754  10.955   4.404  0.2011 -0.1222 -0.0435
15381W        W33585  17.164   3.156   1.987  0.3390  0.3462  0.3085
15382W        W33586  13.668   5.200   1.799  0.1769  0.0254 -0.1539
15383W        W33587  14.730  17.908  12.109  0.0476 -0.1889 -0.0253
15384W        W33588   5.391  14.726   3.916  0.1436 -0.2821  0.0720
15385W        W33589   8.061  13.956   1.609 -0.1159 -0.0066  0.3418
15386W        W33590  13.742   2.112  12.734 -0.0671  0.0571 -0.2348
15387W        W33591   9.523   7.310  12.410  0.0373  0.1508  0.0726
15388W        W33592   4.286   2.305  14.494  0.1174  0.0234 -0.1735
15389W        W33593   9.624  10.008  15.584  0.2670  0.3768  0.2410
15390W        W33594  16.540   5.038  15.126  0.3028  0.0772  0.1319
15391W        W33595  17.534   4.771   4.892 -0.2162  0.1835 -0.0823
15392W        W33596   3.286  11.759  15.099  0.2782 -0.1907 -0.0071
15393W        W33597  10.748  17.609   0.963 -0.0226  0.1098  0.0219
15394W        W33598   1.847  12.945  12.709 -0.1327 -0.1057  0.0234
15395W        W33599  14.340  17.335  14.073 -0.2320  0.1065 -0.2461
15396W        W33600  16.462   4.061   3.423 -0.0200 -0.2014  0.4474
15397W        W33601  13.293   0.835  13.176 -0.1493 -0.1152 -0.0623
15398W        W33602  13.195   6.300  13.715  0.0551 -0.0841  0.1496
15399W        W33603   9.984   8.340  15.439 -0.0624 -0.0108 -0.2655
15400W        W33604  17.644  12.255  15.164  0.1007 -0.0552 -0.0964
15401W        W33605   8.585   3.795  13.409  0.1180 -0.0156 -0.2277
15402W        W33606  11.697  17.255  12.389 -0.1827 -0.0250  0.3015
15403W        W33607  17.292  11.519   5.332  0.2977  0.0328 -0.2036
15404W        W33608   6.117   4.010   2.840 -0.1970 -0.2265  0.1568
15405W        W33609   8.885   1.251   4.871 -0.1463 -0.1686 -0.1471
15406W        W33610   1.559  16.487   1.685 -0.0742 -0.0415 -0.1155
15407W        W33611   1.657   8.627  14.565 -0.0532 -0.1192 -0.1826
15408W        W33612  13.315  16.892   5.292 -0.1974  0.1855  0.0490
15409W        W33613  17.416   4.949   0.063  0.1586 -0.3703 -0.0031
15410W        W33614  10.663   9.625  13.114 -0.0208 -0.4279  0.1846
15411W        W33615  11.406   4.324   0.677 -0.2101 -0.0870  0.2016
15412W        W33616   2.212   9.744   2.907 -0.1652  0.0312 -0.2890
15413W        W33617   6.881   5.741  14.076  0.1228 -0.0820  0.2042
15414W        W33618  10.844  14.490  15.398  0.1592  0.0446  0.0545
15415W        W33619   9.490  11.946  11.785 -0.0151 -0.0920  0.0092
15416W        W33620  17.194   7.508  13.494 -0.0999 -0.0262 -0.0055
15417W        W33621   8.080   5.099   0.157  0.2644  0.0717 -0.2167
15418W        W33622  15.594   3.637   4.635 -0.0721  0.2926  0.1208
15419W        W33623   6.318   3.949   3.880  0.0028  0.1798 -0.1155
15420W        W33624   7.115   5.970  11.819  0.0674 -0.0313 -0.2813
15421W        W33625   8.775   4.959   2.473  0.1504  0.0595 -0.3983
15422W        W33626  13.526   5.693   1.845  0.1833 -0.4323 -0.1470
15423W        W33627  10.695   0.398   1.519 -0.1415 -0.0895 -0.2563
15424W        W33628  14.502   6.415   1.881  0.1570 -0.3314  0.0285
15425W        W33629  11.187   1.800  13.326 -0.2311  0.3258 -0.3747
15426W        W33630  12.324   9.207   4.471 -0.0380  0.0578 -0.2093
15427W        W33631  12.631   5.023  13.262  0.1817 -0.0418  0.1758
15428W        W33632   1.559   6.145  12.459 -0.2896 -0.1145 -0.0508
15429W        W33633  17.881   4.420  16.039  0.0186 -0.0729  0.1775
15430W        W33634  11.078   3.020   2.114  0.1261 -0.3293  0.0820
15431W        W33635   4.068  10.938  12.492  0.3067  0.0291 -0.0105
15432W        W33636   5.301   8.506   0.674  0.2224 -0.0631  0.0478
15433W        W33637   5.963   3.678   1.298 -0.1554  0.0831  0.3466
15434W        W33638  12.409  11.086  12.415 -0.0958  0.0015 -0.0614
15435W        W33639  14.118   5.936   3.067 -0.3168 -0.2812  0.2277
15436W        W33640   0.249  10.866   4.283  0.1998  0.3486  0.0564
15437W        W33641  10.998   6.696   4.358  0.1316  0.1250 -0.1656
15438W        W33642  13.449   7.783  12.789 -0.1472  0.0802  0.1142
15439W        W33643  13.248   7.614   3.175  0.0829  0.0844 -0.0782
15440W        W33644   7.737   4.232   1.219 -0.0402  0.0930 -0.2757
15441W        W33645  11.294  11.323   4.444  0.0136  0.1257 -0.1338
15442W        W33646  14.078   6.838   2.744  0.1067  0.0490  0.1237
15443W        W33647  10.460   2.006   3.703  0.1707  0.0868 -0.2668
15444W        W33648   6.737   5.160   3.612 -0.2574 -0.1271 -0.1689
15445W        W33649  17.188  12.770  15.916 -0.1207  0.2067  0.2039
15446W        W33650  16.280  16.185  13.158  0.4020  0.0347 -0.0042
15447W        W33651   7.964   5.480  13.582  0.1862 -0.0065 -0.0679
15448W        W33652   3.012   9.163  11.904  0.1096  0.0982  0.2758
15449W        W33653  11.888   3.824  15.712 -0.1591 -0.0208 -0.1163
15450W        W33654  16.037   0.175   4.104  0.4740 -0.0495 -0.0419
15451W        W33655   0.988  11.349   2.918  0.0690 -0.1517 -0.1632
15452W        W33656   9.965   1.702  12.566 -0.0100 -0.1361 -0.0133
15453W        W33657  17.970  14.113   1.097  0.1926  0.2231  0.0203
15454W        W33658   1.533  17.039  12.322 -0.0540  0.1071 -0.2309
15455W        W33659   3.975   7.586  12.879  0.1849 -0.3274 -0.1530
15456W        W33660  16.773   2.325   3.009  0.0590 -0.0137 -0.0665
15457W        W33661  12.147   2.246  12.154 -0.0275  0.2659 -0.0776
15458W        W33662  11.264  17.277  12.688 -0.2848 -0.1764  0.1947
15459W        W33663  10.645  17.266  15.201  0.0933 -0.1656 -0.0577
15460W        W33664  13.369  10.944   3.597 -0.2979 -0.0442 -0.0228
15461W        W33665  15.990   8.183   5.014 -0.0547 -0.1322  0.0983
15462W        W33666   3.608   7.402   0.090  0.1288 -0.0750 -0.0871
15463W        W33667   5.256   9.957  13.998  0.2245 -0.2032  0.1764
15464W        W33668   6.557  10.914  15.685  0.1126 -0.3195 -0.0361
15465W        W33669  16.862   7.156  13.661  0.2458  0.0986  0.0136
15466W        W33670   9.316  14.160   1.131 -0.1375 -0.0320 -0.1512
15467W        W33671   2.946  16.602   3.738  0.4158 -0.1360 -0.0149
15468W        W33672   0.905   6.449  12.552 -0.0748 -0.0261  0.0872
15469W        W33673  11.908  10.427  15.111 -0.1830 -0.1017 -0.1978
15470W        W33674   1.775   8.397   4.605  0.0294  0.1443  0.0134
15471W        W33675   5.409  10.477  14.554 -0.0823 -0.2267 -0.1030
15472W        W33676   8.265   1.657  14.405  0.1643 -0.0407 -0.0884
15473W        W33677   7.856   5.606   3.337  0.0030 -0.1490  0.0222
15474W        W33678   9.774   9.831  12.708  0.1488 -0.0214 -0.5454
15475W        W33679   8.389  11.677  14.896  0.1346  0.1145 -0.3172
15476W        W33680   3.513   1.596  11.911 -0.0269  0.2771 -0.1049
15477W        W33681  12.970   9.919  13.877 -0.1700 -0.2879 -0.3262
15478W        W33682   2.171   8.856  12.097 -0.0833 -0.0480 -0.0069
15479W        W33683   1.401   9.002  14.383 -0.0498  0.0677 -0.0642
15480W        W33684   8.800  13.426   0.679 -0.1237 -0.1482 -0.3107
15481W        W33685  12.891  16.342   1.666  0.0348  0.0199 -0.1430
15482W        W33686  13.784   8.203  14.299 -0.0227  0.2974  0.1609
15483W        W33687  10.939   7.971  12.787  0.0052 -0.2748  0.2740
15484W        W33688  17.807   8.970   2.184 -0.3372 -0.0739 -0.1181
15485W        W33689   9.143  14.919   2.756  0.1685  0.1087 -0.2740
15486W        W33690   1.343   4.434   4.036 -0.1478  0.0218 -0.2497
15487W        W33691  13.834   5.743   3.420  0.1159  0.0235  0.1345
15488W        W33692  12.016  17.348   0.063 -0.0977 -0.1953 -0.0053
15489W        W33693   7.079   6.885  11.843 -0.2302 -0.2746 -0.1031
15490W        W33694   6.356  15.798   4.621  0.2650 -0.0317  0.0136
15491W        W33695   7.819   3.188  14.619  0.2564  0.2585 -0.0387
15492W        W33696  15.719  12.396   0.708 -0.0516 -0.0574 -0.1265
15493W        W33697   2.277   6.991   2.702 -0.1475  0.0112  0.2101
15494W        W33698   9.664   3.236   2.700 -0.1346 -0.1220 -0.1934
15495W        W33699   7.183  17.674   2.677  0.0079  0.2106 -0.2731
15496W        W33700  12.837   0.828  12.916 -0.1592  0.1057 -0.1251
15497W        W33701   5.878   7.579  12.640 -0.1185 -0.1651  0.0140
15498W        W33702  13.924   0.087  12.629  0.1613  0.0163 -0.1189
15499W        W33703  12.789  14.745   1.221 -0.1207  0.2798  0.2658
15500W        W33704   3.082  17.408   3.932  0.1463  0.3998  0.1905
15501W        W33705  14.426  12.281  13.381 -0.0835  0.4448 -0.1574
15502W        W33706  15.133  12.466   4.812 -0.2215 -0.2606  0.0995
15503W        W33707   7.248  10.879   0.223 -0.3143  0.1571 -0.1656
15504W        W33708  16.971   9.288  14.734 -0.2806 -0.0452  0.1911
15505W        W33709   3.659   7.403   3.401 -0.1718 -0.0422 -0.0681
15506W        W33710  15.614   4.562  14.915 -0.1354  0.0378  0.2933
15507W        W33711   2.432  13.084  14.599 -0.1366  0.1131 -0.2566
15508W        W33712  11.641  11.040   4.051 -0.2544 -0.2258  0.4484
15509W        W33713  16.217   3.853  15.531  0.2733 -0.1616 -0.2668
15510W        W33714  14.922   7.257  11.403 -0.0583 -0.3214 -0.0308
15511W        W33715  13.222   6.621   1.564  0.1487  0.1228 -0.1240
15512W        W33716   6.540  13.037  12.136  0.1170 -0.2932  0.2106
15513W        W33717   9.865   4.634   4.379  0.2796 -0.0630 -0.0545
15514W        W33718  16.992   7.180   4.300 -0.4130 -0.3016 -0.0170
15515W        W33719  14.138   1.126  13.321 -0.1479 -0.4481 -0.0206
15516W        W33720  11.303   1.829   5.444 -0.0274  0.1051 -0.1348
15517W        W33721   6.769   0.668  14.339  0.1946 -0.0773 -0.1563
15518W        W33722  10.254  15.468   2.635  0.0428 -0.2804 -0.0720
15519W        W33723  13.481  16.714  13.478 -0.3055 -0.0417  0.3274
15520W        W33724   7.697   3.416   1.570  0.0076  0.0771  0.0837
15521W        W33725  15.667  13.780  14.349 -0.0707  0.0330 -0.0893
15522W        W33726   7.005   2.104   0.408 -0.0600  0.1797  0.0388
15523W        W33727  14.346  17.594   4.759  0.0497 -0.1436 -0.0569
15524W        W33728   4.541   7.434  15.376  0.1396  0.0542  0.0679
15525W        W33729   0.188   4.259   3.411 -0.0527 -0.1256  0.0551
15526W        W33730   7.441  10.958   5.187  0.0565  0.0432 -0.3444
15527W        W33731  12.211  17.070   5.614 -0.2436  0.4105  0.1867
15528W        W33732   7.502   1.871   0.222  0.1297 -0.4530  0.1639
15529W        W33733  12.097  11.049   4.390 -0.0108 -0.0022 -0.0172
15530W        W33734   0.085  17.926   4.531  0.0771  0.0153  0.3560
15531W        W33735   9.479  10.531   2.263  0.0503 -0.3605  0.2906
15532W        W33736   9.299   0.414   4.650 -0.3213  0.0159 -0.1465
15533W        W33737  10.551   6.939   3.893 -0.3774 -0.3961  0.0652
15534W        W33738  11.001  17.560   2.092 -0.0540  0.1581 -0.0887
15535W        W33739  10.637   0.340  14.202 -0.0777 -0.0828  0.1185
15536W        W33740   9.564  16.993   3.938 -0.1894 -0.0337 -0.4091
15537W        W33741  14.858  15.325  14.379  0.0406 -0.0641  0.1117
15538W        W33742  13.939   0.631  13.595 -0.3129 -0.2903  0.0734
15539W        W33743   5.791  16.494   4.425  0.0626  0.0928  0.1947
15540W        W33744   6.448  15.987   2.433 -0.1484  0.0450 -0.2885
15541W        W33745  17.906  11.242   4.515  0.0895  0.2227  0.0284
15542W        W33746   3.383  15.335   3.606  0.0455  0.0074  0.1553
15543W        W33747   5.627   2.154   0.038 -0.0339 -0.0379  0.1515
15544W        W33748   6.565   1.763   3.138  0.1126 -0.2089  0.2928
15545W        W33749   7.516   1.390   4.730  0.1655 -0.1923 -0.1066
15546W        W33750   2.086   0.002  14.189 -0.1350 -0.1435 -0.0195
15547W        W33751   6.646   6.986   1.352  0.0967  0.1141  0.1939
15548W        W33752   1.433   7.794   2.335 -0.2815 -0.0811 -0.0111
15549W        W33753  17.205  11.109   1.830 -0.1864 -0.2886  0.0345
15550W        W33754   9.999   5.329   0.136 -0.3375 -0.0383  0.0538
15551W        W33755  13.856   2.693  12.319 -0.2433  0.1999  0.0407
15552W        W33756  16.972   9.954  15.489 -0.0635  0.0790  0.1737
15553W        W33757   7.740   0.469   0.075 -0.0565 -0.1973  0.0644
15554W        W33758  16.952  17.415   3.844 -0.2849 -0.0690  0.1119
15555W        W33759  15.949   3.109  12.084  0.3230 -0.0133  0.2198
15556W        W33760   4.758   5.081   0.130  0.0179  0.1102 -0.0992
15557W        W33761   9.792  15.808  13.600 -0.4183  0.1180 -0.0318
15558W        W33762   0.914   7.015   0.041 -0.2680 -0.0081 -0.1686
15559W        W33763   1.152   2.951   0.627  0.3284  0.2346 -0.0377
15560W        W33764  14.096   7.447  15.825 -0.0193  0.0227 -0.0463
15561W        W33765  12.745   4.750  12.094 -0.1545  0.0678 -0.1324
15562W        W33766  10.569   4.944  15.694  0.0073  0.1362  0.2793
15563W        W33767   5.742   0.245   1.194 -0.1003  0.0497 -0.0655
15564W        W33768   7.503  12.601  14.335  0.1379  0.0416 -0.0801
15565W        W33769  13.427   8.058  15.933 -0.0756  0.1462 -0.0784
15566W        W33770  14.711   1.985  14.167 -0.0826 -0.1208  0.1952
15567W        W33771  17.075   0.998  13.591  0.2481 -0.0930  0.1364
15568W        W33772  17.145   8.111  13.455 -0.1152  0.0838 -0.0632
15569W        W33773  15.571   9.641  15.824 -0.1281 -0.2257  0.1168
15570W        W33774  13.076   0.033  12.581 -0.0869  0.0856  0.2176
15571W        W33775  15.749  12.069  12.027 -0.1240  0.0187  0.2169
15572W        W33776   4.541   0.015  15.975  0.0835  0.3230 -0.1048
15573W        W33777   3.318  16.055  14.911 -0.2026  0.1324  0.3988
15574W        W33778  13.540  10.478  14.819 -0.1040 -0.0128  0.0763
15575W        W33779  18.038   0.973  13.595 -0.2475 -0.0086 -0.0651
15576W        W33780  14.894  14.456   3.124 -0.1269  0.0463 -0.0771
15577W        W33781  11.065  13.955   0.362 -0.1590  0.1082  0.2151
15578W        W33782   5.472   3.527  15.978 -0.1397 -0.0148 -0.2783
15579W        W33783  15.295   8.033   2.575  0.1660 -0.0334 -0.1925
15580W        W33784  10.848   2.181  14.718  0.0015 -0.1053  0.4137
15581W        W33785   1.170   4.803   0.976 -0.0426  0.2298  0.2520
15582W        W33786  12.802   3.897   4.181 -0.5367  0.1790 -0.1716
15583W        W33787  11.747   8.632  15.306  0.1528 -0.0037 -0.0826
15584W        W33788   9.346   7.836   3.249 -0.0930  0.2972 -0.0224
15585W        W33789   5.301   7.903  13.775  0.0832 -0.0039  0.1186
15586W        W33790  10.360   9.297  12.095  0.1080  0.0087 -0.0709
15587W        W33791   4.751   0.294   2.641  0.0419  0.0929  0.1978
15588W        W33792  12.150  10.441   5.265 -0.0972  0.0476 -0.0112
15589W        W33793   0.169   6.360  15.660 -0.1845 -0.1792  0.0260
15590W        W33794  17.865  16.370  13.608  0.1511 -0.0642 -0.1261
15591W        W33795   1.601  17.120   4.230  0.3127  0.0859 -0.0435
15592W        W33796   4.007   7.811   2.007 -0.1976 -0.2627 -0.2912
15593W        W33797   2.460  15.658  14.329  0.0744  0.0873  0.0432
15594W        W33798  13.287  16.399  12.377  0.0030  0.5844  0.1746
15595W        W33799  11.871  17.612  15.122 -0.3332  0.2027 -0.2062
15596W        W33800  15.114  11.081   3.515  0.3612  0.2079 -0.0713
15597W        W33801   6.497   3.642   3.545  0.2071  0.0441  0.1287
15598W        W33802   5.024   5.423   1.602  0.1073  0.0906  0.1702
15599W        W33803  17.159   9.603  15.083  0.0680 -0.3016  0.4014
15600W        W33804   4.835   1.521  12.805 -0.2361  0.1870 -0.0680
15601W        W33805  16.115   2.964  12.552 -0.1317  0.1219 -0.1166
15602W        W33806  14.871  13.156   2.900 -0.1597 -0.1073 -0.1145
15603W        W33807  14.962   2.601  13.041 -0.1135  0.3620 -0.0201
15604W        W33808  16.668   8.853  12.535  0.1721  0.0319 -0.1260
15605W        W33809   6.068   5.662  13.784 -0.0587 -0.0279 -0.0473
15606W        W33810   5.213  14.007   3.909  0.0087  0.1075  0.0960
15607W        W33811   2.500   7.818  15.605 -0.2210 -0.3135  0.3139
15608W        W33812   6.086   2.609  13.781 -0.1056  0.2488  0.1837
15609W        W33813   9.535   1.250  11.704  0.1634 -0.1507 -0.2423
15610W        W33814   6.332  11.463  14.642 -0.1461 -0.0221 -0.0578
15611W        W33815   1.849   1.465  14.924  0.0353 -0.3659 -0.0248
15612W        W33816   7.245  15.811   3.198  0.1968  0.2310 -0.0197
15613W        W33817   6.508  12.455   1.164  0.0056 -0.2450 -0.2274
15614W        W33818  13.090   4.825  13.530  0.0532  0.3144  0.0923
15615W        W33819  13.252  14.977  14.482  0.2880  0.2401  0.0600
15616W        W33820  10.930   4.534  13.566  0.1113 -0.0769 -0.2561
15617W        W33821  12.795  15.898  14.842 -0.2187  0.0695 -0.2160
15618W        W33822  15.442  17.373  12.472 -0.3980  0.1040  0.0064
15619W        W33823  13.239  15.673   1.577 -0.1492 -0.2473 -0.0577
15620W        W33824   0.706   9.919  15.284  0.0208 -0.0257 -0.0161
15621W        W33825   4.077  15.399  12.680 -0.1736 -0.3627  0.2701
15622W        W33826   9.077  15.237   4.555  0.1709 -0.1034 -0.0702
15623W        W33827  10.484   0.560  13.726  0.0373 -0.1098 -0.2178
15624W        W33828  17.363   6.779   2.575 -0.2309  0.2487 -0.0975
15625W        W33829   0.149   7.856  14.363  0.1755  0.0148 -0.0206
15626W        W33830   4.186  17.502   3.897  0.0847  0.1024  0.2571
15627W        W33831  16.528  17.239  12.997  0.1289  0.0113  0.0330
15628W        W33832   1.453  15.486   1.687  0.0088  0.0101  0.2611
15629W        W33833   9.205   7.883  15.143 -0.0800  0.3565  0.2875
15630W        W33834  10.557  11.889   1.011 -0.2809  0.0621 -0.2259
15631W        W33835   5.736   8.279   2.483  0.1686  0.1331 -0.2928
15632W        W33836  11.075  17.151   1.273  0.0635  0.0570 -0.3063
15633W        W33837   2.624  10.305  13.295 -0.0324  0.1055  0.2006
15634W        W33838   2.955   8.036   0.521 -0.0957  0.0298  0.0503
15635W        W33839   7.280  18.026   1.465 -0.0816  0.1337  0.1066
15636W        W33840   5.978   7.000  13.447  0.3053  0.0655  0.1823
15637W        W33841  16.159  14.017   3.640  0.0551  0.0587 -0.0593
15638W        W33842  17.687   8.755  14.728 -0.0218  0.3734 -0.0537
15639W        W33843   5.804  17.764   1.344 -0.2490 -0.0294 -0.1062
15640W        W33844   1.977  15.652  13.460  0.0448  0.2011 -0.0125
15641W        W33845   3.488  17.794   2.732  0.0704  0.0066 -0.1911
15642W        W33846  10.390   6.843   2.539  0.4578 -0.1941 -0.1078
15643W        W33847   6.965   4.852  13.086 -0.0449  0.0560  0.0950
15644W        W33848   3.326  14.379  13.911 -0.0713  0.1100  0.4433
15645W        W33849   3.472  12.231   1.860  0.0897  0.0629  0.2145
15646W        W33850   9.124  11.551   2.815  0.0736 -0.4355  0.1295
15647W        W33851   1.820   5.956   4.224 -0.2534  0.0957  0.0722
15648W        W33852   4.416  11.254   4.799  0.0332  0.0996 -0.0551
15649W        W33853   6.266   2.594  13.000  0.4448  0.0773 -0.1298
15650W        W33854  15.397   6.564   3.726  0.2272  0.2478 -0.0825
15651W        W33855  17.571  17.370   3.770  0.1425  0.1082  0.0642
15652W        W33856   2.730  16.883   1.887  0.0223 -0.2581  0.0498
15653W        W33857   0.778   0.975   0.629  0.2339 -0.3053  0.1838
15654W        W33858   0.808  11.097   3.320  0.0375 -0.5609 -0.2964
15655W        W33859   4.229   3.769  13.767 -0.1356  0.0814 -0.0649
15656W        W33860   7.224  17.664  12.485  0.0367  0.0413 -0.1647
15657W        W33861  17.040   4.830  13.565 -0.0165 -0.1303 -0.0801
15658W        W33862   0.732  15.525  14.842  0.0517  0.2581  0.2196
15659W        W33863  10.509   8.875   3.133  0.1418  0.1717 -0.0482
15660W        W33864   5.627   3.997  15.622 -0.2335 -0.1123  0.2838
15661W        W33865   6.447   7.490   4.122 -0.0643  0.0091 -0.2165
15662W        W33866  12.965  16.810  15.920 -0.0956 -0.0925  0.2016
15663W        W33867  10.552   1.980   4.540 -0.1915  0.1709  0.0746
15664W        W33868  17.331  12.948   4.133  0.0665 -0.0948  0.1080
15665W        W33869   4.250  13.685   3.753 -0.3500 -0.2529  0.0424
15666W        W33870  13.200  13.587  15.057 -0.2657 -0.1549 -0.1819
15667W        W33871  10.297   6.103   3.311  0.0090 -0.0545 -0.1136
15668W        W33872   7.245  16.516  13.278 -0.0293  0.2016 -0.2872
15669W        W33873   2.729  10.287   1.980 -0.2273  0.0720  0.0317
15670W        W33874  14.861  16.396  13.021 -0.1492  0.0279 -0.1290
15671W        W33875  14.678   3.420   4.506  0.2215  0.1951  0.0181
15672W        W33876   2.140  10.740  14.645  0.0543 -0.1765  0.2074
15673W        W33877  16.997  12.648  12.540  0.0492  0.2184  0.2222
15674W        W33878  16.385   3.253   1.759 -0.3082  0.0964  0.1149
15675W        W33879  14.532  16.432  15.650  0.0797 -0.0037 -0.0669
15676W        W33880  13.831  15.686  11.612 -0.2669  0.0862  0.0364
15677W        W33881  16.541   5.142   2.000  0.0425  0.1219 -0.1753
15678W        W33882   4.095   9.845   3.829  0.5124 -0.0778 -0.1109
15679W        W33883  12.434  10.525   0.156 -0.1042  0.0440 -0.4038
15680W        W33884  10.810  13.405   4.766 -0.0175 -0.0707 -0.2438
15681W        W33885   2.702   3.656  15.802 -0.1671  0.0050 -0.2068
15682W        W33886   4.479   3.671  11.569  0.2419 -0.0535 -0.0925
15683W        W33887   8.309   1.146   1.581 -0.1799 -0.1678  0.2380
15684W        W33888   5.931   3.145  15.275  0.0143 -0.3434 -0.0446
15685W        W33889   2.668  13.097  15.319 -0.1141 -0.0509  0.0664
15686W        W33890   0.361  16.825  11.830 -0.0286 -0.0561 -0.1184
15687W        W33891   5.700  10.110  15.925 -0.1112 -0.1533 -0.0090
15688W        W33892   0.053  13.844   3.488  0.0654  0.0287 -0.1415
15689W        W33893   0.541   4.847  15.484  0.1047 -0.2571  0.1176
15690W        W33894  15.170   7.265  14.931 -0.1149  0.2044 -0.1931
15691W        W33895   1.733  10.230  13.835 -0.2427  0.2647  0.0025
15692W        W33896   4.201   5.797  11.469 -0.0811 -0.1527  0.2872
15693W        W33897  12.857   0.056  15.013 -0.0012  0.0350  0.0785
15694W        W33898   5.327   7.915   0.058  0.0386 -0.1040 -0.1847
15695W        W33899   9.582  10.320   1.715 -0.0569 -0.1435 -0.1042
15696W        W33900  10.532  17.559  15.930  0.5523 -0.3770  0.1411
15697W        W33901  15.134   1.801   2.927  0.0927  0.0483  0.1722
15698W        W33902   8.756  17.571  12.582  0.0369  0.1378 -0.1815
15699W        W33903   0.825  16.401  15.414  0.5022 -0.0832 -0.0272
15700W        W33904  12.794  10.484   2.098 -0.3599 -0.0782 -0.0007
15701W        W33905  15.287  15.116  14.240 -0.0434 -0.0946 -0.0704
15702W        W33906   8.831   9.680   2.565  0.1134 -0.3027  0.2756
15703W        W33907   7.760  12.828  14.705  0.3690 -0.2682 -0.2884
15704W        W33908   0.054   0.216   5.402 -0.0552 -0.0295 -0.2130
15705W        W33909  16.958  13.019  15.359 -0.0624 -0.0816  0.2900
15706W        W33910   8.552   3.089   4.380 -0.2389 -0.1272  0.0000
15707W        W33911  15.918  13.414  15.048 -0.0368  0.3883 -0.1775
15708W        W33912  12.568   2.653   3.127  0.2868 -0.0667  0.0726
15709W        W33913   7.456   7.855   5.760  0.3294  0.1354  0.3185
15710W        W33914  15.110   4.292  14.958  0.0688  0.0767  0.1400
15711W        W33915   0.377   4.152   3.875 -0.1682  0.0261  0.0150
15712W        W33916  17.747  16.539   1.498  0.0433 -0.1853  0.3199
15713W        W33917   5.818  10.008   2.463  0.0238  0.3652 -0.0269
15714W        W33918   6.204  10.394   3.388 -0.2441 -0.0440  0.1409
15715W        W33919  13.510  17.293   4.109  0.0978  0.2082 -0.3094
15716W        W33920   2.638  10.246  15.897 -0.2947  0.0770 -0.2124
15717W        W33921   9.181   0.743   5.982  0.1709  0.0938  0.3386
15718W        W33922  15.000   5.980   4.443 -0.1394 -0.1482 -0.3726
15719W        W33923   3.095  16.307  14.445 -0.2095 -0.2375 -0.0183
15720W        W33924  10.425  13.570   4.117 -0.0665  0.1482 -0.0474
15721W        W33925   5.113   3.976  13.623  0.0830 -0.0490  0.2935
15722W        W33926  10.843   4.814   4.675 -0.0787 -0.1910  0.4212
15723W        W33927  17.891  16.310  15.665 -0.4222 -0.1196  0.0216
15724W        W33928   6.138  13.835   0.093  0.2311  0.0912 -0.0996
15725W        W33929   2.091   5.788  14.843 -0.0764 -0.1339  0.1201
15726W        W33930   7.532   1.411  14.918  0.0676  0.1480 -0.0633
15727W        W33931   3.714  10.038  14.823 -0.0978  0.1095 -0.0056
15728W        W33932   1.288  11.249  13.981 -0.1351  0.3327  0.0630
15729W        W33933   5.793  17.212   1.675  0.1160 -0.2164  0.1256
15730W        W33934   1.586   8.003   1.869 -0.1967  0.0836  0.2000
15731W        W33935  14.341   5.794   5.107  0.2953  0.0580  0.0548
15732W        W33936  12.946  13.380   1.544  0.0104 -0.3352  0.1410
15733W        W33937  14.462   8.732  12.155  0.1091 -0.1193  0.3085
15734W        W33938  15.001   7.870   4.924 -0.2108  0.0286 -0.1091
15735W        W33939   0.687  17.715   1.708 -0.0672 -0.2563  0.2188
15736W        W33940  13.652   9.822  12.909  0.1521 -0.2676 -0.1023
15737W        W33941  10.878  14.433  14.013 -0.1094  0.1882  0.0061
15738W        W33942   8.960   5.060  12.969  0.2909  0.2665  0.1757
15739W        W33943   7.160  14.899   4.398  0.0101  0.0426  0.1318
15740W        W33944  11.393  17.573   4.755  0.1081 -0.0549 -0.0401
15741W        W33945   3.074  13.773  13.505  0.0457  0.0481  0.2815
15742W        W33946   0.388   1.967  15.059  0.4162 -0.0895 -0.1581
15743W        W33947  10.436   1.223  15.560  0.2472  0.0381  0.2238
15744W        W33948  15.823   8.882  16.016  0.1270  0.0400 -0.1650
15745W        W33949  10.816   1.879   4.978  0.2337  0.2276  0.0814
15746W        W33950   3.122   1.423   3.496 -0.1025 -0.0743  0.0076
15747W        W33951  15.686  10.764  14.096 -0.2595  0.1397  0.0813
15748W        W33952   6.062  15.972  12.092  0.1027 -0.1013 -0.1266
15749W        W33953  13.453   1.119  11.374 -0.1379  0.2944  0.0532
15750W        W33954  10.650  12.644  15.975  0.1639  0.1408 -0.0847
15751W        W33955   6.881  16.648   1.285  0.0776 -0.0109  0.1023
15752W        W33956   6.896   4.751  11.937  0.1306  0.2076 -0.0679
15753W        W33957  10.489   9.849  13.948 -0.0261 -0.0090 -0.2016
15754W        W33958  15.629  10.228  14.057 -0.0889 -0.1364 -0.0986
15755W        W33959  13.801  15.592   3.517  0.1889  0.0993 -0.0156
15756W        W33960  11.074   6.698  14.815 -0.1525  0.0181 -0.1138
15757W        W33961  14.974   9.311   3.358 -0.2956 -0.1836  0.1498
15758W        W33962  16.825  14.768   4.530 -0.0248 -0.1709  0.0311
15759W        W33963   8.072  11.234  11.975 -0.1112  0.1627  0.1443
15760W        W33964  11.984  17.628  15.645 -0.0110 -0.0752  0.1687
15761W        W33965   0.415   3.449  14.752 -0.0297 -0.1286 -0.3092
15762W        W33966  14.711  14.070   4.002  0.1334 -0.2370  0.0214
15763W        W33967   8.338   6.597  12.049  0.0668  0.1179  0.1317
15764W        W33968  16.757   0.624  14.067 -0.3135  0.2494 -0.2433
15765W        W33969   2.315  13.277   4.356  0.0215  0.1101  0.1091
15766W        W33970  12.099  14.305  13.675 -0.1528 -0.2217 -0.3433
15767W        W33971  10.832  15.616   3.906 -0.0510  0.0527 -0.4191
15768W        W33972   5.053   2.142  13.062 -0.3102 -0.0442  0.0127
15769W        W33973   6.441  13.455   2.234  0.1333  0.0797  0.1370
15770W        W33974   8.963  14.249  12.656  0.4104 -0.0947  0.0004
15771W        W33975  11.161  14.460  14.747  0.2110  0.2542  0.1473
15772W        W33976   3.792  11.011  14.575  0.3444 -0.0772 -0.0111
15773W        W33977  11.209   9.356  12.553 -0.1564  0.1146 -0.1525
15774W        W33978  10.357   1.282  11.139 -0.0701 -0.1496 -0.0977
15775W        W33979   4.194  13.595  14.846  0.0444 -0.0486  0.0261
15776W        W33980  11.166  13.098   4.004  0.2296 -0.1855 -0.0731
15777W        W33981   4.711   3.902  12.050 -0.1345  0.0125  0.0863
15778W        W33982   9.004   1.209  15.648 -0.0578  0.0511 -0.0691
15779W        W33983  11.974  15.428  11.692  0.4842 -0.0674 -0.2646
15780W        W33984  15.459   2.379  12.240 -0.0461  0.1851 -0.1438
15781W        W33985   4.510   1.204  14.828  0.0735 -0.0067  0.0771
15782W        W33986  12.659  11.415  14.803 -0.1206  0.1249  0.1278
15783W        W33987   4.339  11.285   4.135 -0.1427  0.3694  0.1823
15784W        W33988  12.523   5.544  13.804 -0.1169 -0.1630 -0.1707
15785W        W33989  13.518  12.479  13.683 -0.1522  0.1865  0.0241
15786W        W33990   2.195   7.111  14.009  0.0374 -0.1035 -0.0014
15787W        W33991   9.789   5.114   4.258 -0.0874  0.0146 -0.1807
15788W        W33992  12.454  11.026   3.268  0.1248 -0.1353 -0.0508
15789W        W33993   6.632   0.205   2.791  0.1509 -0.2092  0.6164
15790W        W33994   4.414  10.582   2.819 -0.0038 -0.0325 -0.3670
15791W        W33995   7.580  17.938   2.430  0.1349 -0.1460  0.1832
15792W        W33996   0.962   3.883  15.798 -0.1081 -0.0623  0.1804
15793W        W33997   3.868   0.519   2.267  0.1021  0.3017 -0.0691
15794W        W33998   3.978   6.946   1.787 -0.1291  0.0094  0.1130
15795W        W33999  11.603  13.402   5.056  0.1608  0.0353 -0.1290
15796W        W34000  15.640   3.121   3.465 -0.0750  0.0295  0.2524
15797W        W34001  16.513   4.332   0.838  0.1414  0.1262  0.3927
15798W        W34002   5.770   6.586  13.935 -0.3604  0.3133 -0.0726
15799W        W34003   7.857   7.786   1.194  0.2734  0.0433 -0.0170
15800W        W34004  16.662  11.970  11.316  0.0729 -0.1332  0.0342
15801W        W34005   0.929   4.331  13.305 -0.1673 -0.0432  0.0044
15802W        W34006  16.955  17.971   4.504 -0.1697  0.2150  0.1787
15803W        W34007  13.567  12.753   4.142  0.1325  0.4070 -0.1649
15804W        W34008   7.429   0.638   0.519  0.1570 -0.0388  0.3235
15805W        W34009  16.830  10.962  13.974 -0.1336  0.1602 -0.2543
15806W        W34010   0.346  13.608  13.482  0.0187 -0.0542  0.0287
15807W        W34011  14.519   1.153   0.776 -0.2555 -0.0919  0.4186
15808W        W34012   9.019   1.261   0.954 -0.1748 -0.0283  0.0125
15809W        W34013   9.332  15.715  13.387  0.2548 -0.2258  0.1542
15810W        W34014   8.003   4.636   2.798  0.4173 -0.0744  0.1822
15811W        W34015  17.265   4.526   3.025  0.2540  0.0396  0.0241
15812W        W34016  10.579   4.952  11.229  0.2321  0.1161  0.2708
15813W        W34017  15.520   4.136  16.024  0.2928  0.0516  0.3067
15814W        W34018   7.590   7.384   0.278  0.0725 -0.0374  0.0757
15815W        W34019  11.265   3.230  16.065 -0.1213 -0.3649 -0.2052
15816W        W34020   7.621   2.237   0.572 -0.0755  0.2822  0.0181
15817W        W34021   8.558  13.597  15.185 -0.5056 -0.2587  0.1482
15818W        W34022  16.984  17.445  12.761 -0.0524  0.1892 -0.1627
15819W        W34023   8.055   1.022   3.029  0.1248  0.1342 -0.1160
15820W        W34024  15.190  17.614  14.424 -0.1253  0.1576 -0.0105
15821W        W34025  15.453   0.351   1.270 -0.1690 -0.2417 -0.2092
15822W        W34026   3.725   0.573   2.742  0.1041  0.2845  0.0618
15823W        W34027  12.523  16.796   1.420 -0.1892 -0.1540  0.1511
15824W        W34028  13.880  11.089   4.108  0.1146 -0.2481  0.1081
15825W        W34029  15.636   3.669  13.606 -0.1159 -0.1187 -0.1075
15826W        W34030   6.543  14.081   2.836 -0.2143 -0.0408  0.2235
15827W        W34031   5.798   9.565   2.694 -0.2016 -0.2077  0.0970
15828W        W34032  11.312   2.899   0.533  0.0892 -0.4063  0.0055
15829W        W34033   7.377   8.200   3.281  0.1719 -0.0818 -0.1297
15830W        W34034   8.120   2.356  15.850  0.2219  0.0325  0.4251
15831W        W34035   7.501   2.859  14.381 -0.1390  0.1665 -0.4456
15832W        W34036   6.691   4.381   4.210 -0.1002 -0.2921  0.0729
15833W        W34037   5.348  14.614   0.990  0.0710 -0.1626  0.2129
15834W        W34038   9.777  17.861   2.327 -0.0698  0.2351  0.1049
15835W        W34039   2.621  10.880   3.374  0.1517  0.2821 -0.0756
15836W        W34040   0.268   0.571  13.664 -0.3041 -0.0680  0.2309
15837W        W34041   4.161  15.606   1.295  0.2635 -0.3038  0.0623
15838W        W34042   8.496   9.903   1.599  0.1496  0.1425  0.0529
15839W        W34043   2.640  16.879   0.617  0.0695  0.0501 -0.0851
15840W        W34044   3.035  11.657  11.830 -0.0189 -0.1135  0.0671
15841W        W34045  10.772   9.615  11.829 -0.0435  0.1774 -0.0915
15842W        W34046  16.848   2.542  12.721  0.0097  0.0467  0.3020
15843W        W34047  14.351  17.483   4.256 -0.3508  0.1149 -0.1747
15844W        W34048  12.855  13.144   3.957  0.0736  0.2882 -0.2025
15845W        W34049   9.929  10.303   0.176  0.1270 -0.0970 -0.2033
15846W        W34050  10.551  17.605   4.616 -0.1400 -0.1277 -0.0913
15847W        W34051   2.810   0.054   1.344 -0.0208  0.1503 -0.0164
15848W        W34052  16.070  15.119  14.995 -0.1321  0.0525 -0.4366
15849W        W34053   3.326  11.207   0.522  0.2013  0.0666 -0.0554
15850W        W34054   5.458  13.569   1.259 -0.2106 -0.0370  0.0371
15851W        W34055  13.125  12.961  13.912  0.1586 -0.1830 -0.1908
15852W        W34056   8.801   7.886  12.968 -0.0781 -0.1023  0.1000
15853W        W34057   0.204  10.530  14.784  0.0317 -0.2484  0.2177
15854W        W34058  16.237  15.961   3.182 -0.0204 -0.0293 -0.0150
15855W        W34059   4.543  17.827   1.846  0.0902  0.0918 -0.2040
15856W        W34060   0.090  10.457  13.116  0.0890 -0.3234 -0.1457
15857W        W34061   4.239   3.926   0.192 -0.0080 -0.2950  0.2754
15858W        W34062  10.085   7.145   1.646 -0.1955  0.1863 -0.1043
15859W        W34063  17.909   1.476  12.258  0.0594 -0.0141  0.1422
15860W        W34064   5.497  14.959   0.497 -0.0280 -0.0478 -0.1387
15861W        W34065  11.658  11.562   0.178 -0.1544 -0.2394  0.0920
15862W        W34066   9.644  13.429  13.885  0.2303 -0.0225  0.1350
15863W        W34067   0.198   8.000   2.968  0.3232 -0.1754 -0.0154
15864W        W34068   6.448   3.130   4.814  0.2094 -0.3019 -0.2598
15865W        W34069  11.133   1.489  12.932  0.2083 -0.1450  0.1971
15866W        W34070  17.912  13.749   0.703  0.2136 -0.1331  0.3124
15867W        W34071  13.350  15.036   4.202  0.3018 -0.2263  0.0774
15868W        W34072  12.480  13.861  12.332  0.3096  0.1999 -0.1074
15869W        W34073   8.339  16.749  13.093  0.0382  0.0566 -0.1966
15870W        W34074  16.228   7.136  12.045 -0.0590  0.1702  0.3953
15871W        W34075   1.031   4.722   2.688  0.1004  0.1773 -0.2116
15872W        W34076   8.500   6.135  16.007 -0.0184 -0.2268  0.0430
15873W        W34077   5.519  16.332   3.666  0.1751  0.1768 -0.0740
15874W        W34078   7.711   9.359   1.700  0.2270 -0.0109  0.2488
15875W        W34079  14.183   0.750  10.963  0.0396 -0.1197  0.4199
15876W        W34080   7.552   6.121  12.024  0.0191 -0.0810 -0.0473
15877W        W34081  13.623   2.600   0.789 -0.1721 -0.2230 -0.0201
15878W        W34082   5.504   7.456   2.989 -0.2804  0.2611 -0.2914
15879W        W34083   1.791   7.620  13.399  0.0278  0.0184  0.0074
15880W        W34084   0.173   4.802  11.965  0.3225  0.1398  0.0507
15881W        W34085   9.321   2.820  13.678 -0.2645  0.4470 -0.3284
15882W        W34086   6.819  10.627   1.237 -0.0931 -0.1453 -0.1143
15883W        W34087   7.224  13.359   2.637  0.1026 -0.2269  0.0307
15884W        W34088  11.398   0.956   3.726 -0.0753  0.0651  0.0964
15885W        W34089   2.708  13.414  13.456  0.3390  0.0803  0.1762
15886W        W34090   1.334  12.387   0.279 -0.2603 -0.1774  0.2209
15887W        W34091   2.714  12.841   1.063  0.0560 -0.0078 -0.0957
15888W        W34092   8.480   9.665  11.234 -0.0195 -0.1616 -0.1061
15889W        W34093   7.257   7.281  12.516 -0.0477 -0.2551 -0.1054
15890W        W34094  12.813   6.975  14.506 -0.0393 -0.1211  0.0753
15891W        W34095   7.039  17.336  11.080 -0.1110  0.0532  0.0236
15892W        W34096  14.448  10.990   2.823 -0.0060  0.1966 -0.3705
15893W        W34097   3.378   4.890  16.146 -0.1718 -0.0768  0.0942
15894W        W34098  10.290  11.982  15.429 -0.1563 -0.0954 -0.2090
15895W        W34099   0.750   2.931  15.969 -0.1191  0.0278  0.0989
15896W        W34100  17.123   2.298  15.253 -0.0244  0.2920 -0.2118
15897W        W34101  15.791  16.965   0.012  0.0218 -0.0509 -0.0101
15898W        W34102  15.573  17.596   1.680 -0.1583  0.1583 -0.0718
15899W        W34103   3.842   9.273   1.360  0.2213 -0.2922 -0.0616
15900W        W34104   2.538  13.190  14.047  0.2271 -0.0627  0.2407
15901W        W34105  15.889   3.321   1.905  0.1432  0.2257  0.1546
15902W        W34106   5.527   9.756   1.994  0.0803 -0.1509  0.2500
15903W        W34107  13.321  16.925   2.730  0.1639  0.2798 -0.1449
15904W        W34108  10.933  13.718   0.760  0.0014  0.0453  0.1699
15905W        W34109   3.307   6.760   4.739  0.2732 -0.2263  0.3073
15906W        W34110   6.819   5.653  15.864 -0.2249  0.2300 -0.1692
15907W        W34111   0.282  15.918  15.938  0.0248 -0.2017  0.0177
15908W        W34112  17.859  14.613  14.495  0.2604 -0.1661 -0.0195
15909W        W34113   2.812  11.554   3.887 -0.1708 -0.0842 -0.0628
15910W        W34114   1.070  14.076   0.413 -0.1121  0.0198  0.2009
15911W        W34115   9.458   5.653  11.854  0.1046  0.0789  0.0965
15912W        W34116   3.977   7.861   6.308 -0.2833 -0.0162  0.0647
15913W        W34117  17.966   0.056  13.725 -0.0336  0.0629 -0.2606
15914W        W34118   5.805  11.194  13.834  0.0772  0.2514  0.1018
15915W        W34119   8.127   0.562  12.418  0.0183 -0.0680 -0.0335
15916W        W34120  11.519   4.227  13.303  0.0201  0.0742 -0.1201
15917W        W34121  10.652  14.279  14.438  0.0304 -0.1764  0.0110
15918W        W34122   4.223  11.341  12.794  0.2533 -0.5389  0.2538
15919W        W34123  15.600   1.742   1.478  0.0944  0.2603  0.1067
15920W        W34124   6.908  11.930  15.862  0.2519  0.1860 -0.1117
15921W        W34125  11.083   1.235   3.921 -0.1644  0.2862 -0.0202
15922W        W34126  15.124   3.584   4.871  0.0450  0.2499  0.0746
15923W        W34127  17.191   5.965  12.890  0.1331  0.1957  0.0421
15924W        W34128  15.002   6.254  12.970  0.3291 -0.1823 -0.2169
15925W        W34129   3.854   0.104   1.986 -0.0547 -0.3568  0.1631
15926W        W34130  11.573  17.075  15.733  0.1843  0.0585 -0.0497
15927W        W34131   5.303  14.318   2.077 -0.0299  0.0064  0.1396
15928W        W34132   4.456   1.989  12.477 -0.0154 -0.3596 -0.1107
15929W        W34133  13.221   0.408  14.767 -0.0203  0.0304 -0.2070
15930W        W34134  16.958  16.853  13.404  0.0617 -0.3840  0.0876
15931W        W34135  14.200   8.308   2.371  0.3693 -0.3098 -0.0294
15932W        W34136   4.090  11.820  13.581 -0.2517  0.1381 -0.0372
15933W        W34137   7.750   1.156   1.859  0.1562 -0.3339 -0.0426
15934W        W34138   9.703   3.639  15.743  0.0969  0.1074  0.0421
15935W        W34139  12.861   7.644   0.741  0.3298 -0.2331  0.1463
15936W        W34140   7.203   2.661  15.879 -0.0224  0.1561 -0.1784
15937W        W34141  13.682  17.022   4.492  0.3823 -0.0316 -0.5609
15938W        W34142  14.484   6.361  14.709 -0.1503  0.2685 -0.3433
15939W        W34143  12.315  10.594   0.755  0.1302  0.1221 -0.0997
15940W        W34144  10.866  14.566   0.784 -0.0794 -0.0782 -0.1742
15941W        W34145  17.778   0.695  11.294 -0.0403  0.0148  0.0227
15942W        W34146  14.396   4.273  15.471  0.0882 -0.1929  0.2033
15943W        W34147   8.081  12.668  15.312 -0.0483 -0.0962 -0.1338
15944W        W34148  10.048   9.477   0.641  0.1304  0.3273  0.0036
15945W        W34149   2.117   7.576  13.849  0.1775 -0.0148  0.1331
15946W        W34150  13.281  15.699   2.921 -0.0107  0.3703 -0.0792
15947W        W34151   1.879  17.555   0.866 -0.2232 -0.1154 -0.1795
15948W        W34152  11.069   2.556   4.126 -0.0455  0.0309  0.0143
15949W        W34153  11.028   8.204  14.614  0.1780 -0.2179 -0.3512
15950W        W34154   0.969  15.090  14.840 -0.1632 -0.0958 -0.3173
15951W        W34155   6.789  16.853  13.423  0.0442  0.0066 -0.1883
15952W        W34156   4.252  12.216   1.991  0.0405 -0.1130  0.1500
15953W        W34157  16.734   2.042  14.592 -0.1043 -0.0346 -0.1154
15954W        W34158  14.591  11.711   0.601  0.1979  0.0998 -0.0907
15955W        W34159   7.821   8.873   2.930 -0.2649 -0.1821 -0.1702
15956W        W34160  11.324   8.422   4.698 -0.0581 -0.0817  0.1413
15957W        W34161  14.606  16.790   4.471  0.2421 -0.0914  0.4052
15958W        W34162  13.451   2.456  14.534  0.2080 -0.1524  0.1520
15959W        W34163   1.083  17.882   4.488  0.1308 -0.0947  0.0385
15960W        W34164   4.437   4.234   0.761  0.1053 -0.1721 -0.0882
15961W        W34165  11.688  10.267  16.171 -0.0206 -0.2647  0.0410
15962W        W34166  14.753  13.852  13.942  0.0599  0.0126 -0.0469
15963W        W34167   7.583  10.790   0.617 -0.2064 -0.2395  0.1738
15964W        W34168   4.086   1.180   0.925  0.1344  0.0255 -0.1541
15965W        W34169   1.750  12.465  14.039  0.1169  0.0928  0.2368
15966W        W34170   6.821  13.731  14.770 -0.0919  0.0030 -0.2343
15967W        W34171  12.545  11.910   5.738 -0.3030  0.0184  0.0478
15968W        W34172   3.437   0.890   4.386 -0.0668  0.0136  0.0629
15969W        W34173   6.149   6.576   4.072  0.2809 -0.0775  0.0902
15970W        W34174   1.538   3.940   0.100  0.0293 -0.1584  0.2403
15971W        W34175   8.586  15.069   0.378  0.0021  0.1435 -0.3344
15972W        W34176   2.406   4.236   5.327  0.1234 -0.0913  0.0635
15973W        W34177  17.192   9.836   2.141 -0.2403 -0.2669  0.0677
15974W        W34178  13.949  16.559  13.514  0.3517 -0.1260  0.0826
15975W        W34179  13.908   2.008  11.544 -0.0991 -0.4231  0.0619
15976W        W34180  13.292  17.985   0.604  0.0277 -0.0201 -0.0740
15977W        W34181  15.898   4.136  12.016 -0.0860  0.4379 -0.0538
15978W        W34182  13.653  16.360  15.591 -0.0481 -0.0444 -0.3130
15979W        W34183  17.799   4.705   1.373  0.1179  0.2906  0.1514
15980W        W34184   3.578   3.324   3.222  0.1530  0.0718  0.0561
15981W        W34185   1.207   8.962   3.440  0.0681 -0.1583 -0.1601
15982W        W34186   6.522   2.231  15.667  0.0339 -0.0525  0.0553
15983W        W34187   7.333  12.309   3.246 -0.1499 -0.1866  0.0755
15984W        W34188  10.744  16.147   3.664 -0.1718 -0.0251 -0.0688
15985W        W34189   9.628   0.678  15.403 -0.0738  0.0782  0.0181
15986W        W34190  12.909   0.441   4.468 -0.0038  0.0074 -0.0012
15987W        W34191   7.220   9.690  13.449  0.0832  0.3072 -0.1845
15988W        W34192   6.047  15.217   2.950 -0.2854 -0.1445 -0.1311
15989W        W34193   7.317  14.053  12.506 -0.0860  0.0594 -0.3029
15990W        W34194   4.082  15.684  11.866  0.1592  0.2580  0.2952
15991W        W34195   0.484   7.414  14.440  0.0391  0.0650  0.0718
15992W        W34196  16.232   7.890  11.097 -0.0772  0.1360  0.1916
15993W        W34197  10.948  15.112   2.815 -0.0699  0.2615  0.1718
15994W        W34198  11.551   7.064   0.471 -0.0920  0.2810 -0.1142
15995W        W34199  13.391  14.131  12.509 -0.0733  0.0478 -0.0185
15996W        W34200  16.151  10.774   2.649  0.1710 -0.1812 -0.1019
15997W        W34201  15.593   5.899   4.240 -0.0613 -0.0889  0.0216
15998W        W34202  10.087  14.032   0.221 -0.0623 -0.0639 -0.0335
15999W        W34203   5.639  10.556   2.996 -0.0705  0.2539 -0.1303
16000W        W34204  10.600   1.502  14.243  0.1550  0.0177 -0.0782
16001W        W34205   6.860   8.624   0.915 -0.1341 -0.0854  0.2626
16002W        W34206  10.701   4.100  13.548  0.0937 -0.2657  0.2104
16003W        W34207  10.582  17.292  10.780 -0.0955 -0.0275 -0.0176
16004W        W34208   2.227   3.211   1.563 -0.0515 -0.0398  0.1593
16005W        W34209  11.760   5.291   1.123 -0.2068 -0.0025 -0.0345
16006W        W34210  12.224   1.946   4.698 -0.0241  0.0004  0.0667
16007W        W34211   2.287   1.225   1.273 -0.0560  0.0412 -0.2349
16008W        W34212  15.902   3.805   2.346  0.0315  0.0494 -0.1168
16009W        W34213   5.204   6.368  14.779  0.1409  0.0531 -0.1748
16010W        W34214  11.103   3.758   3.709  0.0551 -0.0337  0.1476
16011W        W34215   6.031  13.809   3.111  0.0023 -0.0681 -0.0509
16012W        W34216   8.311   5.836   3.247 -0.1361 -0.1131  0.1042
16013W        W34217   9.176   9.175  12.783 -0.0980 -0.0571  0.1577
16014W        W34218  14.399   3.932  13.970 -0.0850 -0.0333  0.0368
16015W        W34219   0.735   5.139  13.866  0.0931 -0.0048  0.0278
16016W        W34220   1.352  10.972   2.072  0.1232 -0.3897  0.0731
16017W        W34221  14.710   8.155   2.496  0.1443 -0.0243 -0.0984
16018W        W34222  11.026  12.038   5.177 -0.0580 -0.0398 -0.0335
16019W        W34223   7.518   1.467   2.946  0.1993  0.0654 -0.0387
16020W        W34224   0.407   9.159  10.749 -0.1135 -0.1906  0.3745
16021W        W34225  10.449   9.535  15.348  0.1064 -0.0492 -0.2763
16022W        W34226  17.983   9.688   0.173  0.2480 -0.0407  0.1727
16023W        W34227   9.079   5.754   1.315  0.0669  0.1962  0.0333
16024W        W34228  11.726   0.546   0.125 -0.0975  0.3638 -0.0345
16025W        W34229   4.891   7.325  15.722 -0.0557  0.1609 -0.0664
16026W        W34230   1.537  12.668  10.508  0.0376 -0.3860  0.0010
16027W        W34231   2.331   2.860   1.129  0.0428 -0.3385 -0.1179
16028W        W34232   2.217  10.207  13.902 -0.0435 -0.0837 -0.1436
16029W        W34233   4.382   5.083  11.697 -0.0557 -0.1747 -0.0090
16030W        W34234  16.749   7.802   2.532 -0.0358 -0.1358  0.1040
16031W        W34235   6.863  14.047  14.187 -0.1850  0.1228 -0.2852
16032W        W34236  16.839   5.570   4.484 -0.0244  0.0395 -0.1468
16033W        W34237   8.006   1.005  15.593 -0.2994  0.1377  0.2376
16034W        W34238  14.415   7.249  12.369 -0.1063 -0.2473 -0.0184
16035W        W34239   3.597   9.783  14.366  0.1566 -0.0130 -0.1640
16036W        W34240   4.864   9.576   1.374  0.1273  0.0433  0.0804
16037W        W34241  16.511   6.260   1.591 -0.0328  0.2310 -0.2300
16038W        W34242  14.203  10.440   2.668  0.1742 -0.0212 -0.2251
16039W        W34243  12.768   5.422   1.824  0.1168  0.1044 -0.0495
16040W        W34244  13.162  16.285  15.166  0.1256 -0.0243  0.1918
16041W        W34245   9.649   2.021   3.537  0.1182  0.0842 -0.1353
16042W        W34246  14.769   2.867  11.349 -0.1554 -0.3192 -0.1290
16043W        W34247   8.688   9.252  12.887 -0.0503 -0.0144 -0.1169
16044W        W34248   0.990  15.830  13.659 -0.1387 -0.0601  0.1130
16045W        W34249  12.967   8.734  12.565  0.3647  0.1466  0.0641
16046W        W34250   0.717   9.548  11.689  0.1018 -0.0447  0.0803
16047W        W34251  13.323   1.433  15.058  0.0857  0.0921  0.0653
16048W        W34252   1.108  16.443   1.492 -0.2157  0.1331  0.0305
16049W        W34253   4.462  11.320   3.515 -0.4367 -0.1418  0.1436
16050W        W34254   6.909   9.150   5.106 -0.0194 -0.1482 -0.0014
16051W        W34255   7.504   8.358  12.995 -0.0262  0.1278  0.2091
16052W        W34256   1.892   1.976  13.359 -0.2034 -0.0988  0.0302
16053W        W34257  16.466  14.118  11.493  0.0994  0.3159  0.1487
16054W        W34258  11.866   6.875   3.257 -0.2640 -0.0457  0.0962
16055W        W34259   7.706  14.097  14.463  0.0531 -0.0017 -0.2733
16056W        W34260  14.620  14.073   3.255 -0.1442 -0.1129  0.0556
16057W        W34261   0.585   6.916  11.770 -0.3477 -0.0095 -0.0295
16058W        W34262   0.882   7.986  15.544 -0.0004  0.2289 -0.0834
16059W        W34263   4.097  12.292  13.414 -0.1220 -0.1662 -0.0116
16060W        W34264  15.289  11.226   4.371  0.0127  0.1684  0.0344
16061W        W34265  15.154  13.174   2.477 -0.2748  0.2174 -0.0213
16062W        W34266   3.991  12.430  12.544  0.0373 -0.3350 -0.2730
16063W        W34267   4.856  10.206  13.722  0.1149 -0.0679 -0.0925
16064W        W34268  16.358  14.739  13.147  0.1798 -0.2946  0.2719
16065W        W34269   6.416   2.504  14.622  0.2541  0.1430 -0.0579
16066W        W34270  11.215   7.133   5.157  0.1556  0.2465 -0.1094
16067W        W34271  14.485   9.708  11.768 -0.2259 -0.2195  0.1890
16068W        W34272   1.560  15.006  12.255  0.2181 -0.0269 -0.2864
16069W        W34273  11.778   7.610   1.194  0.0935  0.4536 -0.0446
16070W        W34274   8.486  10.431  16.120 -0.2049 -0.0097 -0.2232
16071W        W34275  12.018  13.795   1.877  0.0907  0.0805  0.1262
16072W        W34276   1.339   3.941   4.830 -0.2109  0.3023  0.1101
16073W        W34277  16.999   3.777   3.412 -0.0329  0.0978 -0.1937
16074W        W34278   4.362  15.702   2.545 -0.1179 -0.0887 -0.0414
16075W        W34279   8.397  16.426   2.847  0.2236 -0.2839 -0.0733
16076W        W34280  12.070  13.134   1.196  0.1291  0.0419  0.0619
16077W        W34281  13.132   6.570   3.754 -0.1358  0.0872 -0.2104
16078W        W34282   2.119  14.354   2.787  0.4332 -0.0397 -0.0293
16079W        W34283  11.109   1.815   3.202  0.0814  0.0083  0.2649
16080W        W34284  17.030   9.196  15.677  0.2035  0.1210 -0.0278
16081W        W34285  15.432   2.866  15.231  0.1463 -0.0236 -0.0618
16082W        W34286   3.490   1.932   4.667 -0.1320  0.1963 -0.3611
16083W        W34287  14.254  11.908  13.604 -0.0362  0.1239 -0.1188
16084W        W34288  14.374   0.562  13.815 -0.2281 -0.1869 -0.2605
16085W        W34289  14.090  13.411  11.929  0.3087  0.3617 -0.0432
16086W        W34290  10.513   3.920   4.333 -0.1546 -0.3754 -0.1112
16087W        W34291  15.791   0.412   2.689 -0.1104 -0.1308 -0.1383
16088W        W34292   8.904   5.424   6.078 -0.1344 -0.3109  0.0225
16089W        W34293  15.783  12.505  14.104  0.0662 -0.1579 -0.0320
16090W        W34294   7.372   6.380  11.164 -0.0870 -0.0370 -0.0287
16091W        W34295  12.309   7.163  12.421  0.2039  0.3114  0.0576
16092W        W34296   5.565  14.556  12.144  0.0069 -0.1112  0.0422
16093W        W34297   2.822   9.925  15.582  0.0836  0.0097  0.1746
16094W        W34298  12.082   9.426  12.993  0.2704  0.1181  0.2788
16095W        W34299   6.995   8.911   0.534  0.2648 -0.2339  0.1389
16096W        W34300  11.227  11.559  12.225 -0.0577 -0.3266 -0.2332
16097W        W34301   9.772  15.782   3.075 -0.3276  0.0757 -0.1128
16098W        W34302   7.471  12.135  11.301 -0.4459 -0.0795  0.1993
16099W        W34303   4.922   4.803   4.398  0.1641 -0.3690  0.0397
16100W        W34304   6.495  13.866   3.296 -0.0152 -0.1666 -0.1007
16101W        W34305  16.044  16.180  15.134  0.1005 -0.0591  0.1533
16102W        W34306  13.592   0.374  15.493  0.1953  0.1014 -0.0503
16103W        W34307   0.851   7.102  12.581  0.1632 -0.2041 -0.0806
16104W        W34308   3.515  16.275   4.938  0.2738  0.1308 -0.0539
16105W        W34309  17.103  14.529   2.799  0.1360  0.0169  0.0904
16106W        W34310  15.860   2.528  15.063  0.0218  0.0014 -0.0764
16107W        W34311  16.401   4.100  13.643  0.2189  0.0888  0.1620
16108W        W34312  13.481  12.484  11.788  0.2840  0.1196  0.2828
16109W        W34313  12.911  12.328   3.758  0.0963  0.0267  0.0637
16110W        W34314   4.674   1.445   4.598 -0.1780  0.2783 -0.3571
16111W        W34315  13.945   6.043  11.197 -0.0727  0.1884 -0.1078
16112W        W34316  16.213   3.851  12.840  0.1526  0.1616 -0.2558
16113W        W34317   1.751  10.701  15.056  0.1970  0.2682  0.0142
16114W        W34318  15.325  10.802   4.711  0.0363  0.1180 -0.0584
16115W        W34319   2.303   9.532   3.767 -0.1951 -0.2307  0.0839
16116W        W34320  16.203   9.942   4.888 -0.0049  0.2184  0.1368
16117W        W34321  15.453  15.151  11.542 -0.0793 -0.0593  0.0559
16118W        W34322  10.036  13.459  11.430 -0.2069 -0.1269 -0.0964
16119W        W34323   9.895   0.497   0.843  0.0643  0.1989 -0.1134
16120W        W34324  14.379  15.737   2.228 -0.3213 -0.2856  0.1232
16121W        W34325   7.787   1.278   4.238 -0.0936 -0.0132  0.2813
16122W        W34326   9.491  16.803   0.643 -0.2657  0.1349  0.0247
16123W        W34327   1.650   8.906   4.730  0.2346 -0.0129 -0.0697
16124W        W34328  17.255   2.798  12.558 -0.1968 -0.1663 -0.0150
16125W        W34329  10.455   0.886  12.917  0.1927  0.1069  0.3287
16126W        W34330  15.797   2.990   2.917 -0.0904 -0.1816 -0.0332
16127W        W34331   0.714   5.609  13.157 -0.0249  0.0667  0.0028
16128W        W34332  13.676  17.042   3.119 -0.2452 -0.1783 -0.2990
16129W        W34333  11.709   6.362   4.523  0.4478  0.0557 -0.2036
16130W        W34334  11.202   2.284  13.736 -0.2433 -0.1648 -0.0653
16131W        W34335  14.227  17.216   0.489  0.3785  0.1726  0.1111
16132W        W34336  11.013   8.633   3.014 -0.2875 -0.4049 -0.1760
16133W        W34337   1.850   8.398   2.545 -0.0223  0.1145  0.1471
16134W        W34338   2.178  12.271   1.756 -0.1367 -0.2611  0.1611
16135W        W34339   1.955  17.470   4.056 -0.1299  0.2654 -0.1896
16136W        W34340  13.973  10.897   4.612 -0.1409 -0.2155  0.1402
16137W        W34341  14.488  17.188   3.386  0.1683  0.0804  0.1555
16138W        W34342  14.203   2.425  11.612  0.0149 -0.0285  0.0060
16139W        W34343  16.258   6.268  15.380 -0.0459  0.0559 -0.0323
16140W        W34344   2.156  11.714   3.546 -0.0495 -0.1061  0.0917
16141W        W34345  11.860  10.581   4.166  0.0362  0.1408 -0.0759
16142W        W34346  15.309  16.702  15.689 -0.1448 -0.0810 -0.2725
16143W        W34347  13.141   3.122  15.151 -0.0093 -0.2453 -0.2201
16144W        W34348   6.205   3.698   0.700  0.1825  0.2921 -0.1220
16145W        W34349   9.464   8.210  15.444 -0.0112 -0.0977 -0.0705
16146W        W34350   7.287   3.264  15.141 -0.2477  0.1961 -0.2100
16147W        W34351   2.583  17.755   3.029 -0.2646  0.2615 -0.0473
16148W        W34352   4.170   2.284   3.101  0.1919 -0.1563  0.0378
16149W        W34353  13.079   8.665  14.750  0.1767  0.0234 -0.2405
16150W        W34354   9.206  13.154   0.580 -0.0951  0.0390 -0.0152
16151W        W34355   9.204  17.773  15.613  0.0856  0.2070 -0.2718
16152W        W34356   4.797   3.573   3.418  0.1057  0.0878 -0.1457
16153W        W34357   2.885  13.827   2.712 -0.0399  0.1111 -0.1267
16154W        W34358   5.836   2.349   1.739 -0.1077  0.0891  0.3464
16155W        W34359  12.666  12.583  12.241 -0.2274 -0.0960  0.0538
16156W        W34360   8.049  15.531  15.527 -0.0138 -0.1995  0.0862
16157W        W34361   8.110   3.750   1.551 -0.0408 -0.0846  0.0400
16158W        W34362   8.091   1.468  15.704  0.1750 -0.3144 -0.2498
16159W        W34363  17.382  15.132  11.491 -0.1983 -0.2029 -0.1284
16160W        W34364  17.932   5.169   3.663 -0.1175 -0.0861 -0.0438
16161W        W34365  13.183   2.643  13.535  0.2146 -0.1464 -0.0999
16162W        W34366  15.248  16.161   4.535  0.0351 -0.2408  0.0540
16163W        W34367   7.269   9.378   2.070 -0.0918 -0.4878 -0.2229
16164W        W34368  10.998  16.754  11.291 -0.0736 -0.1367 -0.1067
16165W        W34369   4.511  10.390   4.468 -0.0615 -0.0269 -0.1956
16166W        W34370   5.908  12.264   0.501  0.1169 -0.0300 -0.0345
16167W        W34371   1.900   4.973  15.673 -0.2174 -0.2862 -0.0026
16168W        W34372   7.286  11.325   0.491 -0.3052  0.4114 -0.0010
16169W        W34373   6.452   8.406   1.206  0.1820 -0.0985 -0.1747
16170W        W34374   7.274   8.296  12.163  0.1804 -0.1416 -0.1139
16171W        W34375   3.271   4.196   4.004  0.0523 -0.0540 -0.1304
16172W        W34376  16.205   7.105  14.305  0.1209 -0.0669 -0.5303
16173W        W34377   3.133   0.143  13.263 -0.0650 -0.1111 -0.0902
16174W        W34378   6.741  13.150  13.019  0.0368  0.2056 -0.2297
16175W        W34379  14.102  14.238  11.704  0.1602 -0.0794 -0.0375
16176W        W34380   3.988   7.112   0.253 -0.0505  0.2023 -0.1544
16177W        W34381   5.132   6.178   1.022  0.2390 -0.0909 -0.0311
16178W        W34382  16.161   0.569   2.337  0.0161 -0.0970  0.2616
16179W        W34383  15.734   9.611   5.129  0.0734  0.3048 -0.1394
16180W        W34384   5.426   2.156  12.693  0.0294 -0.1481  0.3934
16181W        W34385   5.228   9.850   0.960 -0.2007 -0.0160 -0.2398
16182W        W34386   6.650  17.417   0.251  0.0525 -0.4887 -0.0532
16183W        W34387   1.702   9.022   3.349  0.2871 -0.1025 -0.1029
16184W        W34388   2.757   1.183   3.889 -0.4541 -0.0245  0.2107
16185W        W34389  16.704   5.883  15.939  0.1983  0.2582 -0.2845
16186W        W34390  14.292  14.726   2.457  0.0384  0.0057 -0.1637
16187W        W34391  13.781  10.903   1.640  0.0195  0.1469 -0.2552
16188W        W34392  16.891   4.274   4.368  0.0166  0.1293 -0.0998
16189W        W34393   0.635  17.441   0.652  0.2690  0.1160 -0.0551
16190W        W34394  14.773   8.369  16.107 -0.1066  0.0419  0.3229
16191W        W34395   3.204  14.726   4.272 -0.1131  0.1239  0.1849
16192W        W34396   9.394   1.088  13.122  0.1533  0.0346  0.4733
16193W        W34397  16.150   7.129   5.210  0.0826  0.1098  0.1822
16194W        W34398  11.698   7.860  11.722 -0.0784  0.1610  0.2496
16195W        W34399  14.079   7.278   4.435  0.0263  0.0345  0.0192
16196W        W34400   9.412   9.618  12.031  0.3270 -0.1977 -0.0896
16197W        W34401   8.419   7.329  14.114 -0.2794 -0.0008 -0.4260
16198W        W34402  10.725   3.447  11.863  0.0463  0.2539  0.2633
16199W        W34403   1.969   3.358  13.598  0.1344 -0.1455 -0.2416
16200W        W34404   1.340  12.604  13.799 -0.2366 -0.1763  0.0662
16201W        W34405  13.731  13.312  12.697  0.0187 -0.0219  0.2142
16202W        W34406  17.579   4.540  13.449  0.5669  0.0732  0.2403
16203W        W34407   1.293   2.963   3.397 -0.1622 -0.0587 -0.0574
16204W        W34408  17.876   9.572  12.270 -0.1210 -0.2257  0.1211
16205W        W34409   3.431  16.952  13.889  0.1697 -0.4525  0.0405
16206W        W34410  17.036   0.134  11.767 -0.1266 -0.0339 -0.0353
16207W        W34411  13.446  17.977  15.828  0.1127  0.0321 -0.1650
16208W        W34412  17.143   3.114   1.144 -0.0536 -0.0558 -0.2382
16209W        W34413   7.954  10.191  13.271 -0.2813  0.1405 -0.1494
16210W        W34414   8.327  10.599  14.746 -0.2193 -0.0076  0.0848
16211W        W34415   7.097   9.334  12.977  0.2585  0.1429 -0.2102
16212W        W34416   1.189  12.580   5.039  0.0896 -0.0677  0.1243
16213W        W34417   3.328   5.967   5.184 -0.1491  0.0681  0.2766
16214W        W34418   8.402   0.612  15.929  0.0650  0.0706 -0.5287
16215W        W34419  16.081  13.092   1.264  0.1716 -0.3885  0.2558
16216W        W34420   2.082  10.320  14.979 -0.2240 -0.1972  0.0870
16217W        W34421  13.042   0.632  15.761 -0.2199 -0.0364  0.1032
16218W        W34422  13.223  17.690  15.360  0.2291  0.2105  0.0538
16219W        W34423   0.782   1.741  13.294 -0.2756  0.1444 -0.2790
16220W        W34424  16.020  15.510  14.712  0.3168  0.0236  0.1972
16221W        W34425   5.518  13.733  12.817 -0.0824 -0.3000 -0.1657
16222W        W34426   4.235  16.495   2.329 -0.1640  0.2251 -0.3761
16223W        W34427   7.879  16.401   4.945 -0.0210  0.1945 -0.0962
16224W        W34428  11.005   5.400   1.442  0.3507  0.1453 -0.0283
16225W        W34429  12.590   4.914   1.168  0.0667 -0.1675 -0.2194
16226W        W34430  11.806  10.570   4.780 -0.3170  0.3241  0.2294
16227W        W34431  12.605   2.998   4.461 -0.2599 -0.0772  0.2350
16228W        W34432  14.011   5.455   1.449 -0.0748 -0.0115 -0.0624
16229W        W34433   4.804   8.569   0.813 -0.2077 -0.3178  0.0052
16230W        W34434   6.973   1.703  15.621  0.1734 -0.2243 -0.0194
16231W        W34435   8.672   4.547  12.248 -0.0517  0.0401 -0.0828
16232W        W34436   6.311   4.807   3.654 -0.2063 -0.1660  0.0868
16233W        W34437   5.099   0.673   2.877 -0.0603  0.1369  0.0324
16234W        W34438  16.100   2.690  11.114  0.0423  0.2027 -0.1380
16235W        W34439   6.023  11.229  13.385  0.1622 -0.1706  0.0515
16236W        W34440   8.865   9.817  14.839  0.0967 -0.1627  0.0848
16237W        W34441   9.107   5.141   3.292 -0.0952  0.1327 -0.1565
16238W        W34442   5.022  10.733   2.197  0.0831  0.1558  0.0052
16239W        W34443  14.022  11.770  15.235  0.0498  0.0501  0.1181
16240W        W34444  10.082   1.635   4.661  0.2010  0.1924 -0.0955
16241W        W34445  11.578  15.396  12.889 -0.0515 -0.0219  0.2782
16242W        W34446   2.261  17.974  11.665  0.1298 -0.2026 -0.2191
16243W        W34447   7.372  12.282   2.747  0.0533 -0.4157  0.1024
16244W        W34448   5.401  10.252   0.700 -0.1596  0.0308  0.1288
16245W        W34449  16.368  11.212  13.723  0.0309  0.2834 -0.0944
16246W        W34450   0.552   5.961  13.885  0.0522 -0.0764  0.0376
16247W        W34451   4.734   6.462   5.072  0.0674  0.0040  0.1811
16248W        W34452  14.639   6.568  15.153  0.2524 -0.0368  0.1493
16249W        W34453   3.317  11.562   4.126  0.2093  0.1432  0.0161
16250W        W34454   0.247  17.531   1.714  0.1732  0.0258  0.0387
16251W        W34455  12.754  12.445   1.136  0.0425 -0.3455 -0.1617
16252W        W34456  16.027   9.915   2.497 -0.0711 -0.0016 -0.2688
16253W        W34457   7.441  10.390  11.654  0.0127  0.3775  0.0689
16254W        W34458   3.933  12.365   4.174 -0.2737  0.1559  0.0324
16255W        W34459   5.886   9.434  11.544  0.0573  0.0021  0.0085
16256W        W34460   9.004   4.921  12.365  0.0394 -0.2328  0.0353
16257W        W34461   2.574  11.367   4.919  0.2850  0.0427 -0.1945
16258W        W34462  11.882   7.530   0.322 -0.2439 -0.0728 -0.3488
16259W        W34463   2.117  15.865   2.115  0.0253 -0.0684  0.1304
16260W        W34464   3.430   7.363  14.707  0.1986 -0.0750  0.4131
16261W        W34465  17.210  16.608   1.618  0.1788  0.0340 -0.1431
16262W        W34466   2.941  11.040   3.881  0.0973 -0.0325  0.0095
16263W        W34467  14.977   7.390   0.689  0.1190 -0.2239  0.2075
16264W        W34468  11.772  10.578   1.543  0.1715 -0.1417  0.2022
16265W        W34469  17.247  11.660  15.969  0.0737 -0.1922  0.0509
16266W        W34470  12.131  16.099  11.174  0.0305  0.3861  0.0577
16267W        W34471  11.515  14.893  12.473  0.1178 -0.1429 -0.1517
16268W        W34472   4.871  14.031   2.879 -0.2638  0.0414 -0.1186
16269W        W34473   6.495   1.867  13.716  0.2411 -0.1060  0.0686
16270W        W34474  10.220   5.378   0.695  0.0090  0.2328  0.1563
16271W        W34475   0.068   4.786   3.413 -0.1763  0.0129  0.1740
16272W        W34476  13.192   2.935  12.481  0.0633 -0.0206 -0.0699
16273W        W34477   4.038  17.690  15.080  0.0368  0.1559  0.2182
16274W        W34478   8.495  14.273  12.486 -0.1604 -0.1366 -0.1850
16275W        W34479   0.538   9.662  10.695  0.0985 -0.0099 -0.2178
16276W        W34480   6.178  10.205  13.015  0.0897 -0.1835  0.1566
16277W        W34481   4.062   0.084  15.737  0.0700 -0.0227  0.1948
16278W        W34482   3.318   6.318  14.693 -0.1267 -0.2831  0.0213
16279W        W34483  15.399   0.198   5.689  0.0728 -0.0825 -0.1423
16280W        W34484   7.191  14.717  13.674  0.1219  0.3998 -0.1163
16281W        W34485   3.201   1.461   2.283 -0.2655  0.2625 -0.1016
16282W        W34486   1.164  11.988  12.371 -0.0726 -0.0149 -0.0008
16283W        W34487   8.616   7.840  14.351  0.0389 -0.0981  0.0351
16284W        W34488   1.716  17.633  13.844  0.3226 -0.0605  0.1745
16285W        W34489   2.442   5.384  14.647  0.1233 -0.0999  0.1896
16286W        W34490   8.966  17.354  13.007 -0.2220  0.0171  0.2714
16287W        W34491   8.290  16.741  15.231  0.1664  0.0315  0.0170
16288W        W34492  10.194  11.016   2.179  0.0075  0.2066  0.1903
16289W        W34493   3.420   2.543  10.932 -0.0290 -0.1724  0.1449
16290W        W34494   4.418   7.251   4.333 -0.0053 -0.0704  0.2979
16291W        W34495  17.528  12.384  13.925  0.2606 -0.2099  0.3236
16292W        W34496   9.190   7.527  11.945  0.3724  0.0441 -0.0675
16293W        W34497   0.631  12.590   4.965 -0.1199  0.3412  0.2354
16294W        W34498  14.293  10.509  16.042 -0.0810  0.0546  0.1278
16295W        W34499  13.027   7.361   0.355 -0.0805 -0.3483 -0.0280
16296W        W34500   1.144   9.782   2.782 -0.0355 -0.1189 -0.1752
16297W        W34501  10.149   3.941   4.025 -0.0599 -0.1803  0.0635
16298W        W34502   2.571   7.645   3.952 -0.0309 -0.3756  0.0177
16299W        W34503  16.044   0.016  13.477  0.0400  0.1128  0.1971
16300W        W34504  14.363   0.922  12.843  0.2179 -0.2419 -0.1497
16301W        W34505   1.268  11.349   1.742 -0.0375 -0.1594 -0.1091
16302W        W34506   8.130   9.991  14.441 -0.1542  0.0986  0.0837
16303W        W34507  10.977   0.903   5.549 -0.3089 -0.1349  0.0109
16304W        W34508  10.470   0.808  15.896  0.1436  0.1480  0.1722
16305W        W34509  17.347   6.837  15.411  0.1696 -0.3171 -0.2487
16306W        W34510  10.583  14.919  15.221  0.1888 -0.0426 -0.0879
16307W        W34511   0.680  14.802  12.414 -0.0138 -0.0911 -0.0985
16308W        W34512  16.970  15.679   1.676  0.1609  0.0472 -0.2978
16309W        W34513   5.147   2.468   4.037 -0.0270 -0.1918  0.3441
16310W        W34514  17.651   4.135  13.737 -0.3727  0.0425 -0.3505
16311W        W34515  10.299   6.392   2.545 -0.0765  0.2094 -0.3196
16312W        W34516  16.461   7.250   2.540 -0.0069  0.0113 -0.2957
16313W        W34517  11.798  12.228  15.657  0.0851 -0.1372  0.0202
16314W        W34518  13.555   0.015   0.150  0.0089 -0.0241  0.0120
16315W        W34519   8.914  17.361  15.705 -0.0788 -0.0666  0.0338
16316W        W34520  17.459  16.980  11.325  0.0710  0.2401  0.0512
16317W        W34521  17.446  11.987   1.463  0.1533  0.1291  0.0380
16318W        W34522   2.730   6.881   2.854 -0.1642 -0.0842  0.1076
16319W        W34523  12.157  16.451   2.239 -0.1430 -0.0812 -0.1595
16320W        W34524  13.857   3.812  16.141 -0.0764 -0.0508 -0.3077
16321W        W34525   2.998   1.680  14.161  0.0161 -0.0578 -0.1762
16322W        W34526  10.457   5.004   3.203 -0.0751 -0.3061 -0.0064
16323W        W34527   4.330  12.068  14.663 -0.1295 -0.0798 -0.0178
16324W        W34528   6.249   6.851   3.059  0.2748 -0.2114 -0.2726
16325W        W34529   5.300   0.327  13.427 -0.0347  0.1975  0.0470
16326W        W34530  15.683   5.845   5.253  0.4135  0.1280 -0.1322
16327W        W34531  10.338   1.835   2.300  0.1024 -0.1028  0.3642
16328W        W34532  16.231   3.257  14.887 -0.1855  0.0602 -0.0035
16329W        W34533  11.585  16.435  12.925 -0.0219  0.4038 -0.0033
16330W        W34534  11.998  14.945  11.818  0.0004 -0.3986 -0.0068
16331W        W34535   9.089   9.896  15.258 -0.0874 -0.3610  0.1553
16332W        W34536   6.068   9.439  10.827  0.1310 -0.0628  0.1421
16333W        W34537   5.204   4.293   2.676  0.0789  0.4773 -0.0847
16334W        W34538  16.538   8.846   2.729  0.1357  0.0566  0.1964
16335W        W34539   0.039  11.601   4.797 -0.0118  0.0167 -0.2803
16336W        W34540   6.247  11.963   1.273 -0.0488  0.0595  0.1391
16337W        W34541  17.739   9.343   1.116  0.1540 -0.1609  0.1951
16338W        W34542   4.129   2.731  14.131 -0.1566 -0.2253  0.0470
16339W        W34543   5.994  15.158   0.425  0.2280 -0.0907 -0.2713
16340W        W34544   6.530  16.162   3.164  0.0165 -0.0941  0.1479
16341W        W34545   6.556   8.067  12.759  0.0444 -0.0237  0.2506
16342W        W34546   3.073  10.944  12.626 -0.1793 -0.0277  0.1946
16343W        W34547   9.419   0.311  13.664  0.0213  0.0109  0.0065
16344W        W34548  14.785  12.550   0.331 -0.2169 -0.1705  0.1179
16345W        W34549  14.655  16.875   2.885 -0.0417  0.1377  0.0889
16346W        W34550   3.618  10.108   2.444  0.0456 -0.0180  0.0811
16347W        W34551   0.590   1.457  15.138  0.1673 -0.0555 -0.2768
16348W        W34552   1.144  16.128   1.133 -0.1997 -0.0009  0.0259
16349W        W34553  13.954   0.382  11.286 -0.1213  0.2021 -0.1717
16350W        W34554   4.712   5.878  11.573  0.0159 -0.0613 -0.1331
16351W        W34555   4.131   5.813   0.279  0.0705 -0.1943  0.1906
16352W        W34556  14.660  10.926   0.608  0.0348  0.0589 -0.1149
16353W        W34557   0.973   6.050  16.063  0.0357 -0.0466  0.1354
16354W        W34558  17.593   6.602  13.784  0.2981 -0.1355  0.1111
16355W        W34559   8.857  15.889   3.984  0.1185 -0.1095  0.1378
16356W        W34560   3.901   1.296   1.647 -0.3728  0.0510  0.1142
16357W        W34561   4.811   0.694   4.335  0.2442 -0.2317  0.0716
16358W        W34562  17.376   1.953   2.050 -0.1016  0.2554 -0.0440
16359W        W34563   6.682  16.681  15.117 -0.1662  0.2590 -0.0814
16360W        W34564  15.192  11.943   1.437  0.0287 -0.0873 -0.0125
16361W        W34565   3.538   3.784  13.745 -0.0843 -0.3031 -0.0596
16362W        W34566   5.582  17.888  15.284  0.2404  0.0638  0.3733
16363W        W34567   6.384  16.315  13.820  0.0322  0.4600 -0.1899
16364W        W34568   8.690  16.560  13.976 -0.0716  0.0240 -0.0943
16365W        W34569  15.923  10.359   1.797  0.2632  0.4010  0.0557
16366W        W34570   0.593  16.306   2.835 -0.0939 -0.1462 -0.2748
16367W        W34571   7.629  13.155  13.462 -0.1053  0.1101 -0.0726
16368W        W34572  13.913   0.788   1.467  0.1524 -0.1262  0.0303
16369W        W34573   7.104  17.638  15.157 -0.1670 -0.2095  0.1200
16370W        W34574   8.831  12.784  14.106  0.0692 -0.0116 -0.0491
16371W        W34575   0.415   9.235   2.897 -0.0821 -0.1708 -0.2652
16372W        W34576   7.062  17.061   3.707 -0.1450 -0.1721 -0.1026
16373W        W34577  13.798   3.822  13.248 -0.3255 -0.0541  0.1242
16374W        W34578   2.535   2.043   2.390 -0.3757 -0.0518  0.2981
16375W        W34579  10.368  17.983   4.923 -0.2624 -0.3358 -0.1369
16376W        W34580   3.877   5.367  14.888  0.2417  0.1271  0.0613
16377W        W34581  15.165   5.430  15.632 -0.0043 -0.2298  0.2820
16378W        W34582   7.245  12.247   1.834  0.3122  0.0611  0.0603
16379W        W34583  10.094  15.843   2.362  0.2346 -0.3353 -0.1841
16380W        W34584  16.976  11.686  11.855 -0.1166 -0.1680 -0.1499
16381W        W34585   1.605  11.574  14.971 -0.0476  0.0912 -0.1271
16382W        W34586   7.233  14.154   1.408 -0.0133 -0.0852  0.1264
16383W        W34587   4.572   4.915   5.800  0.0351  0.1275  0.1414
16384W        W34588   4.072  16.167  14.066 -0.0588 -0.1373 -0.2010
16385W        W34589   9.607  15.549  11.200  0.0169  0.0631  0.1830
16386W        W34590  15.600  17.458  11.942 -0.0745  0.0385  0.1951
16387W        W34591   0.836   1.585   3.965 -0.0595 -0.2256  0.3185
16388W        W34592   3.915   3.997  15.114 -0.1825 -0.1039  0.0719
16389W        W34593   2.520   4.329  12.134 -0.0477  0.1770 -0.1768
16390W        W34594   0.619  15.682  11.586 -0.0690 -0.0187 -0.1450
16391W        W34595  14.258   2.742   2.393  0.2769  0.0076 -0.2724
16392W        W34596   9.295  10.724  14.660  0.0006 -0.1082  0.3300
16393W        W34597   5.017   3.333  14.022  0.0811  0.0563 -0.3500
16394W        W34598  12.283   9.864  15.598  0.0410  0.1128  0.1243
16395W        W34599   3.357  14.661   2.766  0.1902 -0.0785 -0.0175
16396W        W34600   3.488  12.077   1.283  0.1492 -0.2458  0.2360
16397W        W34601  10.268  12.969  11.307 -0.0991  0.2075 -0.0210
16398W        W34602   0.904  11.348  11.662 -0.0155 -0.0913 -0.0884
16399W        W34603   2.698   0.532  13.265 -0.2484  0.0269  0.0054
16400W        W34604   3.800   8.442   4.949  0.0619  0.4159 -0.1681
16401W        W34605   2.385  13.835   3.670 -0.1034  0.0116 -0.2797
16402W        W34606   1.396  12.760  14.843 -0.0903 -0.1474 -0.1646
16403W        W34607  16.338  15.098  15.860  0.1451 -0.2267 -0.0733
16404W        W34608   5.160  13.396  13.103  0.1788 -0.1979 -0.1977
16405W        W34609  10.913  14.077  14.991 -0.1322 -0.0004  0.2084
16406W        W34610  15.525  10.079   5.371 -0.1600  0.1529 -0.0799
16407W        W34611  11.767   5.352   4.582 -0.0252 -0.0992 -0.2806
16408W        W34612   0.713  16.595   4.862 -0.0601 -0.0287  0.1969
16409W        W34613  10.092  17.219   1.355  0.0473  0.1542 -0.0397
16410W        W34614   5.605  13.219  12.788 -0.2624 -0.3448 -0.0480
16411W        W34615   0.325  10.362   3.504 -0.1664  0.0724  0.1171
16412W        W34616  14.404   9.314   2.861 -0.2281 -0.2032 -0.1606
16413W        W34617  14.801  15.523   0.938  0.0186  0.0391  0.0122
16414W        W34618   8.881   4.759   3.024  0.1850  0.1421 -0.1252
16415W        W34619   6.385  10.837   3.475 -0.2625  0.4338 -0.0922
16416W        W34620  10.130   5.329   3.455 -0.1246 -0.3349  0.1015
16417W        W34621   1.265   3.173  11.956 -0.1307  0.0228  0.2966
16418W        W34622   8.492   1.107   3.757 -0.0717 -0.0434 -0.1709
16419W        W34623  11.018   3.991  13.209 -0.0192 -0.1977 -0.1153
16420W        W34624  11.358   2.565  12.108  0.3575  0.4375 -0.0700
16421W        W34625  11.112   5.113   2.677  0.2321  0.0787 -0.0532
16422W        W34626   5.736   3.847   3.058  0.2361  0.0693 -0.2955
16423W        W34627  16.612   1.541   1.133 -0.0656  0.3969 -0.0119
16424W        W34628  16.616  16.423  15.865  0.2935  0.2705  0.2083
16425W        W34629  17.271  16.171  12.719 -0.1970  0.0175 -0.0945
16426W        W34630  10.949  15.590  11.596 -0.0337  0.2705  0.2939
16427W        W34631   0.704   3.736   1.579  0.0168 -0.1341 -0.0272
16428W        W34632  14.899   4.918   3.688  0.1761  0.1884 -0.2903
16429W        W34633  13.119  12.112  15.042  0.1363  0.1543  0.1519
16430W        W34634   2.441  16.433  11.266 -0.2240  0.0902 -0.3189
16431W        W34635   4.968   8.076   2.462 -0.0217  0.0365 -0.1114
16432W        W34636  12.529  15.523  12.025  0.1812 -0.2237  0.1103
16433W        W34637  12.233   0.584  14.562 -0.0873  0.0419  0.0711
16434W        W34638  17.283   2.852   3.757 -0.0980  0.2460 -0.0471
16435W        W34639  16.095   0.224   1.246 -0.1665 -0.1401  0.2028
16436W        W34640  14.093  11.133   1.920  0.2082  0.3219 -0.3548
16437W        W34641   7.076   3.614   4.052 -0.2441  0.1378 -0.2381
16438W        W34642  12.819   3.567  11.943  0.0676 -0.0054 -0.2565
16439W        W34643   1.440   3.543   0.857  0.3866  0.0640 -0.1532
16440W        W34644  12.526  14.689  11.772  0.1032 -0.1410  0.1014
16441W        W34645   9.064   2.124  12.418 -0.1250 -0.0927  0.1510
16442W        W34646   8.520   5.893  14.612  0.1249  0.0318 -0.1684
16443W        W34647  12.518  14.405  10.112 -0.0415 -0.1701  0.0743
16444W        W34648   1.352   9.156   2.210  0.1824 -0.0131 -0.0097
16445W        W34649   7.781  13.829   4.994 -0.1549  0.2819 -0.0170
16446W        W34650  13.051  15.814  14.313 -0.1296 -0.1565  0.1031
16447W        W34651   2.688  16.515  14.173 -0.0647 -0.0216 -0.1767
16448W        W34652  11.558   0.102   1.508  0.0076 -0.1689  0.1453
16449W        W34653   2.275  14.260   5.408  0.4063 -0.1020 -0.0331
16450W        W34654   7.480  11.159  14.893 -0.2985  0.1528 -0.1677
16451W        W34655   6.291   4.980  10.663  0.0881  0.0122 -0.0072
16452W        W34656   9.471   0.615  10.904 -0.3083  0.0380  0.2328
16453W        W34657  15.603  14.135   3.546 -0.0342  0.2719 -0.2323
16454W        W34658   5.086   8.886   3.577 -0.0556 -0.2674 -0.3775
16455W        W34659   5.070   1.942   0.193  0.4042 -0.0178 -0.0573
16456W        W34660   9.139   8.018  11.741 -0.1145 -0.2886 -0.0247
16457W        W34661   3.002   7.161   1.246  0.0607 -0.3717  0.2631
16458W        W34662  13.532  12.370   0.771  0.1402  0.0417  0.3556
16459W        W34663  15.575   0.736  13.536  0.1192  0.1656  0.1065
16460W        W34664  16.497  12.632  12.494 -0.0390  0.1035  0.0490
16461W        W34665   6.313   7.365   4.609 -0.0413  0.1078 -0.2213
16462W        W34666   3.035  16.983   4.121  0.0403 -0.1271 -0.0639
16463W        W34667   1.185  13.506  15.753  0.0024  0.0240  0.2265
16464W        W34668  10.396  10.131  16.147 -0.0844 -0.1559 -0.0787
16465W        W34669   3.931   4.943   0.858  0.2186  0.2820 -0.1722
16466W        W34670  16.328   3.416  14.218  0.1446  0.3838 -0.3352
16467W        W34671  12.218   4.230  15.511 -0.0723  0.0280 -0.0517
16468W        W34672  12.489  16.491   0.852  0.0587 -0.2816  0.0349
16469W        W34673  15.764   5.591  15.075 -0.1332 -0.2905 -0.0385
16470W        W34674  11.151   3.694   2.631 -0.0748  0.0301  0.0903
16471W        W34675  10.155   8.311   1.482  0.2414 -0.0115  0.2530
16472W        W34676   0.753   4.510   4.106  0.4167 -0.2461  0.2641
16473W        W34677  15.286   1.433   1.757  0.1159 -0.1453  0.0111
16474W        W34678   2.923  17.869  14.038 -0.1200  0.3108  0.1448
16475W        W34679  14.225   5.393  13.845  0.1432 -0.1986 -0.0989
16476W        W34680   8.638   3.835   5.602  0.1415  0.1942 -0.1057
16477W        W34681   1.228  17.468  13.899 -0.2475  0.2580 -0.1155
16478W        W34682   2.028   3.323   0.309  0.1889 -0.1621 -0.0280
16479W        W34683  11.969   9.108  13.703 -0.3194  0.2870  0.1635
16480W        W34684  17.097   1.024   1.188  0.0070  0.1943 -0.2828
16481W        W34685  11.836  14.684  13.441  0.0797  0.2895 -0.1299
16482W        W34686  13.831  14.558   3.181 -0.0256 -0.1242  0.0813
16483W        W34687   3.019  10.269  14.963 -0.0665  0.2910 -0.0508
16484W        W34688   3.236   9.747   1.036  0.0085 -0.3435  0.0862
16485W        W34689   2.807  11.543  15.779  0.0969 -0.0690 -0.0091
16486W        W34690   2.020  11.699   0.330 -0.0971  0.2275  0.1400
16487W        W34691   9.463  12.532  15.630  0.0175  0.1238 -0.0815
16488W        W34692   9.280   6.804  12.626  0.0911  0.0732 -0.2158
16489W        W34693  10.250   2.214   1.452 -0.1157  0.3238  0.0662
16490W        W34694   1.125  12.139  15.622  0.0254  0.2683 -0.0951
16491W        W34695   0.286   2.322  14.598 -0.0110  0.2607 -0.0882
16492W        W34696  12.253   2.870   3.478  0.1723  0.1487 -0.0930
16493W        W34697   0.874   9.663  13.230  0.1133 -0.1299 -0.1218
16494W        W34698   5.101   0.509   0.558 -0.0267 -0.1490 -0.1426
16495W        W34699   6.622   4.736   3.287  0.1940  0.0208  0.0467
16496W        W34700  11.443   4.134   3.521  0.0441 -0.1052 -0.1206
16497W        W34701  11.484   9.579  12.997  0.1528  0.2565 -0.2466
16498W        W34702   0.184   9.825  11.983 -0.1528 -0.0349 -0.3637
16499W        W34703   5.436   9.921   3.745 -0.1177 -0.0817  0.4091
16500W        W34704   8.964   1.885   4.648 -0.0789  0.0505  0.2010
16501W        W34705   1.098  16.631   0.260 -0.1879  0.2307 -0.0163
16502W        W34706   6.549   6.278   4.076 -0.0956 -0.0237 -0.0031
16503W        W34707   9.878   5.056  15.735  0.0821 -0.1289 -0.1188
16504W        W34708  16.043   0.048  11.110 -0.0057  0.1922  0.0837
16505W        W34709   1.668  17.184   2.715 -0.0515  0.3296 -0.0948
16506W        W34710  14.842   1.892   3.343  0.1725  0.1017  0.0102
16507W        W34711   8.078   5.609   4.112 -0.1774 -0.0176  0.3346
16508W        W34712   9.557   9.674   4.487 -0.2637  0.0291 -0.2475
16509W        W34713   5.981  16.980   5.129  0.2012 -0.0648  0.2393
16510W        W34714   8.152  16.126  15.965 -0.2343 -0.1658 -0.1778
16511W        W34715   7.812   2.484   0.951  0.0767 -0.0318  0.3296
16512W        W34716   6.921  16.287   2.358  0.0520 -0.2478  0.1505
16513W        W34717  17.147  13.473  12.801 -0.1982 -0.1378  0.2052
16514W        W34718   8.647   7.687  11.560 -0.2839 -0.1309 -0.0986
16515W        W34719   0.543  10.970   1.584 -0.0099  0.1705 -0.0147
16516W        W34720  10.071   9.398   1.693  0.2938 -0.1528  0.0085
16517W        W34721   3.992  10.298   2.974 -0.1990 -0.1154 -0.0953
16518W        W34722   3.185  14.860   0.508  0.0082 -0.1638  0.2146
16519W        W34723   8.755  11.431   3.582 -0.1787 -0.1574  0.4519
16520W        W34724  10.800  15.835   5.352 -0.0033  0.0935  0.1810
16521W        W34725   5.516   5.851  13.506 -0.0064  0.1257  0.2321
16522W        W34726   6.029  11.035  11.307 -0.1657  0.0858 -0.0577
16523W        W34727  14.070  14.744   3.589  0.1240  0.1301  0.0495
16524W        W34728  13.329  15.543   4.372 -0.2537  0.0671 -0.0185
16525W        W34729  14.923   5.248   1.077  0.0286  0.0178 -0.2110
16526W        W34730  16.924   1.761   4.256 -0.0800  0.0247 -0.0346
16527W        W34731   0.666  14.404   2.204 -0.2400  0.1251 -0.0346
16528W        W34732   8.225   8.912  12.994  0.5459 -0.0980  0.0036
16529W        W34733  15.025  15.369  13.867  0.1696  0.2585 -0.2470
16530W        W34734  16.674  17.916  15.670  0.1069  0.0482  0.1252
16531W        W34735   7.297  10.785   4.321  0.1849 -0.1434  0.1700
16532W        W34736  12.540  13.987   1.766  0.0621 -0.0054 -0.1015
16533W        W34737  16.577  10.589  14.297  0.0941 -0.3157 -0.1225
16534W        W34738  11.654  10.214   2.432 -0.2340  0.0903 -0.0533
16535W        W34739   9.567   5.557   5.508  0.2217 -0.2560 -0.0245
16536W        W34740  15.754   1.439   1.033 -0.2580 -0.1345  0.3841
16537W        W34741  13.808   9.638   4.248  0.0962 -0.3136  0.2505
16538W        W34742   2.531  12.899  13.664  0.0688  0.0453 -0.1305
16539W        W34743  11.647   8.063   3.622 -0.1471  0.0361 -0.0606
16540W        W34744   2.079   4.928   2.127  0.0737 -0.0189 -0.0554
16541W        W34745   0.749   7.029   5.071 -0.2049 -0.1166 -0.1011
16542W        W34746   1.853   3.115  12.005 -0.0619 -0.1085  0.0564
16543W        W34747   0.627  13.818   0.335 -0.0342  0.0971 -0.0520
16544W        W34748   2.041  12.405  15.722 -0.1215  0.2062  0.1461
16545W        W34749   1.530   6.781  10.395  0.0581  0.1447 -0.1859
16546W        W34750  15.310   9.842   0.658 -0.0888 -0.0761 -0.0505
16547W        W34751  16.666   8.930   3.185 -0.0438 -0.3861 -0.0564
16548W        W34752   3.456  15.468  11.987 -0.0028  0.2014  0.2104
16549W        W34753   6.991  13.076   3.007  0.2006 -0.0999 -0.1183
16550W        W34754   8.749  11.411   1.842  0.2750 -0.1480 -0.1495
16551W        W34755   9.781  10.031   3.034 -0.1158 -0.2900  0.1241
16552W        W34756   8.881   8.276   0.224 -0.2095 -0.1098  0.0480
16553W        W34757   5.502  17.819   4.187  0.3124 -0.1076  0.3519
16554W        W34758  10.042  16.653  11.763 -0.3021 -0.0326  0.2174
16555W        W34759   7.951  17.775   0.185 -0.2690  0.1611 -0.0165
16556W        W34760   9.029   1.723  15.895  0.1159  0.1223  0.2692
16557W        W34761   2.290  11.117   2.173  0.1396 -0.2470  0.0912
16558W        W34762   7.500   5.857   3.745  0.3764  0.1265  0.0136
16559W        W34763   2.970   5.017   1.469  0.2900  0.6149 -0.0169
16560W        W34764  11.397  15.387  11.555  0.0647 -0.0441 -0.0644
16561W        W34765   7.409   1.935   2.238  0.0017  0.0105 -0.4162
16562W        W34766  10.625   4.325   3.109 -0.3092  0.0518  0.1304
16563W        W34767  14.013  10.255  14.729 -0.1659  0.0672  0.2243
16564W        W34768  11.898   6.547   0.943  0.0919  0.0533  0.2182
16565W        W34769   6.448  14.580  15.118 -0.0934  0.2008  0.1367
16566W        W34770   7.209  12.026  11.727  0.2100 -0.1026  0.0301
16567W        W34771  12.584   2.667   5.037  0.1523  0.1165 -0.0950
16568W        W34772  10.864   5.179  14.296 -0.0931  0.0977 -0.1351
16569W        W34773  17.462  13.665   2.580 -0.0737  0.0048 -0.0457
16570W        W34774  11.226  15.342  10.641 -0.1826  0.0729 -0.1893
16571W        W34775  16.861  13.401   3.494 -0.1305  0.2886  0.0384
16572W        W34776   1.876  11.419   3.895  0.0411  0.1194 -0.0014
16573W        W34777   0.132   5.315  12.715 -0.2932  0.1747 -0.4020
16574W        W34778   7.264   4.240  13.950 -0.1930 -0.0515 -0.0469
16575W        W34779  16.674   1.508  11.198  0.2243 -0.1172  0.0400
16576W        W34780  11.926   8.297  14.260  0.0959  0.1502 -0.3325
16577W        W34781  13.353   9.710   2.614  0.0375  0.2227  0.0484
16578W        W34782  10.653  13.826   1.557 -0.1844  0.2150 -0.3675
16579W        W34783   2.641   9.315   4.869 -0.3006 -0.2319 -0.0489
16580W        W34784  15.042  12.612   4.314 -0.0825  0.1800  0.2422
16581W        W34785  12.066   8.166  13.356 -0.0146 -0.1313  0.0017
16582W        W34786   3.729   2.000   2.946 -0.2141 -0.0990 -0.1157
16583W        W34787  13.810   5.437  12.486 -0.0668  0.0169  0.0479
16584W        W34788  12.423  17.038  16.039 -0.2897 -0.0842 -0.3913
16585W        W34789   3.514  15.609   3.150 -0.1539  0.3141 -0.0636
16586W        W34790   5.583  17.192   0.761  0.0992 -0.0015  0.1409
16587W        W34791   1.515   1.209  13.902  0.1146  0.2161  0.0279
16588W        W34792  13.813  15.821   0.153 -0.2520  0.0684 -0.1187
16589W        W34793   2.033  13.707   4.112  0.1948  0.1198  0.2644
16590W        W34794  12.692   5.030  12.751  0.1886 -0.2861  0.1961
16591W        W34795   1.053   6.494   2.250 -0.2561  0.1931  0.0736
16592W        W34796  17.740   2.236  13.012 -0.0138 -0.0842 -0.2018
16593W        W34797  16.146   4.950  12.595  0.0674  0.0340  0.1932
16594W        W34798  13.399   1.749   2.706 -0.2384  0.1114  0.2453
16595W        W34799   0.964   9.825   0.491  0.1766 -0.0156  0.0122
16596W        W34800  10.195  11.915   3.459  0.0360  0.1250  0.0395
16597W        W34801   5.564   6.479   3.411 -0.1715  0.1764  0.1867
16598W        W34802  17.786   7.456   1.474  0.4115 -0.2034  0.2669
16599W        W34803   1.278  13.489   2.932  0.0801 -0.2549 -0.1082
16600W        W34804   8.929   5.373  14.033  0.1314  0.2908 -0.0145
16601W        W34805   0.734   3.384  12.958  0.1004 -0.2201  0.1528
16602W        W34806   7.596  17.210  15.528 -0.2980  0.0498 -0.0631
16603W        W34807  13.566  16.198  13.307  0.1077 -0.2656  0.1078
16604W        W34808  16.635   0.966   4.531 -0.0370 -0.0371 -0.0664
16605W        W34809  11.552  15.508   0.320 -0.0946  0.1666 -0.0264
16606W        W34810   6.200   2.279   2.150 -0.1042 -0.2088  0.0189
16607W        W34811  18.020  15.509   0.901  0.0090  0.1020 -0.1390
16608W        W34812   0.683  16.473  11.410 -0.1040  0.0922  0.0375
16609W        W34813   1.152   2.220   2.649  0.2320 -0.3093 -0.1713
16610W        W34814  14.860   8.964  11.989 -0.4449 -0.0891 -0.0503
16611W        W34815   5.551  15.121   3.036  0.0353  0.0108 -0.1593
16612W        W34816   0.235  15.551   1.929  0.1043  0.0594  0.0843
16613W        W34817  16.938   8.077   0.592 -0.2154 -0.0419  0.2208
16614W        W34818   4.557  11.109  11.545  0.1794  0.0634 -0.0938
16615W        W34819  16.469  13.485  12.178 -0.3449 -0.1158  0.0073
16616W        W34820   4.434   2.813  11.953 -0.2227 -0.2483  0.0030
16617W        W34821   9.536  18.022   4.527 -0.0537 -0.0420  0.1121
16618W        W34822   1.654  17.777  14.369 -0.0361 -0.3484  0.2181
16619W        W34823  14.524  10.819   1.909 -0.2773  0.1956  0.1250
16620W        W34824   6.792   4.048   3.808 -0.1466 -0.0391 -0.0280
16621W        W34825   5.182  17.626  11.055  0.2397 -0.2909  0.1578
16622W        W34826  11.581   8.417   1.116 -0.1734  0.1745  0.1708
16623W        W34827  15.798   1.274   2.638 -0.4485 -0.0815 -0.1463
16624W        W34828  10.604  17.653  10.365  0.0100  0.1462 -0.1673
16625W        W34829   1.019  11.871   4.099 -0.1452  0.0519 -0.1684
16626W        W34830  16.866  10.317   2.939 -0.2837 -0.2742 -0.1720
16627W        W34831  10.946   4.774  14.611 -0.5252 -0.0300 -0.0215
16628W        W34832   9.700  10.215  11.811  0.0996  0.0024  0.2577
16629W        W34833  10.040   7.068   0.386 -0.2722  0.0422  0.1091
16630W        W34834  17.365  13.369   0.292 -0.0805 -0.1065  0.0464
16631W        W34835  17.323   1.336   3.506  0.1464 -0.2234  0.0118
16632W        W34836   3.703  13.027  15.465 -0.0475 -0.1596 -0.0226
16633W        W34837   8.078  16.927   0.433  0.2970  0.1338  0.3136
16634W        W34838   2.127   8.944   2.383 -0.1568 -0.2689 -0.4505
16635W        W34839   9.064  12.534  15.912  0.0081  0.0238  0.0127
16636W        W34840   8.190  15.119  12.274 -0.1061  0.3000  0.0956
16637W        W34841  11.697  15.968  12.426 -0.0436  0.1790 -0.0203
16638W        W34842   5.484   2.315   1.164  0.2332  0.1299  0.1241
16639W        W34843   2.993   1.099   2.557  0.3152  0.0866 -0.1148
16640W        W34844   0.054   4.832   0.042 -0.1909  0.0017 -0.3385
16641W        W34845  10.526   9.919  12.755 -0.2601  0.3278 -0.0090
16642W        W34846   8.200   1.757   1.242  0.1498 -0.2612  0.1795
16643W        W34847   1.156   1.163   0.937  0.2511  0.0862  0.0650
16644W        W34848  10.162   0.525   3.314  0.1760  0.0087 -0.1618
16645W        W34849   0.709  11.013  14.274  0.2262  0.1987  0.2620
16646W        W34850   8.774  16.335  12.080 -0.0314 -0.3220  0.0895
16647W        W34851  17.501  16.567   1.096 -0.0332  0.1361 -0.1871
16648W        W34852  12.148   2.041   0.078 -0.0382  0.0085  0.0829
16649W        W34853   9.339  15.035  12.668 -0.4495  0.0809 -0.1012
16650W        W34854  14.229  12.968   2.660  0.0906 -0.0473  0.0964
16651W        W34855   6.341   0.982   3.393  0.0591 -0.0242  0.0433
16652W        W34856   2.064  13.268  14.317 -0.1496  0.0015 -0.3460
16653W        W34857   1.481  12.350   1.076 -0.0162 -0.0215 -0.2143
16654W        W34858  16.634  14.013  13.500  0.0001  0.2647 -0.2044
16655W        W34859  12.709   1.620  11.567 -0.1848 -0.3824 -0.0619
16656W        W34860  11.075  16.421   0.191 -0.0131  0.3847  0.1375
16657W        W34861   6.908  17.545  14.030 -0.0037  0.2429 -0.2030
16658W        W34862   0.322  16.502  13.814  0.0069 -0.1342 -0.1139
16659W        W34863   6.167  17.170   0.808 -0.0197  0.1644 -0.1293
16660W        W34864  12.687   9.428  11.844  0.2564 -0.1219 -0.1095
16661W        W34865  15.524  14.978   0.092 -0.1516  0.0631  0.0541
16662W        W34866   3.171  11.083  15.795  0.2858 -0.0982 -0.1590
16663W        W34867   4.305  10.203  15.516 -0.0042  0.0976 -0.0132
16664W        W34868  14.599   9.091   2.471  0.1931  0.2278  0.0377
16665W        W34869  11.335   0.240   0.389  0.1062 -0.1580 -0.1268
16666W        W34870   1.578   8.400  12.571 -0.1686 -0.0707 -0.0103
16667W        W34871  12.189  16.490  14.190  0.1441 -0.0042 -0.3496
16668W        W34872  10.573  14.808   1.890 -0.0495  0.0592 -0.0268
16669W        W34873   6.266  14.823  14.073  0.1550 -0.2929  0.2739
16670W        W34874  15.207  10.911  15.213 -0.1102 -0.1501  0.0757
16671W        W34875  14.010   6.351   2.835 -0.2442 -0.3409 -0.1864
16672W        W34876   5.893   7.481  11.627 -0.0662 -0.2121  0.1929
16673W        W34877   1.570   5.401  13.128 -0.0260  0.0408  0.1113
16674W        W34878   1.689   3.167   2.537 -0.1511  0.1349  0.1087
16675W        W34879   6.322   6.393   0.344  0.1054  0.1416  0.0214
16676W        W34880   5.076   7.998   1.910 -0.0381  0.1296  0.2228
16677W        W34881  17.386   1.558  12.297 -0.1870  0.1758 -0.0336
16678W        W34882  15.270   5.570   5.148 -0.1788  0.0301  0.0704
16679W        W34883  11.528  12.370   0.779 -0.1588  0.0523 -0.1708
16680W        W34884  17.371   6.003  11.761  0.0081  0.1758  0.3429
16681W        W34885  10.706   8.118  15.059 -0.0936  0.0168 -0.0039
16682W        W34886   3.599  10.647   4.809  0.0484  0.3649 -0.1167
16683W        W34887   4.319  14.936  12.485  0.0638 -0.2039 -0.0202
16684W        W34888   3.738   6.944   3.489  0.0126  0.2111 -0.0616
16685W        W34889  15.144  10.237   1.325  0.1217  0.1995  0.2233
16686W        W34890  10.326  14.048   3.817  0.0770  0.1970  0.0511
16687W        W34891  10.232  13.640  13.868 -0.2603  0.1928 -0.2942
16688W        W34892   9.012   0.510  16.039  0.1683 -0.1353  0.0397
16689W        W34893   9.297  16.378  14.627 -0.1273 -0.0683 -0.0431
16690W        W34894  12.306   1.305   1.177  0.1803 -0.0586  0.1518
16691W        W34895   8.194   1.920   0.271  0.1144 -0.3850  0.0031
16692W        W34896  12.324  12.921  12.731  0.0863  0.3153  0.2886
16693W        W34897  14.451  16.498   3.258 -0.0840  0.0208  0.0405
16694W        W34898  15.907   3.279   4.297  0.1604  0.0659  0.0221
16695W        W34899   8.375  17.041   1.498  0.0903  0.2195 -0.2144
16696W        W34900   9.682  15.751  15.851  0.0368  0.2532  0.1128
16697W        W34901  10.593  15.263   5.747 -0.0185  0.0707  0.1910
16698W        W34902   9.790  15.802  13.075  0.2948  0.0271  0.0714
16699W        W34903  17.089   7.455  15.773 -0.0439  0.1175  0.0503
16700W        W34904   6.070   5.808   1.618 -0.0689  0.0497 -0.0839
16701W        W34905   3.317  10.072   3.353  0.2099 -0.0750  0.0630
16702W        W34906  17.822   7.007  15.931  0.0097  0.0413  0.3094
16703W        W34907  17.600   5.242   4.563 -0.2031  0.2436 -0.1296
16704W        W34908   0.907   9.739  13.832  0.1360 -0.0588  0.1481
16705W        W34909   2.734   2.103   3.624 -0.2899 -0.0311  0.0218
16706W        W34910   2.544  11.553   2.129  0.0772 -0.1207  0.0826
16707W        W34911   8.799  15.548   0.789  0.0227 -0.1807 -0.0383
16708W        W34912  12.928  18.009   3.316  0.0505  0.0510  0.0429
16709W        W34913   2.654   4.385  14.743  0.1173 -0.0235 -0.2877
16710W        W34914   0.265  15.017   0.841  0.1785  0.1293 -0.0203
16711W        W34915  12.396  10.695   4.057 -0.3239 -0.2560  0.0081
16712W        W34916  13.231  12.022  15.496  0.3246 -0.1427 -0.3368
16713W        W34917  17.689   2.236   3.020  0.1398  0.1009 -0.2012
16714W        W34918  16.827  17.208  15.465  0.0447  0.0279  0.0011
16715W        W34919   6.406   8.024  12.091 -0.3279 -0.1315  0.1883
16716W        W34920   0.044  13.864  15.572  0.1117  0.3168 -0.0184
16717W        W34921   1.852  10.587   5.900 -0.2552 -0.0700  0.0115
16718W        W34922   6.835   6.329  12.484  0.1245 -0.2078  0.0797
16719W        W34923   5.191  16.683  13.567 -0.1145  0.1435 -0.0750
16720W        W34924   8.508  16.536  14.775  0.1504 -0.1789 -0.3778
16721W        W34925   8.901  12.727   0.547  0.2123  0.0517  0.0016
16722W        W34926  13.317  12.491  15.243 -0.0056  0.0589  0.1411
16723W        W34927   8.309  17.540   0.577 -0.0285 -0.1506  0.0153
16724W        W34928   2.732   2.920  14.650  0.0459  0.0632  0.1346
16725W        W34929  11.664   4.285  12.829 -0.0435 -0.0778 -0.0301
16726W        W34930   6.688  13.770   3.759  0.2958 -0.0913 -0.2137
16727W        W34931  10.702   7.829  14.643 -0.1825  0.0699 -0.0219
16728W        W34932   2.906  14.054   3.879  0.0593 -0.0876  0.3258
16729W        W34933   2.041   2.911  13.336 -0.2068  0.0542  0.2044
16730W        W34934   7.272   9.326   3.897  0.0399 -0.0214  0.0388
16731W        W34935  14.838   7.756   2.274  0.1225  0.2021  0.0916
16732W        W34936  12.072  11.866   0.231 -0.2035 -0.2006 -0.1722
16733W        W34937   7.801   3.687   2.011  0.1183  0.0262  0.5686
16734W        W34938  11.609   2.234  15.648 -0.0453 -0.0916 -0.0796
16735W        W34939   2.272  17.047   1.616 -0.3298 -0.2616 -0.0478
16736W        W34940   1.350   5.813  11.369 -0.0279 -0.0464  0.2106
16737W        W34941  17.081   4.780   4.676 -0.1058  0.0415  0.1148
16738W        W34942   3.564   5.363   1.372 -0.1587  0.1252  0.0988
16739W        W34943  10.928  16.692  13.963  0.3459 -0.2476  0.0948
16740W        W34944   4.210  14.096   1.594 -0.1473  0.0512  0.2537
16741W        W34945  14.541   5.738  14.006  0.0050 -0.0263 -0.1276
16742W        W34946   0.287   1.463  15.520  0.2195 -0.1202  0.0936
16743W        W34947   7.389   8.704   3.180 -0.4401  0.1298  0.1480
16744W        W34948   1.595   4.781   2.212  0.2866  0.1240  0.0836
16745W        W34949  11.826  16.595  15.050 -0.1511 -0.0501 -0.1306
16746W        W34950  16.654  12.469  11.250 -0.1521 -0.1694  0.1902
16747W        W34951   4.434  16.140  13.083  0.1615 -0.2198  0.3737
16748W        W34952  17.519  12.842   0.531 -0.2090 -0.0079  0.0402
16749W        W34953  12.982  14.145  15.744 -0.0039 -0.0568  0.0904
16750W        W34954   2.791  12.646  14.042 -0.1474  0.2465 -0.1696
16751W        W34955   1.650  10.294   3.268 -0.1057 -0.0067 -0.3519
16752W        W34956  10.404   0.381  12.980  0.1269  0.0306 -0.0078
16753W        W34957  10.544  12.246  13.940  0.0149  0.1133 -0.0609
16754W        W34958   2.905   8.848  12.590  0.2946  0.2076 -0.1512
16755W        W34959   7.260  17.632   2.191  0.0326 -0.0663 -0.2107
16756W        W34960   3.703  14.283  15.193  0.0454 -0.1435 -0.3489
16757W        W34961   9.693   4.382   1.500  0.1237 -0.0148 -0.0571
16758W        W34962   4.205  15.005  14.825  0.4002 -0.0318 -0.0802
16759W        W34963   9.955  13.015  11.764  0.1662  0.4426  0.2365
16760W        W34964  12.625  10.498   2.616  0.2285  0.1231 -0.0079
16761W        W34965  17.356   6.003   1.100 -0.2645  0.0537  0.2140
16762W        W34966   9.506   4.214   4.374  0.0553  0.1123  0.1666
16763W        W34967  10.777   8.692   3.571  0.1262  0.0496 -0.0384
16764W        W34968   8.882  16.341   3.683 -0.2347 -0.1448  0.0804
16765W        W34969  16.766   7.787  14.746  0.0462 -0.0623  0.0082
16766W        W34970   0.776   5.669   1.289  0.1361 -0.1346  0.3626
16767W        W34971  16.000  15.740  13.132  0.2796 -0.3848  0.2388
16768W        W34972  16.231  17.210   5.222 -0.1368  0.1974  0.2093
16769W        W34973   0.431   1.693  11.602 -0.1397  0.1271 -0.0924
16770W        W34974  15.862  11.405   4.064 -0.0164 -0.3916  0.1599
16771W        W34975   0.821   3.317  14.002 -0.1273  0.1486 -0.2521
16772W        W34976   6.148  15.396   2.510  0.4060  0.1460 -0.1029
16773W        W34977   8.629  16.018  12.700  0.1638  0.2719  0.2510
16774W        W34978   5.214   2.787   2.784  0.1490 -0.2459 -0.1271
16775W        W34979   4.245   6.118   3.766 -0.1787 -0.0152  0.1040
16776W        W34980   6.469   8.780   0.261 -0.1274  0.0495  0.1518
16777W        W34981   1.069  12.858  12.891  0.3079  0.0448 -0.0351
16778W        W34982  13.566  16.974  14.519  0.1422 -0.0022 -0.1775
16779W        W34983  11.093   0.086  13.191  0.0051  0.0400  0.2326
16780W        W34984   1.442   5.879  15.344 -0.2277 -0.3458 -0.2355
16781W        W34985   4.876   8.151  15.028  0.1697 -0.0263  0.1230
16782W        W34986   4.708  17.864  14.123  0.1986 -0.0275  0.0917
16783W        W34987  14.032   7.130   0.150  0.0570 -0.1377 -0.2257
16784W        W34988   6.566  10.197  15.288 -0.0238  0.3048 -0.1389
16785W        W34989  16.427   9.799  13.640  0.0084 -0.0716 -0.0983
16786W        W34990   0.551   9.079   1.034  0.0566  0.0354  0.0142
16787W        W34991   9.023   0.696   5.022 -0.0431 -0.1893 -0.0130
16788W        W34992   2.789  17.293   0.351  0.0109  0.1172  0.1132
16789W        W34993  13.700  17.899  14.196 -0.0591 -0.3499  0.0069
16790W        W34994   4.979  15.760  13.580 -0.2686  0.1031 -0.3412
16791W        W34995  16.052  12.439  12.608  0.2339 -0.0239 -0.1701
16792W        W34996   0.688   2.455  12.203  0.2275  0.0843 -0.2773
16793W        W34997   5.888   2.528   3.716 -0.0527  0.0596 -0.0761
16794W        W34998   8.640  13.605   4.105  0.0033 -0.0994  0.0815
16795W        W34999   7.236  14.366  12.860  0.1378  0.1120 -0.1155
16796W        W35000  14.154   2.231  12.518  0.2443  0.0825 -0.2808
16797W        W35001  15.891  17.799  11.669  0.0293 -0.1344 -0.2125
16798W        W35002  14.749   3.562  13.227 -0.2262  0.1619 -0.0198
16799W        W35003   1.434   8.320   2.288  0.1549  0.0999 -0.1484
16800W        W35004  10.504  11.275   4.909  0.0694 -0.0451  0.0314
16801W        W35005   6.335   2.810  15.406 -0.1928  0.2488 -0.0870
16802W        W35006  15.525   5.722  12.769  0.0516 -0.1886  0.1229
16803W        W35007   1.986   1.105   3.680  0.2662 -0.0211 -0.2617
16804W        W35008   4.273   8.312   1.342 -0.2004  0.0260 -0.0922
16805W        W35009   5.224   3.090  11.001  0.2368  0.1062  0.1707
16806W        W35010  11.079   8.238  13.156 -0.1851 -0.0790  0.3177
16807W        W35011   4.693  12.179   3.824  0.0890 -0.1462  0.0599
16808W        W35012  11.894   1.549  16.128 -0.3686 -0.0227 -0.0907
16809W        W35013   5.742  12.380  12.488 -0.1283 -0.0852  0.0581
16810W        W35014   7.107   2.883  14.925 -0.1256 -0.0465 -0.0109
16811W        W35015   2.593   9.182   2.407  0.1461  0.3041 -0.1665
16812W        W35016   4.438   3.259   2.926 -0.1776 -0.0807  0.1296
16813W        W35017   6.870  14.291   2.472  0.1289 -0.0838  0.1214
16814W        W35018   4.357  14.554  16.026  0.4205  0.2499 -0.0420
16815W        W35019  12.322  12.946  13.353  0.0351  0.2271 -0.0922
16816W        W35020  12.549  16.249  11.990 -0.0456 -0.1096 -0.1977
16817W        W35021  15.482   4.121  13.517  0.0853  0.0682 -0.1705
16818W        W35022   5.439   8.640  15.468  0.0278 -0.0852 -0.1339
16819W        W35023   3.133  15.986   3.094 -0.1613  0.1934 -0.1253
16820W        W35024   7.160  12.547  11.393 -0.2399  0.1031  0.0472
16821W        W35025   1.686  16.664  13.289 -0.0418  0.0190  0.1154
16822W        W35026  13.046   5.191   1.163 -0.2041 -0.2745 -0.0970
16823W        W35027  17.981   8.530   4.435  0.0365 -0.1075  0.0554
16824W        W35028  11.654   2.002   3.961  0.0585  0.0750 -0.1292
16825W        W35029  15.409  15.426   2.982 -0.3203 -0.0104 -0.1691
16826W        W35030   7.127  10.948  12.734  0.1147  0.0045 -0.0535
16827W        W35031  15.907  17.232   1.523  0.1767  0.2457 -0.1141
16828W        W35032   7.513   0.225  11.932  0.1610  0.0798 -0.1140
16829W        W35033  12.551  14.091  13.853  0.0391  0.0012 -0.0810
16830W        W35034  13.619   4.923  14.799  0.1490  0.0699  0.1154
16831W        W35035  17.693  17.288  12.278  0.1148 -0.3334  0.2810
16832W        W35036  12.035   1.882  15.760 -0.1354 -0.0971 -0.3321
16833W        W35037   4.697  12.398   1.861  0.1612 -0.1086 -0.2973
16834W        W35038   5.137   7.256  12.486 -0.1774  0.0537 -0.3043
16835W        W35039  14.928  12.157  11.681  0.2642  0.3787 -0.0355
16836W        W35040  13.832  11.657  12.101 -0.2635 -0.0847 -0.1896
16837W        W35041   7.835  11.342   0.531  0.2176 -0.1763  0.2907
16838W        W35042   1.465   7.899   3.736  0.2921  0.0401  0.0451
16839W        W35043   6.607  15.463  13.744 -0.0590 -0.0105  0.0066
16840W        W35044   5.431  16.996   2.235 -0.4314  0.2679  0.1770
16841W        W35045  11.447   0.353  13.950 -0.1603 -0.2339  0.0594
16842W        W35046  16.601  11.784   1.661  0.1752  0.0128  0.0291
16843W        W35047  14.006  10.267   0.838 -0.1421  0.1265  0.1591
16844W        W35048  12.767   6.868   4.004 -0.4117  0.2816 -0.1135
16845W        W35049  16.964  12.303   5.309 -0.0671  0.1913  0.0466
16846W        W35050   2.548   8.791   4.713 -0.0107 -0.2572 -0.0970
16847W        W35051  14.907   1.705  14.796 -0.0881 -0.2387 -0.1018
16848W        W35052   6.220  17.607   3.442  0.0324 -0.0240 -0.3912
16849W        W35053  11.537   1.438  13.238 -0.0024  0.3173  0.0520
16850W        W35054  13.091   7.520   5.819 -0.0977 -0.2299  0.0218
16851W        W35055   7.136   4.339  11.780  0.3679  0.0483  0.3371
16852W        W35056   1.535  13.390  13.387 -0.0855 -0.1815  0.0332
16853W        W35057   7.975  17.273   0.774 -0.1833 -0.2031  0.0781
16854W        W35058   2.339   6.018   0.780  0.1026  0.0160  0.0788
16855W        W35059  16.270   4.004   0.400 -0.1312 -0.2150  0.1636
16856W        W35060  16.923   7.317   3.615  0.1187  0.0051  0.1095
16857W        W35061   3.000   2.873  12.233 -0.0814 -0.2414  0.0542
16858W        W35062   6.091  18.030   1.010 -0.0104  0.0037  0.0116
16859W        W35063  12.407   3.478  12.326  0.0263  0.2881 -0.0249
16860W        W35064  14.121   3.077   3.895 -0.2477 -0.0710  0.1541
16861W        W35065  15.581   7.601  13.140 -0.4296 -0.1398 -0.0387
16862W        W35066   6.727  12.571   1.899 -0.0073 -0.2880  0.1233
16863W        W35067   7.251  12.706   4.823  0.1501  0.0057 -0.0786
16864W        W35068   4.589   2.069   0.936 -0.1525 -0.0960  0.2992
16865W        W35069   5.117   7.660   1.037  0.0079  0.0896  0.3561
16866W        W35070  12.060  15.282   3.142 -0.0350  0.1700  0.2198
16867W        W35071  10.896   5.372  11.522  0.0303  0.0172  0.3203
16868W        W35072   5.412  14.746   2.799 -0.0766  0.2281 -0.0196
16869W        W35073   3.385  10.484  16.076 -0.0711 -0.1964 -0.3081
16870W        W35074   0.575   2.881  11.379 -0.0914 -0.2184  0.0833
16871W        W35075   9.025   2.383  13.846 -0.0947  0.0863 -0.0809
16872W        W35076  10.446   5.646   2.996 -0.0294  0.3764 -0.0167
16873W        W35077  17.282   7.215   1.394 -0.1501 -0.0133 -0.2451
16874W        W35078  13.648   2.929  13.725 -0.0586 -0.3247  0.2052
16875W        W35079  13.298   6.900  14.366  0.0062 -0.0160 -0.2630
16876W        W35080   1.918  12.513  15.107 -0.2163 -0.2309  0.3005
16877W        W35081  14.299   7.674   1.766 -0.2190 -0.0202 -0.1693
16878W        W35082   7.228   5.873  14.650 -0.3514  0.1149 -0.1514
16879W        W35083   4.723  16.309  13.471 -0.0480  0.2272  0.1150
16880W        W35084   0.421  10.373   4.045 -0.1081  0.1345  0.1992
16881W        W35085   2.531   5.771   4.568 -0.0476  0.2425 -0.0769
16882W        W35086   8.778   0.749  15.535 -0.0173 -0.0647  0.1906
16883W        W35087   4.095   5.841   0.782  0.1783  0.0921  0.0957
16884W        W35088  12.471   1.680   3.357  0.0847  0.2880  0.1744
16885W        W35089  14.530   1.724   4.246 -0.2083 -0.0298 -0.0239
16886W        W35090  10.873   4.614  13.067 -0.1796 -0.2776  0.1977
16887W        W35091   2.078  13.436  14.812  0.0300  0.1352 -0.0814
16888W        W35092  13.083   9.459   4.929 -0.1671  0.2543  0.0091
16889W        W35093   1.588   0.759  14.408 -0.2287  0.0350  0.0928
16890W        W35094  17.468   4.400   5.518 -0.1375 -0.0744  0.1174
16891W        W35095   2.648   8.564  14.288 -0.0058  0.2327 -0.0051
16892W        W35096  11.255   5.407  15.833  0.1218  0.0249 -0.0969
16893W        W35097   3.523   4.683   0.795 -0.0348  0.0195  0.1376
16894W        W35098  15.926  17.345  12.861 -0.2596  0.0334  0.1023
16895W        W35099  15.332   7.694   2.188  0.2203  0.0743 -0.1435
16896W        W35100  12.973   0.880   0.029  0.1140 -0.0085 -0.3291
16897W        W35101   1.313   0.246  12.760 -0.2250  0.1773 -0.0529
16898W        W35102   2.924   3.349   0.194  0.0240 -0.2839  0.0122
16899W        W35103  17.605  17.051   0.935  0.0979 -0.2085  0.3688
16900W        W35104  17.830  12.527   4.568 -0.1140  0.1871 -0.0509
16901W        W35105   3.812  17.942  13.845  0.0450  0.2072 -0.3356
16902W        W35106  13.752   8.494  15.859 -0.1520  0.2305 -0.1678
16903W        W35107  12.620  13.769   4.421  0.0670  0.0096 -0.3290
16904W        W35108   8.349   9.164   3.710  0.4488 -0.1470  0.2980
16905W        W35109   4.933   4.759  14.194  0.1209  0.1232 -0.0970
16906W        W35110  15.241  14.365  15.122 -0.1076  0.1593 -0.0786
16907W        W35111   7.575  10.790  14.546  0.1382  0.1522 -0.0369
16908W        W35112  10.211  14.474  14.568 -0.2564  0.1545  0.1218
16909W        W35113  17.461   1.854  12.650  0.0194  0.3813 -0.1608
16910W        W35114  13.710   2.834   3.687 -0.1894  0.1780  0.2523
16911W        W35115  18.026   6.289  12.948  0.0949 -0.0476 -0.1475
16912W        W35116   9.417   8.985   2.989  0.1375  0.0260  0.4431
16913W        W35117   3.457   8.972   4.330 -0.2212  0.1352 -0.0502
16914W        W35118   2.947   0.472   0.410  0.4416 -0.1847 -0.0795
16915W        W35119   4.074   3.760   4.547 -0.0465 -0.1247 -0.1915
16916W        W35120  17.682   1.399   1.295  0.0824 -0.0972 -0.0343
16917W        W35121  16.138  12.216   0.477 -0.3998 -0.1113  0.2975
16918W        W35122  17.175   3.280   3.360 -0.0119 -0.1748  0.0983
16919W        W35123   8.457   8.936  14.882 -0.0026  0.1060  0.0120
16920W        W35124   7.370  15.559   0.888  0.2011 -0.1973  0.0384
16921W        W35125  14.715   7.319  14.607 -0.1711 -0.2706 -0.0436
16922W        W35126   4.876   8.160  12.146  0.2062 -0.2626  0.2746
16923W        W35127  16.777   3.926  12.185  0.3906  0.0855 -0.2639
16924W        W35128   7.356   5.107  13.008 -0.0189 -0.0022  0.0389
16925W        W35129  12.718  11.106  12.978  0.2706  0.1111 -0.0084
16926W        W35130  16.094   9.061   1.957 -0.1112 -0.0524 -0.1984
16927W        W35131   4.194  10.291   2.505  0.0290  0.4902 -0.1101
16928W        W35132  11.204  11.064   2.293  0.1223  0.2137  0.3098
16929W        W35133   0.097   4.168   0.219  0.1258 -0.0623 -0.1661
16930W        W35134   5.929   8.540  15.540 -0.0613  0.0520  0.0270
16931W        W35135   1.984   7.743  15.670  0.0771  0.3365 -0.1411
16932W        W35136  13.972   1.480   3.568 -0.1132  0.1626 -0.2069
16933W        W35137   5.523  11.268  14.330  0.2310 -0.1397  0.0101
16934W        W35138  11.050   1.193   1.043  0.0731 -0.0192 -0.1367
16935W        W35139  17.932   8.065  12.219 -0.0764  0.1389 -0.2461
16936W        W35140   6.407   4.114  15.239 -0.0409 -0.0162 -0.1151
16937W        W35141  15.568   1.999   0.209 -0.1050 -0.1814  0.2153
16938W        W35142  15.137  16.755  11.399  0.0794  0.2427 -0.0298
16939W        W35143   9.683  12.260  16.101 -0.2562 -0.0828  0.1228
16940W        W35144   0.915   5.939   0.449  0.2495  0.1940 -0.1452
16941W        W35145   3.519  17.839  15.860  0.1025 -0.1054 -0.1100
16942W        W35146   3.008  17.001  12.319  0.0500  0.0803  0.0906
16943W        W35147  13.219  17.816   2.494  0.1571  0.2688 -0.0901
16944W        W35148  16.592  12.511   2.256 -0.0761 -0.0009  0.0142
16945W        W35149  17.167   4.702  14.711  0.1702  0.1515  0.4281
16946W        W35150   8.913  16.165  15.351  0.0568  0.0524 -0.2196
16947W        W35151   8.473  11.591   2.276  0.1341  0.1287  0.1433
16948W        W35152  15.378  15.242  15.465  0.2068  0.1920  0.3879
16949W        W35153   7.263   3.588   1.923 -0.1229  0.0929  0.0850
16950W        W35154   8.864   7.860  16.019 -0.0059 -0.1870  0.1065
16951W        W35155   8.956   4.474  16.047  0.2828  0.0074 -0.1455
16952W        W35156   6.989  11.810  15.288 -0.1440 -0.0381 -0.4195
16953W        W35157   8.860  16.798   0.312 -0.1414  0.2065  0.0532
16954W        W35158  16.010   0.523  13.331 -0.2893 -0.0482 -0.1328
16955W        W35159   7.314   2.392  15.224 -0.3454 -0.3235  0.0971
16956W        W35160   4.929   8.562   2.326 -0.2591 -0.1896 -0.1226
16957W        W35161  17.457   2.294   0.060 -0.3208  0.0166 -0.4065
16958W        W35162   1.840   8.534  13.302  0.2095 -0.1604  0.0160
16959W        W35163  15.391   6.188  12.628  0.2409  0.3870 -0.1807
16960W        W35164   8.717  13.832  12.259  0.0725  0.1449 -0.2077
16961W        W35165   9.307   4.931   2.245  0.1570 -0.0188  0.1055
16962W        W35166  11.328   4.004  15.743  0.2519  0.0199 -0.1429
16963W        W35167   1.362  12.129   3.338  0.0706 -0.1085  0.0721
16964W        W35168   5.332  17.814   2.634 -0.0787 -0.0576 -0.0315
16965W        W35169   5.889  12.716   1.992  0.1059 -0.0241 -0.0075
16966W        W35170   2.316   5.785  13.851  0.1073  0.1535  0.0713
16967W        W35171   9.929  15.670   0.781 -0.1065 -0.1097 -0.2037
16968W        W35172   3.763   7.673  14.987  0.0310  0.0854  0.1538
16969W        W35173   1.476  13.869   1.869  0.0306 -0.0141  0.1798
16970W        W35174  13.601  16.703   3.491 -0.2197  0.0163  0.0746
16971W        W35175   1.832  14.415  11.633 -0.0597  0.0373  0.1811
16972W        W35176   0.419   3.160  15.559  0.1839 -0.1657  0.0638
16973W        W35177  15.378  15.613   1.411  0.0282  0.1517 -0.1149
16974W        W35178   3.803   3.554   3.577 -0.1324 -0.1404 -0.0762
16975W        W35179  11.879   5.359  13.123  0.1381 -0.1502 -0.0877
16976W        W35180  11.780   4.859  11.794  0.1047  0.2415  0.0809
16977W        W35181  12.681  16.068  14.122  0.2445  0.0741 -0.2067
16978W        W35182   1.085  11.562  14.954  0.0189  0.1434 -0.1809
16979W        W35183  17.927  14.041  14.876 -0.0755  0.1013 -0.0446
16980W        W35184  10.074   9.936  15.383 -0.1112 -0.2195 -0.0046
16981W        W35185  13.445   8.720  13.904  0.2470 -0.1172  0.1397
16982W        W35186   1.982   4.023  12.851 -0.1092  0.0612 -0.0669
16983W        W35187  16.132  15.733  12.030 -0.0804  0.1945  0.2834
16984W        W35188   1.649   2.111   0.069 -0.1185 -0.1893  0.2495
16985W        W35189  16.379   3.344   4.433 -0.3173  0.1690  0.1960
16986W        W35190   9.567   8.736   0.733 -0.3176 -0.1429  0.2015
16987W        W35191   0.635   5.639  15.990 -0.2531  0.0725 -0.1196
16988W        W35192   6.551  14.232  11.293 -0.0062 -0.0772 -0.0556
16989W        W35193   9.743   7.740  11.012  0.1360  0.0508  0.0486
16990W        W35194  13.680   2.051  14.390 -0.0666  0.0215 -0.0701
16991W        W35195   7.396   6.660  14.811  0.0344  0.0611 -0.1201
16992W        W35196  13.862  15.441   2.868  0.2209  0.1832 -0.0796
16993W        W35197  15.458   7.201   2.368 -0.0923 -0.1952 -0.1148
16994W        W35198  11.916   2.289   4.429 -0.1819  0.0333 -0.1915
16995W        W35199   0.923   1.479  11.911 -0.1372 -0.3018  0.1648
16996W        W35200  11.106   2.376   3.212  0.1834  0.2558  0.2623
16997W        W35201  14.138  12.531   3.031  0.0009  0.0849 -0.1524
16998W        W35202   5.063   8.064   3.701 -0.1574 -0.1993  0.4132
16999W        W35203  11.543  12.035   2.504 -0.0874  0.0103 -0.0013
17000W        W35204  15.439   6.283  12.126  0.0473  0.3899 -0.2016
17001W        W35205   2.382  15.423   1.404 -0.2389  0.0686  0.2547
17002W        W35206   4.027   7.130  11.322  0.1747  0.1396 -0.2521
17003W        W35207   1.443   7.985  10.628 -0.0242 -0.1747 -0.1477
17004W        W35208  17.294   8.283  11.859 -0.0291 -0.1264 -0.0732
17005W        W35209   5.436  17.700   1.733 -0.0623 -0.0692  0.0716
17006W        W35210  16.797  16.475   3.824  0.0533 -0.0084  0.1747
17007W        W35211  17.959   0.535   2.081  0.1292  0.2319 -0.2032
17008W        W35212  17.640  12.010   1.025  0.2493 -0.0615 -0.1264
17009W        W35213   0.584  17.146   1.777  0.0640 -0.0789  0.0086
17010W        W35214   7.687  10.774  14.051 -0.0185  0.0330 -0.0733
17011W        W35215  12.247   9.494  13.505 -0.2184  0.0857 -0.0407
17012W        W35216  16.155  16.266   2.240  0.2643 -0.2242 -0.1897
17013W        W35217   0.567   8.538  11.617  0.1765  0.2645  0.1218
17014W        W35218  10.461   7.452   4.565 -0.0718 -0.1016 -0.1605
17015W        W35219   1.207   3.420  13.007  0.1627  0.3046  0.0261
17016W        W35220   2.701  12.626  13.158 -0.1725  0.0771  0.0593
17017W        W35221   3.789   1.152  14.008  0.2959  0.1242  0.1801
17018W        W35222  11.984  17.135   1.450 -0.1044  0.1172  0.1165
17019W        W35223  15.110  13.729  12.108  0.0359  0.2797  0.0224
17020W        W35224  13.428   6.899   1.161 -0.0611  0.1607  0.1081
17021W        W35225  17.083   5.310  12.366 -0.1627 -0.2001 -0.3371
17022W        W35226   2.059   1.644   0.037  0.1792 -0.0652  0.1228
17023W        W35227  15.008   2.538   3.893 -0.3330 -0.0017 -0.0678
17024W        W35228  10.371   9.649  15.922  0.0209 -0.0239 -0.0224
17025W        W35229  12.258  12.745   0.103 -0.2334 -0.3433 -0.0523
17026W        W35230  17.675  16.045   4.282  0.2377 -0.0149 -0.0803
17027W        W35231   0.674  13.263   3.271 -0.1252 -0.2528  0.0200
17028W        W35232   4.057   9.005  13.678 -0.0891 -0.2358 -0.1887
17029W        W35233  13.459   7.941  12.229 -0.0156  0.0436  0.1349
17030W        W35234  14.984  14.221  15.550 -0.1655  0.3352  0.0952
17031W        W35235  15.974   8.659   0.698  0.0230  0.0106 -0.1312
17032W        W35236   5.566   2.862  11.799  0.2868  0.0072 -0.1304
17033W        W35237   0.622  11.758   2.783 -0.0121 -0.0302  0.3984
17034W        W35238   9.862  11.809   3.843 -0.3406  0.2275  0.0883
17035W        W35239   7.475  13.372   5.008 -0.0176 -0.0433  0.0483
17036W        W35240  11.796  16.826   4.373  0.4397  0.3126 -0.0522
17037W        W35241  10.257   4.566  15.634  0.1232  0.1631  0.0400
17038W        W35242  13.928   5.779  14.688  0.0358  0.1300 -0.1550
17039W        W35243  13.579  13.284  15.342  0.0009  0.2745 -0.0333
17040W        W35244   0.992   7.217   4.680  0.0725 -0.1916 -0.0349
17041W        W35245  14.558   8.681   0.283  0.0274 -0.0600 -0.0064
17042W        W35246  14.222   5.577  15.265 -0.1605  0.0022  0.0839
17043W        W35247   1.683   9.119  16.084  0.4115  0.5853 -0.0054
17044W        W35248   4.902   6.950  15.372 -0.0555 -0.2313 -0.0444
17045W        W35249  13.134   1.159   0.989  0.0322  0.0747  0.0615
17046W        W35250   2.537   3.881  11.935  0.1189 -0.0798 -0.2145
17047W        W35251   6.341   4.420   2.624  0.3030  0.1029 -0.0026
17048W        W35252   3.722   2.023  12.220 -0.2676 -0.2598  0.1923
17049W        W35253   8.376   4.756   4.218 -0.1713  0.0760 -0.1294
17050W        W35254  13.293   1.502  12.384 -0.0515  0.0545  0.1710
17051W        W35255  11.966   2.670   0.386  0.0015 -0.1138  0.1628
17052W        W35256  17.306   4.145   2.645 -0.0169 -0.0375 -0.1570
17053W        W35257   2.837  13.704   4.674  0.0438 -0.1499  0.2076
17054W        W35258  17.829   7.379   3.535  0.1679 -0.1207 -0.0167
17055W        W35259  13.744   8.996  12.707 -0.2711  0.0838  0.0499
17056W        W35260   7.541   7.152  12.882  0.2514 -0.0167 -0.1391
17057W        W35261   3.236   2.044  13.790 -0.0389  0.0323 -0.1492
17058W        W35262   6.002  11.787   4.139 -0.0750 -0.0856 -0.1286
17059W        W35263   7.489  17.501  14.755 -0.1407 -0.2325  0.3299
17060W        W35264   0.227  14.924  14.372  0.1194  0.1979  0.1225
17061W        W35265  16.355   3.330  12.377 -0.1344  0.0393 -0.1161
17062W        W35266   2.104  13.017  10.596  0.0372 -0.0828  0.2926
17063W        W35267  11.186   8.006  10.527 -0.1476 -0.0885 -0.0183
17064W        W35268  15.164   9.821   3.981 -0.0542  0.0009  0.1822
17065W        W35269   3.235  12.350   4.001 -0.0853  0.0214 -0.1965
17066W        W35270  12.835  14.939   1.730  0.1408 -0.0974 -0.0015
17067W        W35271  17.818  11.281  12.831  0.0619  0.1134 -0.5139
17068W        W35272   7.366   8.943  11.402 -0.0712 -0.0114  0.1260
17069W        W35273   5.457  10.461  15.060 -0.3347 -0.1025 -0.0645
17070W        W35274   0.738   6.332  15.611  0.3061 -0.1973 -0.1278
17071W        W35275  14.193  12.461  12.001 -0.0188 -0.3334  0.3544
17072W        W35276  12.219  13.870   1.448  0.0910  0.1221  0.1578
17073W        W35277   1.159   2.063   4.509  0.1165  0.1236  0.1366
17074W        W35278   2.903   6.370   2.569 -0.2447  0.0445  0.2877
17075W        W35279   1.447   2.532  12.602 -0.1250  0.2548 -0.1781
17076W        W35280  13.964   3.614   2.186  0.2273 -0.1212 -0.1699
17077W        W35281   3.205  10.768  10.515 -0.1037 -0.0700  0.1974
17078W        W35282   6.777   7.387  12.180  0.0905  0.0056  0.0739
17079W        W35283  13.833   7.687  15.414  0.1138 -0.0311 -0.2458
17080W        W35284   8.525   8.133   0.638  0.1227  0.0487 -0.0596
17081W        W35285   6.510   1.349  13.420  0.1416  0.1427 -0.0376
17082W        W35286   3.738   3.407  12.006  0.1042 -0.1794  0.0292
17083W        W35287   8.864   6.200  12.646 -0.1750  0.2259 -0.0374
17084W        W35288   3.997   4.245   4.319 -0.1117  0.0184 -0.0936
17085W        W35289  11.853  17.002  14.123  0.1408 -0.1166 -0.1070
17086W        W35290   0.766   3.439  13.487 -0.1351 -0.0538  0.1635
17087W        W35291   4.101   5.358  13.604 -0.0561  0.1626 -0.1414
17088W        W35292   3.778   2.704  15.684 -0.0888 -0.2109 -0.3222
17089W        W35293   1.704  13.575  11.786 -0.0208  0.1723 -0.0329
17090W        W35294   8.994  13.383   3.858 -0.2818 -0.0696 -0.1284
17091W        W35295  13.012   0.242  14.321  0.3367  0.0921  0.0326
17092W        W35296   9.787   3.479   4.579  0.1681 -0.1604 -0.2308
17093W        W35297   9.886  16.830   0.965  0.0142 -0.0631 -0.3236
17094W        W35298  13.582  16.761  12.590 -0.0201 -0.2350 -0.4492
17095W        W35299   8.523  10.331   3.078  0.2121 -0.3074  0.0874
17096W        W35300   5.931  14.422  14.005 -0.0261 -0.0823 -0.2246
17097W        W35301   9.277   6.151  11.923 -0.3853  0.1721  0.1366
17098W        W35302  13.691   3.419  13.992  0.4353 -0.4755 -0.0335
17099W        W35303  17.581  14.671  11.588 -0.0566 -0.1015 -0.1452
17100W        W35304   5.137   6.355   2.671  0.0237 -0.1352 -0.1040
17101W        W35305   3.895   9.055   4.082  0.0394 -0.1581 -0.3762
17102W        W35306   6.033  12.883   5.389  0.0741  0.0249  0.1152
17103W        W35307  13.207   8.195   5.215  0.1383 -0.2196 -0.2015
17104W        W35308  17.447   9.394   1.638  0.0408  0.4018 -0.2238
17105W        W35309   6.659   8.383   2.685  0.4348 -0.0964 -0.0250
17106W        W35310  12.432   8.404  14.299  0.4532  0.1578  0.1840
17107W        W35311  15.300  12.422  14.398 -0.1531  0.2368  0.1201
17108W        W35312   3.314   6.207  12.482 -0.1641 -0.3509  0.0344
17109W        W35313   7.811   9.852  10.777  0.0743  0.1346 -0.1856
17110W        W35314   6.699   1.206   1.127 -0.1790 -0.1605  0.1725
17111W        W35315   8.650  12.863  11.179 -0.3522  0.1982  0.0308
17112W        W35316  13.984   2.635  10.930 -0.0658  0.0077 -0.0698
17113W        W35317   3.994   8.595  15.033 -0.0050  0.0031  0.4886
17114W        W35318   5.852  12.382   2.872 -0.1741 -0.4482  0.1684
17115W        W35319  14.252   3.606  13.116 -0.0836  0.2682 -0.1324
17116W        W35320  11.338  11.170  11.470 -0.3025  0.1389  0.1606
17117W        W35321  11.939   2.043  12.532 -0.2076  0.3615  0.2278
17118W        W35322  14.177  16.619   2.462 -0.0155 -0.3821 -0.0127
17119W        W35323  12.120   1.797   1.003 -0.3107  0.0468 -0.4113
17120W        W35324  16.831   7.015   6.715 -0.0783 -0.1367 -0.1425
17121W        W35325   1.459  11.092   3.728  0.1021  0.0354  0.0539
17122W        W35326  11.440   0.411   3.742  0.3257 -0.2168  0.0967
17123W        W35327   3.410   3.459  14.660  0.1385 -0.0943  0.0514
17124W        W35328   8.512  16.634  16.143 -0.1135  0.0651  0.2127
17125W        W35329  12.047   5.284  12.181  0.3212  0.2859  0.0659
17126W        W35330  15.609  13.609   0.518  0.2460  0.0087 -0.0389
17127W        W35331   4.351  16.756  15.401 -0.1328 -0.0308  0.1248
17128W        W35332   9.498  12.311   1.212  0.0303  0.0746  0.0223
17129W        W35333  10.736   8.545   5.411 -0.3176 -0.1964 -0.1219
17130W        W35334  10.744  13.868  10.946  0.2185  0.0963  0.1824
17131W        W35335   3.202  17.931  14.913  0.0396  0.1899 -0.0572
17132W        W35336  14.573   4.052  13.018 -0.1184 -0.2932 -0.0451
17133W        W35337   6.995   3.509   4.634 -0.1567  0.0561 -0.2189
17134W        W35338  15.520  16.320  11.380  0.1234  0.3248 -0.0480
17135W        W35339  12.456  14.029  14.654  0.1555 -0.2867  0.1572
17136W        W35340   3.112   4.554   1.600  0.0844  0.1373  0.0020
17137W        W35341  13.153  16.599   3.733  0.2918  0.0457 -0.0247
17138W        W35342   3.392  16.919   3.169 -0.1893  0.1062  0.1746
17139W        W35343  12.542   7.997   3.463  0.1292 -0.0199 -0.1537
17140W        W35344   1.657  17.774   3.058 -0.0946  0.0460 -0.2504
17141W        W35345   2.847  14.618  13.598  0.0238  0.0428  0.0524
17142W        W35346  10.134  12.905  15.405 -0.0710 -0.0826 -0.0775
17143W        W35347  13.023   5.441   5.592 -0.2606  0.0537  0.2519
17144W        W35348   1.939   6.599   2.856  0.0597 -0.0847  0.0998
17145W        W35349   6.018  13.224  12.340  0.2055 -0.1274  0.1570
17146W        W35350  15.778   0.133  13.063  0.0852  0.0525 -0.2220
17147W        W35351   9.321   2.108  11.215  0.0250  0.0310 -0.1932
17148W        W35352   7.215  12.060   3.742  0.1385  0.1503 -0.1672
17149W        W35353  13.752  13.427   0.337  0.0938  0.2098  0.3661
17150W        W35354   0.981   5.145  11.888 -0.0485 -0.0707  0.0833
17151W        W35355  17.302   5.728  10.437 -0.3016 -0.1033 -0.1882
17152W        W35356   0.245   8.293   2.571 -0.0333  0.0579  0.1427
17153W        W35357   8.378  12.622  12.356 -0.1722  0.0807  0.0708
17154W        W35358   5.159   1.053   4.550  0.0507  0.0499  0.0454
17155W        W35359  14.075   0.701   3.748 -0.2571 -0.1335 -0.1388
17156W        W35360   3.965   3.364   2.877  0.3934  0.2154 -0.0181
17157W        W35361  16.785  12.418  16.021  0.0278 -0.0493  0.0625
17158W        W35362   1.893   8.292   0.626  0.1467 -0.1648  0.0684
17159W        W35363  16.163   5.694   5.105  0.1737 -0.1686 -0.0042
17160W        W35364   2.424  11.468  14.827  0.2333 -0.3539  0.2958
17161W        W35365   9.944  17.881  14.807 -0.1285 -0.0433  0.0303
17162W        W35366  15.591  17.274   5.752  0.1555  0.0029  0.1209
17163W        W35367  10.654  15.811  14.620  0.1483  0.2310 -0.3256
17164W        W35368  14.804  14.591  15.211 -0.0171  0.1939 -0.0194
17165W        W35369  13.058  13.910   1.666  0.0590  0.1458 -0.0178
17166W        W35370  12.531  11.692  11.772  0.4533 -0.1457  0.0073
17167W        W35371  14.370   0.835   0.432 -0.1186  0.0433  0.0647
17168W        W35372   9.667   5.460   0.936  0.0766  0.1296  0.3096
17169W        W35373  17.150   6.971  11.461 -0.2135 -0.1127 -0.0741
17170W        W35374  17.148  16.154  12.266  0.1601 -0.1685 -0.2637
17171W        W35375  11.702  11.268   3.041 -0.1234  0.1330 -0.0158
17172W        W35376   6.917   2.409  14.222  0.1432  0.1415 -0.0766
17173W        W35377  14.218   7.698   3.096  0.3315 -0.1944  0.0843
17174W        W35378   6.359  12.673  11.649  0.0364 -0.1654 -0.0403
17175W        W35379   1.630  13.164  14.625  0.2048  0.1032  0.1009
17176W        W35380  18.032   2.976  14.457  0.3762 -0.2343 -0.0925
17177W        W35381  17.712   6.314   3.549 -0.1746  0.1673  0.1610
17178W        W35382   7.128   1.514   1.025  0.3830  0.2256 -0.0344
17179W        W35383   5.324  16.159   1.723  0.1081 -0.1573  0.2994
17180W        W35384   0.622   1.892  11.200  0.1320 -0.1052  0.3920
17181W        W35385   7.062   3.398  13.780 -0.1316 -0.5303 -0.1441
17182W        W35386   3.375  11.293  15.069 -0.0521 -0.1432  0.1184
17183W        W35387  11.436   6.908  14.346  0.1935  0.0246  0.2296
17184W        W35388  17.909  14.405   3.621  0.2250  0.1292 -0.0468
17185W        W35389  11.768   3.529  13.855 -0.2373 -0.0472  0.0421
17186W        W35390   6.578   6.717   5.319 -0.2557  0.2919  0.1145
17187W        W35391  15.623  16.812  12.556 -0.1169 -0.0596 -0.1930
17188W        W35392   6.879   3.159  15.774 -0.1312 -0.0777 -0.2155
17189W        W35393  11.719   5.502  14.115 -0.1273  0.0490  0.1711
17190W        W35394  12.311   0.736  14.096 -0.0622 -0.0652 -0.0711
17191W        W35395   3.624  16.394   3.697  0.0718  0.1260 -0.0921
17192W        W35396   3.244   7.782  11.524 -0.0285  0.0769  0.1291
17193W        W35397  14.599  12.904  14.281 -0.0025 -0.0504  0.0178
17194W        W35398   3.525  12.130   0.668  0.1744 -0.0339  0.3471
17195W        W35399  14.517  13.560  15.820 -0.0578 -0.1205  0.0221
17196W        W35400  10.733  13.166  15.851 -0.2247  0.0167 -0.1852
17197W        W35401  11.848  12.748  13.523 -0.0962 -0.1106  0.0030
17198W        W35402  12.854   4.045   3.517  0.1051 -0.0510  0.0194
17199W        W35403   3.660  17.131   0.904 -0.1817 -0.1606 -0.1051
17200W        W35404  12.117   8.036  12.108  0.0024  0.0187  0.1025
17201W        W35405  17.091  11.577  13.135  0.0549 -0.2546 -0.3076
17202W        W35406  13.605  15.645  14.416 -0.0884  0.0329 -0.2891
17203W        W35407   5.123   5.800  12.676 -0.3015 -0.3470 -0.2774
17204W        W35408  14.413   4.225  12.468  0.0361  0.2772 -0.1276
17205W        W35409  14.511   3.630  11.876 -0.2718  0.0665 -0.0577
17206W        W35410   9.577   1.991   0.659 -0.3191 -0.1503 -0.4050
17207W        W35411  15.807  14.597   3.445  0.2337  0.0113 -0.1730
17208W        W35412  14.759   0.660  14.115 -0.0116  0.3719 -0.0624
17209W        W35413  13.192   4.759   0.128  0.0564  0.0146 -0.0445
17210W        W35414  14.914   5.729   2.857 -0.1630  0.0890 -0.0902
17211W        W35415   4.903   2.291   3.606 -0.4388  0.2710 -0.2116
17212W        W35416  16.070   3.742   4.596  0.1769  0.0484  0.2150
17213W        W35417   4.556   2.618   3.865 -0.2403 -0.0397  0.1466
17214W        W35418  13.879  14.415   1.635 -0.0046  0.0133  0.1489
17215W        W35419   4.903  11.845   1.894 -0.0438  0.1241  0.0097
17216W        W35420  13.347  14.718  15.013 -0.1528 -0.0233 -0.0548
17217W        W35421  13.882   6.980  11.666  0.2767  0.0024 -0.1669
17218W        W35422   6.223   1.347  10.249 -0.0644 -0.0468 -0.2090
17219W        W35423   5.941  16.334  16.100  0.0550  0.0040 -0.1505
17220W        W35424   6.339  17.369   2.544 -0.0126  0.1854  0.1183
17221W        W35425  16.525   3.128  16.107  0.1335  0.1518  0.0550
17222W        W35426   5.346   5.450   0.811  0.1265 -0.2933 -0.3324
17223W        W35427  16.965   9.735  12.262  0.0945 -0.2790  0.1742
17224W        W35428   3.421   0.299  15.162  0.0583  0.2662  0.0424
17225W        W35429   6.300  10.663   1.119 -0.0720  0.1498 -0.1882
17226W        W35430  15.821   4.247   2.709 -0.1555 -0.0243  0.0341
17227W        W35431   5.620   4.476  12.454  0.5821 -0.0491 -0.0434
17228W        W35432   4.685  12.066   5.130 -0.1005 -0.0040 -0.1050
17229W        W35433   7.529  13.527   2.062 -0.1367  0.0498 -0.0449
17230W        W35434  13.122  12.458   3.306  0.1951 -0.2139 -0.0220
17231W        W35435  14.885   0.314   4.577  0.1608  0.1011 -0.1803
17232W        W35436   1.422   2.650   2.480  0.1250  0.1870  0.1459
17233W        W35437   6.871   6.847  10.855 -0.0214  0.0823 -0.2463
17234W        W35438   2.193   5.974   1.525  0.1301  0.0694  0.0110
17235W        W35439   4.756   0.197   4.807  0.0592 -0.1026 -0.1302
17236W        W35440  13.398   6.354  15.485  0.2404 -0.1692 -0.2057
17237W        W35441   7.570  12.138  15.481 -0.2297  0.3924  0.0154
17238W        W35442   4.476  13.837  14.460 -0.0972  0.0910  0.1338
17239W        W35443  10.167  11.777   1.903  0.1523 -0.1249  0.1078
17240W        W35444  15.796   1.694   3.630  0.1391  0.2556 -0.1397
17241W        W35445   5.332   8.947   2.058  0.0199  0.0581  0.1189
17242W        W35446  12.938   0.189  15.977 -0.1518 -0.0002  0.1158
17243W        W35447   5.322  16.178  13.568 -0.3465  0.1914 -0.0045
17244W        W35448   2.794   7.676  14.680  0.0307  0.1470  0.0235
17245W        W35449   0.730   3.699  14.438 -0.0670 -0.1744 -0.1948
17246W        W35450   7.469  15.684   1.358  0.0146 -0.3022  0.3059
17247W        W35451  12.518   4.971   3.805  0.2694 -0.0827  0.3612
17248W        W35452  13.953  15.139   3.803 -0.0969 -0.2029  0.0206
17249W        W35453  10.185  12.580  14.083 -0.1587  0.0589  0.0483
17250W        W35454   1.505   6.614   3.174  0.1152  0.1245 -0.1882
17251W        W35455  11.629  14.057  14.406  0.1594 -0.0968 -0.1211
17252W        W35456   3.149  12.432  15.819  0.0160  0.2927 -0.1975
17253W        W35457   6.312  16.450  10.477  0.1175  0.1552 -0.3015
17254W        W35458  17.614   5.692   2.410  0.1177 -0.1395 -0.0943
17255W        W35459  10.422  14.701   1.417 -0.3526 -0.0262 -0.1531
17256W        W35460   2.812   6.686  13.370  0.1505  0.0314 -0.2070
17257W        W35461  11.147  17.000  11.713 -0.1686 -0.1249 -0.1866
17258W        W35462   2.857   6.490   3.883 -0.2570  0.1586  0.1029
17259W        W35463   4.519  16.364   0.274  0.1644 -0.2354 -0.0326
17260W        W35464  11.367  13.987   2.472 -0.0732  0.0280 -0.0291
17261W        W35465   8.642  11.033   4.433 -0.2316 -0.1564  0.0112
17262W        W35466   1.224   5.746  13.236  0.0347 -0.0863  0.2468
17263W        W35467   9.510  16.822  12.588  0.0030 -0.1273 -0.3512
17264W        W35468   1.388   5.228  12.166  0.3474  0.2848  0.0709
17265W        W35469  10.849   7.607   2.764  0.1731  0.1061  0.0334
17266W        W35470  15.572   0.229  13.626 -0.0430  0.0254 -0.0057
17267W        W35471  12.281  16.183  15.702 -0.2750 -0.3774  0.2853
17268W        W35472  10.772   7.598  13.660  0.2225  0.1679 -0.1923
17269W        W35473   0.363   4.061  15.030 -0.4528  0.1013  0.1240
17270W        W35474  15.412   3.268  13.465  0.1947  0.1707 -0.0126
17271W        W35475   6.400   5.894   4.311 -0.1225  0.1101 -0.1579
17272W        W35476  14.377   6.801  13.777 -0.1976 -0.2204 -0.1091
17273W        W35477  17.498   6.739   3.033 -0.0718 -0.2725 -0.1990
17274W        W35478   8.899  12.656  13.059  0.1649  0.1136 -0.0717
17275W        W35479  14.860   5.849   3.538  0.2746 -0.1465 -0.1710
17276W        W35480   7.949  10.175   1.735  0.0814 -0.3560  0.0218
17277W        W35481  12.623  13.882  15.976 -0.0807 -0.1861  0.1325
17278W        W35482   6.384   4.013   4.351  0.0045  0.1879 -0.1997
17279W        W35483   1.620  15.413   0.724  0.2735  0.0061 -0.1603
17280W        W35484  13.808  12.150  11.870 -0.1386 -0.0635 -0.1348
17281W        W35485  16.294  16.030  16.138 -0.1412 -0.0544  0.1763
17282W        W35486   3.664   6.441   4.263  0.3702 -0.2180 -0.4084
17283W        W35487  10.017  12.049  11.976 -0.4617  0.0340 -0.0789
17284W        W35488   0.652  12.282  11.605 -0.3285 -0.1651 -0.1297
17285W        W35489   2.258   2.880  12.885  0.2091  0.0178 -0.3523
17286W        W35490   2.661   2.933  16.064  0.2717 -0.0051 -0.2965
17287W        W35491   3.325   0.861   1.623 -0.3407 -0.0673  0.1874
17288W        W35492  11.222  15.929   3.740  0.0687 -0.0501  0.1363
17289W        W35493   5.268   1.073   3.380  0.2641 -0.1675  0.1383
17290W        W35494  10.230   3.151  13.209 -0.0091 -0.0168 -0.1778
17291W        W35495   9.809   5.796  14.943 -0.0564  0.1908  0.0665
17292W        W35496   6.066   6.788   5.329  0.0970 -0.0283 -0.2385
17293W        W35497   8.037  12.443   3.925  0.0531 -0.2358 -0.1944
17294W        W35498  16.196   2.228   0.105  0.0730 -0.1432 -0.0226
17295W        W35499   2.175  14.181  15.385 -0.0086 -0.0710 -0.0157
17296W        W35500  17.028  13.024   1.247  0.1410 -0.0970 -0.1844
17297W        W35501   9.098   0.889   1.273  0.0772  0.1950  0.2444
17298W        W35502   4.818   3.965   2.592  0.1213  0.0206  0.2323
17299W        W35503  12.821  13.104  12.055 -0.1382  0.1009  0.0534
17300W        W35504  16.586   7.509   4.327  0.2916 -0.0845  0.1979
17301W        W35505  10.394   8.504  15.124  0.1885  0.1178 -0.2829
17302W        W35506   1.394  17.484  10.337 -0.1663  0.2643  0.3310
17303W        W35507  12.807   6.470  15.687 -0.2104  0.1487  0.1850
17304W        W35508  13.594   0.590   3.439 -0.0621 -0.1135 -0.0651
17305W        W35509  18.022  15.496   5.070 -0.1102 -0.1673  0.0635
17306W        W35510  15.659   2.676  14.527 -0.2112 -0.0546 -0.0432
17307W        W35511   9.544  10.433  14.135 -0.1228 -0.0514 -0.0261
17308W        W35512   4.408   3.755  15.184  0.1414 -0.0754 -0.3895
17309W        W35513  11.159   6.420   1.496 -0.0255 -0.1020  0.1345
17310W        W35514   2.315  14.995  12.733 -0.0414 -0.1877  0.0483
17311W        W35515  17.785   9.679  13.308 -0.2013  0.1666  0.0822
17312W        W35516  17.078  12.387   4.024 -0.0636 -0.0636  0.1471
17313W        W35517  13.425  12.825  15.623 -0.1638  0.0210 -0.2122
17314W        W35518   6.509   0.388   2.298  0.0773  0.0270  0.0420
17315W        W35519   7.582  16.691   4.579  0.1054  0.2803  0.3143
17316W        W35520  14.867   9.085   2.900  0.1187 -0.0757 -0.0301
17317W        W35521  12.381   0.807   3.287 -0.3882 -0.1787 -0.0339
17318W        W35522  16.263  13.724  13.721 -0.0668  0.2861 -0.2589
17319W        W35523  14.767   0.327  13.597 -0.1888 -0.0176 -0.0037
17320W        W35524   9.096  17.851  11.009 -0.1576  0.1735  0.1670
17321W        W35525   1.306   3.481   2.460  0.1863 -0.0616  0.0560
17322W        W35526  16.299   1.338   1.447 -0.1626  0.0233  0.4112
17323W        W35527  15.177   1.218  11.456  0.0201 -0.0222  0.1690
17324W        W35528  16.060  17.849   4.616 -0.0142 -0.1969  0.0457
17325W        W35529   7.912   0.345  13.158  0.0158 -0.1114 -0.0359
17326W        W35530  16.720  16.251  12.590 -0.1296  0.1923  0.0952
17327W        W35531   5.872  13.432   0.287  0.0907  0.3260  0.1875
17328W        W35532  14.669  14.968   4.385 -0.1752  0.2315  0.1320
17329W        W35533  16.913  11.022   3.741  0.0417  0.1071 -0.2092
17330W        W35534   0.216  11.807   4.376 -0.1662  0.1547  0.2076
17331W        W35535  14.024   4.828   3.490 -0.1916  0.0521 -0.0652
17332W        W35536  16.074   9.999  13.312 -0.3858  0.1763 -0.4088
17333W        W35537  11.085  11.944   3.200 -0.2664 -0.0695  0.2954
17334W        W35538   0.406   2.745   3.624  0.0549 -0.2537 -0.0853
17335W        W35539   8.817   9.992   4.729 -0.0824  0.3368 -0.0708
17336W        W35540  17.837  11.173   1.054 -0.1205  0.0597 -0.0111
17337W        W35541  17.085   3.583   3.870 -0.1320  0.0908 -0.2052
17338W        W35542  12.104   3.662   3.987  0.1638  0.0388 -0.2494
17339W        W35543  12.703   7.306   3.733  0.0828 -0.5146  0.0271
17340W        W35544   1.851  12.301  13.588 -0.0954  0.1305  0.1884
17341W        W35545   2.621  12.713   5.087  0.0539 -0.2941  0.3611
17342W        W35546   0.159   6.585   3.688 -0.1981 -0.2607  0.1993
17343W        W35547  11.228   8.015  12.358 -0.0479 -0.1262 -0.2945
17344W        W35548   6.206  16.388  11.273 -0.2423 -0.0522 -0.0226
17345W        W35549  15.990   3.336   2.554 -0.1675 -0.0137 -0.2078
17346W        W35550   4.401  12.725  11.619  0.1294 -0.3709 -0.0577
17347W        W35551  12.323  13.540  15.791 -0.5870  0.0231 -0.1479
17348W        W35552   6.122   8.915   4.150 -0.3636 -0.1821  0.1285
17349W        W35553   3.840   9.434  13.505  0.0945  0.0815  0.0782
17350W        W35554   2.096  13.195  11.740  0.0195 -0.1787 -0.2526
17351W        W35555   3.314   7.458  13.001 -0.0395  0.0945 -0.1683
17352W        W35556   9.208  17.501   4.460  0.0198 -0.1619  0.1864
17353W        W35557  12.977  15.260   0.947 -0.4623  0.0462  0.1613
17354W        W35558  15.373   3.715  12.538  0.1486  0.2396 -0.1054
17355W        W35559  11.077   9.896  12.318 -0.1398 -0.3797 -0.1351
17356W        W35560   3.973   8.321  13.163  0.0881 -0.0636 -0.0531
17357W        W35561  16.500   8.694  11.979 -0.0594 -0.2898  0.0953
17358W        W35562  12.283   4.918  12.522  0.2050  0.0561  0.0627
17359W        W35563   6.358   2.747   1.933 -0.1282  0.0400  0.0913
17360W        W35564  17.861   0.431   0.128 -0.0821  0.0909 -0.2403
17361W        W35565   6.006  10.392  14.457  0.3045  0.1704  0.0711
17362W        W35566   4.754   0.334  14.170 -0.0794 -0.0740 -0.0076
17363W        W35567   8.167  14.086   3.181 -0.0641  0.1391  0.0700
17364W        W35568   1.584  10.259   4.816  0.1018 -0.1722  0.2546
17365W        W35569  15.968  17.835   0.613 -0.1000  0.0622 -0.1176
17366W        W35570   6.502  15.897   1.582 -0.0857 -0.4898  0.2532
17367W        W35571   7.226   2.437   2.836  0.1409 -0.0112 -0.0525
17368W        W35572  12.464  17.357   0.233 -0.4558  0.0036 -0.0284
17369W        W35573  17.651   6.237   3.042 -0.2130 -0.1141  0.1860
17370W        W35574  11.621   1.178   1.780 -0.2189  0.1991 -0.2552
17371W        W35575   6.996  17.572   3.943  0.1040  0.1542 -0.2656
17372W        W35576   3.782  16.628   2.903  0.2617  0.3487 -0.0383
17373W        W35577   1.983   7.904   2.232 -0.0537  0.0080 -0.1007
17374W        W35578  10.007   9.852  14.124  0.0060 -0.3392 -0.0548
17375W        W35579  16.676   2.080  12.685  0.2612 -0.1058 -0.0317
17376W        W35580   5.102   1.140  14.659  0.0754 -0.2259  0.1299
17377W        W35581   9.586  13.440  12.031  0.0096 -0.3716  0.1026
17378W        W35582   5.539  13.110  15.304 -0.1478 -0.1510  0.2059
17379W        W35583   7.313   6.886   3.745  0.0550  0.1220  0.1186
17380W        W35584   6.020  15.671   1.588 -0.0968  0.0235 -0.1410
17381W        W35585   5.936  13.779  14.044  0.3388 -0.0676  0.0131
17382W        W35586   0.799   6.767  13.990 -0.0568  0.0459  0.2499
17383W        W35587  15.701   0.332  15.480 -0.0587  0.1241 -0.1776
17384W        W35588   9.016   4.260   4.400 -0.0663  0.0783  0.1262
17385W        W35589   5.834  17.952  10.135  0.1708  0.0672  0.3600
17386W        W35590   8.972  12.715   4.073 -0.0255 -0.1427  0.1262
17387W        W35591  17.225  13.600  15.466 -0.1895  0.2546 -0.0107
17388W        W35592   7.112   1.993  11.350 -0.0728 -0.2208  0.0687
17389W        W35593  17.179  13.917   1.407  0.2574  0.2910 -0.3964
17390W        W35594   5.028   9.160   5.888 -0.1842  0.1301 -0.0401
17391W        W35595   4.588  14.593  13.038 -0.1057 -0.1017  0.1217
17392W        W35596  11.113  10.339  14.439 -0.0601  0.2916  0.2116
17393W        W35597   7.440  12.058   2.280 -0.1916  0.0129 -0.1186
17394W        W35598   3.050   9.497  15.294 -0.2894  0.3290  0.0241
17395W        W35599  14.164  10.219   3.135 -0.1023 -0.1404 -0.0192
17396W        W35600   8.737   9.205  15.950  0.0878 -0.1954  0.0749
17397W        W35601   2.725  14.767  16.029 -0.1834 -0.0046  0.2341
17398W        W35602  10.117   4.738  14.077  0.4351 -0.1260 -0.3135
17399W        W35603   3.144  11.373   1.902  0.2193  0.0248 -0.2852
17400W        W35604   8.002  17.417  12.985  0.1085 -0.3187 -0.0914
17401W        W35605   3.009   8.269  14.074  0.2929 -0.1768 -0.0769
17402W        W35606  13.347  16.669   1.461 -0.0495 -0.0361 -0.1431
17403W        W35607  15.030  15.155   3.852  0.5021  0.0806 -0.4032
17404W        W35608  10.601   7.378  14.473 -0.1005 -0.0235  0.1233
17405W        W35609  14.125   9.291  13.799  0.0199  0.1411  0.1624
17406W        W35610   9.684   1.878  14.801 -0.1950  0.0551  0.1065
17407W        W35611   8.567  13.421  11.338  0.1349  0.2225  0.2109
17408W        W35612  16.558   8.729   3.760 -0.2372  0.1247  0.4615
17409W        W35613   9.692  11.343   4.556  0.0041  0.0967 -0.0281
17410W        W35614   7.708   5.601   1.420  0.0676 -0.0701 -0.2113
17411W        W35615  13.152  14.767  11.754 -0.1678  0.1890 -0.1458
17412W        W35616  16.161   1.577  11.083  0.0910  0.0732 -0.0416
17413W        W35617  12.142  17.188  14.902  0.1060  0.0562  0.0753
17414W        W35618  10.883  13.576   0.057 -0.1672  0.2745  0.1456
17415W        W35619   7.253   9.560   0.819  0.2206 -0.0744  0.0324
17416W        W35620  16.926   5.798  12.372  0.1278  0.0072  0.3755
17417W        W35621   2.181  12.000  16.145  0.0982  0.1279  0.0184
17418W        W35622  16.615   7.288   4.745  0.0762  0.1858  0.1986
17419W        W35623  11.779   4.652  16.098 -0.2182 -0.0819 -0.0672
17420W        W35624   6.726   3.822  13.327  0.0643  0.1246  0.0690
17421W        W35625   0.632  14.024   2.567 -0.1665 -0.0410  0.0508
17422W        W35626  15.425  15.592  13.253  0.0941 -0.0664 -0.1221
17423W        W35627   1.122   0.370  10.210  0.0671  0.2259 -0.0550
17424W        W35628  16.845  17.790  12.383  0.1953 -0.0575  0.0881
17425W        W35629   5.662   9.299   4.212  0.1193 -0.0510  0.0565
17426W        W35630  16.983  13.832   2.692 -0.1923 -0.0286  0.0690
17427W        W35631  16.677   0.833   2.962  0.0815 -0.1295  0.2180
17428W        W35632  15.698   2.772  14.059  0.2282 -0.1170  0.0584
17429W        W35633   3.039   8.112   1.102  0.1757 -0.1517 -0.0313
17430W        W35634   6.529   5.131  12.047  0.3108 -0.0168  0.0484
17431W        W35635  14.970  16.795   4.074  0.0298  0.0848  0.1952
17432W        W35636   7.314  12.903  11.729 -0.1764 -0.1460  0.1177
17433W        W35637   2.878   4.758  13.479 -0.0661  0.3710  0.1245
17434W        W35638  11.936  14.471  14.490 -0.0568 -0.1442 -0.0472
17435W        W35639   3.783   2.794  10.682 -0.2867 -0.2806 -0.1916
17436W        W35640   3.434   0.501   1.231  0.2856 -0.0930 -0.1223
17437W        W35641   7.637   8.188  12.528  0.0036  0.0708 -0.1558
17438W        W35642   5.231  12.909  16.039  0.1469  0.0014 -0.1119
17439W        W35643   0.666   6.562   3.013 -0.2295  0.0540 -0.2073
17440W        W35644   4.874  10.092   0.027  0.1285  0.2127  0.0651
17441W        W35645  15.491   2.683   3.687 -0.4249 -0.0501 -0.0628
17442W        W35646  12.704  12.209  13.325 -0.2314 -0.1535  0.0287
17443W        W35647  16.333   1.377  14.929 -0.2603 -0.1382 -0.2868
17444W        W35648   0.706  14.517  14.803 -0.1108 -0.3317  0.0014
17445W        W35649   5.312  10.420  13.737  0.3073 -0.1935 -0.1569
17446W        W35650   6.711   0.503  11.269 -0.2863 -0.0628 -0.0418
17447W        W35651   5.541  13.731  14.408  0.2551 -0.3060 -0.0543
17448W        W35652  11.826  18.008  12.499 -0.4038 -0.1454  0.1348
17449W        W35653  12.378  11.577  12.269  0.1391 -0.4318  0.0054
17450W        W35654   7.688  10.309   2.957 -0.1710  0.2361 -0.0224
17451W        W35655   6.516  11.200  11.573 -0.5243 -0.0117  0.2500
17452W        W35656   1.101   5.071  13.205  0.1038 -0.1662 -0.3289
17453W        W35657   7.121   4.518   4.893 -0.2405 -0.0018 -0.0850
17454W        W35658   5.233  17.125   3.749  0.1143 -0.3356  0.0221
17455W        W35659   1.985   1.437   1.626 -0.0541 -0.1573 -0.0833
17456W        W35660   3.461  16.911   2.585 -0.0800 -0.3234 -0.1391
17457W        W35661   4.627  17.275   1.730 -0.1292  0.0637  0.0540
17458W        W35662  14.372   3.901   0.957 -0.3865  0.0433  0.0847
17459W        W35663   8.870  16.252  13.546  0.2239  0.3618 -0.1035
17460W        W35664   3.132  13.180   1.472  0.1340  0.1439  0.2656
17461W        W35665   6.246  13.857   4.497 -0.0939  0.2602 -0.0569
17462W        W35666  11.998   7.708   3.415  0.2060 -0.0638 -0.0966
17463W        W35667   8.798  17.867  15.873  0.4372  0.0007 -0.1429
17464W        W35668   5.755   8.189  15.146  0.0354  0.1393 -0.0988
17465W        W35669   8.567   2.024  14.151 -0.0179 -0.2701  0.1018
17466W        W35670   0.264   4.883  12.994 -0.0846 -0.2548 -0.1566
17467W        W35671  14.105   2.164  11.127  0.1088 -0.1356  0.0741
17468W        W35672  17.436  12.498   3.641  0.0818  0.0672 -0.0484
17469W        W35673  14.964   2.308  12.531  0.1205 -0.0179 -0.0990
17470W        W35674  13.974   4.557   3.902 -0.2641  0.1104 -0.3042
17471W        W35675  11.670   7.476  13.004 -0.1153  0.0541 -0.2277
17472W        W35676   4.193   6.124   2.315  0.0474 -0.1749 -0.1906
17473W        W35677  12.810   9.027   4.565 -0.0337 -0.1021  0.2385
17474W        W35678  15.798  12.576  12.206 -0.1682 -0.1418  0.0472
17475W        W35679   7.666   8.095   3.738  0.0691  0.0008  0.3895
17476W        W35680   0.799   8.112  13.451  0.1253 -0.0664  0.1237
17477W        W35681   7.418   8.760  12.177  0.1793 -0.2725  0.2436
17478W        W35682   5.543  15.309  13.542 -0.1266 -0.2433  0.1539
17479W        W35683  17.845   9.460  14.443  0.0062  0.2687 -0.0905
17480W        W35684  15.964  11.030  12.770  0.3128  0.0236  0.2972
17481W        W35685   6.686   6.083   1.263 -0.1936 -0.0387 -0.0542
17482W        W35686   3.591  10.007  12.628 -0.1260  0.1695  0.1018
17483W        W35687   0.929   5.921  13.587  0.1702 -0.2383  0.0960
17484W        W35688  11.727  17.466   3.837 -0.1187  0.0623 -0.0161
17485W        W35689   3.741  11.346   0.219  0.3983  0.1271  0.1855
17486W        W35690  10.010  12.388  15.682  0.1641  0.1093  0.2789
17487W        W35691   9.295   5.254  12.171 -0.1490  0.2312 -0.1188
17488W        W35692   6.438  11.516   3.848  0.1265  0.1419 -0.1340
17489W        W35693  11.242   4.392  14.576 -0.1492 -0.0464 -0.1631
17490W        W35694   0.961  16.826   4.310  0.1849  0.0060  0.3997
17491W        W35695   0.252   6.331  11.558 -0.1908  0.2206  0.3909
17492W        W35696  13.847   0.853  12.636 -0.0653  0.3135  0.3127
17493W        W35697  15.796  16.738   3.837  0.1969  0.1944  0.1043
17494W        W35698  13.018   7.421  12.678  0.0692  0.1912  0.0195
17495W        W35699   9.224  12.387  12.175 -0.2044 -0.0798  0.2507
17496W        W35700  12.936  10.689  13.032 -0.0047 -0.0713 -0.3087
17497W        W35701   1.501   9.700   0.522 -0.1089 -0.1213 -0.1437
17498W        W35702   8.595   2.567  15.845 -0.0583 -0.1162 -0.0621
17499W        W35703   4.382  11.751   4.838  0.0751 -0.0873 -0.0678
17500W        W35704  15.953   6.667  14.146 -0.1320 -0.0051  0.0238
17501W        W35705   2.878  12.900  14.450  0.0529  0.0504  0.2469
17502W        W35706   6.212   1.794   2.805 -0.0234  0.0541 -0.1855
17503W        W35707  17.636   7.254   0.608  0.0824  0.1328 -0.0928
17504W        W35708   9.318   5.802   1.745 -0.0879 -0.1222  0.0418
17505W        W35709  15.333  11.733  11.255 -0.1160  0.1880 -0.0647
17506W        W35710   3.877  12.781  13.178  0.4297  0.1571 -0.1088
17507W        W35711   8.811  16.756  13.307  0.0551 -0.0092 -0.0657
17508W        W35712   0.249  17.741   0.516  0.2224  0.0211  0.1869
17509W        W35713   5.876   9.698   4.448 -0.0031 -0.0123 -0.1338
17510W        W35714   4.689  13.327  13.453 -0.1057 -0.1067  0.1854
17511W        W35715  11.669   3.125  14.757  0.2597  0.0287 -0.4668
17512W        W35716   4.100  16.954  12.737  0.1833 -0.0525  0.0979
17513W        W35717  11.982  11.251   2.145 -0.0673 -0.1746  0.1879
17514W        W35718  11.949  17.537  14.257  0.2619  0.0906  0.1234
17515W        W35719   5.740   7.472  14.425 -0.1574 -0.1368  0.0786
17516W        W35720   9.078   2.990  15.206  0.0440  0.0156  0.1011
17517W        W35721  11.085   7.731   4.032 -0.2166 -0.0436 -0.1201
17518W        W35722   5.090  12.336   4.266  0.0012  0.2674 -0.1403
17519W        W35723  14.373   3.312   0.724 -0.0927  0.1201  0.2121
17520W        W35724   9.837  11.250   0.314  0.1722 -0.1733  0.2993
17521W        W35725   2.349  15.591  15.960  0.0343 -0.0693  0.0782
17522W        W35726   4.304   9.327  11.769 -0.3328  0.0380  0.2542
17523W        W35727   7.784   0.523  15.312  0.1792  0.2362 -0.2968
17524W        W35728  10.369   8.453   3.531  0.1256  0.0011  0.2041
17525W        W35729  10.987  16.304   1.548  0.1011  0.0797  0.0124
17526W        W35730  12.140   1.539  13.463 -0.3269  0.0001  0.0425
17527W        W35731   3.720  14.747   1.905  0.0290  0.0429  0.3091
17528W        W35732   9.145   3.175  12.329  0.1939 -0.0740 -0.0784
17529W        W35733   6.840  15.290   3.611  0.0301  0.2265  0.2465
17530W        W35734   8.867   3.031  15.673 -0.4856 -0.1924  0.3016
17531W        W35735   0.346  14.366   4.421 -0.0222  0.1274 -0.0049
17532W        W35736   6.299  16.533   0.230  0.2923  0.0632  0.2612
17533W        W35737   2.021  14.827  13.891  0.3450 -0.0010 -0.1540
17534W        W35738  16.580  14.826  11.757 -0.0283  0.1434 -0.2427
17535W        W35739   0.938  16.898   1.392 -0.0604 -0.2000  0.0115
17536W        W35740  17.237   0.915  11.623  0.1457 -0.0852 -0.0614
17537W        W35741  11.325   7.929  15.397 -0.0673 -0.1779  0.0269
17538W        W35742   8.931  11.694   0.432 -0.3483  0.3532 -0.0442
17539W        W35743   8.373  15.933  15.463 -0.2193  0.1141 -0.1009
17540W        W35744  16.988   0.104   2.112  0.0946  0.3160 -0.0405
17541W        W35745  13.728  10.597  16.140 -0.0700 -0.1103  0.3069
17542W        W35746  14.766   9.682   0.559 -0.3455  0.0888  0.2677
17543W        W35747  15.900   8.448  14.913 -0.1842 -0.1612  0.1281
17544W        W35748   8.621  16.788   3.752 -0.1693 -0.1078 -0.1393
17545W        W35749  16.476   2.552  11.384 -0.3270  0.2265  0.2640
17546W        W35750   3.675  15.483   4.088  0.0136 -0.2423  0.0871
17547W        W35751   3.273   3.175   0.503  0.2657  0.0337 -0.2593
17548W        W35752  14.466  15.996  11.884  0.0749  0.1084 -0.0213
17549W        W35753   2.390  17.774   1.535  0.0584  0.0960 -0.2884
17550W        W35754  11.477  14.113  11.384  0.2355  0.1686  0.1988
17551W        W35755   0.167   1.244  11.686 -0.1095  0.0427  0.0763
17552W        W35756   1.504  16.058   2.926  0.0673 -0.4565 -0.2991
17553W        W35757   5.953  16.920   2.102 -0.2072  0.3403  0.1943
17554W        W35758  12.677  16.257   0.375 -0.0020  0.2654 -0.2095
17555W        W35759  14.627   3.992  13.522 -0.2289 -0.2143  0.1154
17556W        W35760   3.600   8.706  12.417  0.1331  0.1346 -0.0407
17557W        W35761  10.757   0.742   0.469  0.2056 -0.1045  0.3030
17558W        W35762   9.022  10.119  12.604 -0.1447  0.1115  0.0233
17559W        W35763   8.583   0.770   4.653  0.0229 -0.1301 -0.2367
17560W        W35764  17.796  10.903  15.923  0.1970 -0.2050 -0.1075
17561W        W35765  17.765   7.198  12.640  0.0824  0.0184 -0.0265
17562W        W35766   9.678   4.294   2.983 -0.1897  0.0148 -0.0554
17563W        W35767   0.563  12.060   4.070  0.2355 -0.0195  0.1096
17564W        W35768   5.444  10.341   5.114 -0.0595  0.0980  0.2637
17565W        W35769   9.294  15.664  14.988 -0.0679  0.0315 -0.0365
17566W        W35770  11.373   4.777   3.035  0.2699  0.3828  0.0005
17567W        W35771   3.776   0.858   1.944  0.0291 -0.1590  0.0987
17568W        W35772  13.002   7.839   3.628 -0.0140 -0.0164 -0.0729
17569W        W35773  10.925   8.159  13.716 -0.3655  0.2047 -0.1017
17570W        W35774  13.488  14.618  14.064  0.2846 -0.0158 -0.1990
17571W        W35775  16.659   4.695   3.342 -0.1251 -0.0246  0.1663
17572W        W35776  11.206  14.795   4.604 -0.1891 -0.0316 -0.0300
17573W        W35777   3.758  14.906  14.630  0.1450 -0.0505 -0.0246
17574W        W35778   4.267   5.606   3.553 -0.0800  0.0200 -0.1155
17575W        W35779   9.380   0.427   3.619  0.1808 -0.0332  0.0496
17576W        W35780   5.080   5.907   2.420 -0.0636 -0.0881 -0.1451
17577W        W35781  15.090   9.337   3.827  0.0470  0.0424 -0.0759
17578W        W35782  11.853  12.202  14.574 -0.0585 -0.1781 -0.2721
17579W        W35783  10.166   4.891  16.086  0.1947  0.1120 -0.1686
17580W        W35784  16.040   1.223  12.690 -0.2835 -0.1582 -0.1183
17581W        W35785  14.642  11.344   2.032  0.1589  0.0648 -0.0909
17582W        W35786   5.656   7.860  14.067  0.1404 -0.4208  0.0427
17583W        W35787   2.324  11.869  11.287 -0.1744  0.2928 -0.1918
17584W        W35788   0.954  12.896  14.962  0.1701 -0.2143 -0.0470
17585W        W35789  12.996   5.436  13.143 -0.1847 -0.1839 -0.2022
17586W        W35790  13.811   4.398  13.078 -0.2808  0.0386  0.2057
17587W        W35791   9.036   1.341  11.412 -0.0323  0.1322  0.1026
17588W        W35792  10.135   1.881  13.075  0.1138  0.2408  0.0310
17589W        W35793   0.256   5.891   5.101  0.0822  0.2962 -0.1692
17590W        W35794  13.748   6.860  12.158 -0.2098 -0.0581  0.0731
17591W        W35795   6.657   9.685  13.755  0.1375 -0.0642 -0.0307
17592W        W35796  14.903  14.680  15.969  0.0899  0.0947  0.1342
17593W        W35797   3.388  13.492  12.150 -0.3810  0.0666 -0.1079
17594W        W35798   9.835  14.982  12.821 -0.1502  0.2695  0.0180
17595W        W35799  15.622   4.617   1.008  0.0718 -0.0357 -0.2870
17596W        W35800   0.456   2.557   1.092  0.2094 -0.1550  0.2887
17597W        W35801  16.402   2.792   3.665  0.0003  0.1465 -0.1252
17598W        W35802   3.774   4.639   1.262  0.2328  0.0460  0.0261
17599W        W35803   3.976  11.193   2.117  0.1522 -0.0251 -0.1065
17600W        W35804   8.597   0.219   3.287 -0.0666  0.1029  0.0050
17601W        W35805   3.006   1.914   2.414 -0.4261 -0.0324 -0.0640
17602W        W35806  17.431   7.464   1.021 -0.0143  0.1317  0.1427
17603W        W35807   1.361  14.647   2.333 -0.0989 -0.0018 -0.2347
17604W        W35808   2.881  14.862   3.045 -0.3411 -0.1382  0.0739
17605W        W35809  11.393  11.015  13.810 -0.1888  0.3459 -0.0771
17606W        W35810  13.916   1.177  11.631  0.0066  0.0507 -0.2388
17607W        W35811   3.243  14.875   3.457 -0.0116  0.0325  0.0484
17608W        W35812   1.940  17.352  15.029  0.0621  0.2687 -0.2201
17609W        W35813  15.961   0.651  12.162  0.1663 -0.1275 -0.0658
17610W        W35814  17.032   1.653   1.812  0.1926 -0.0361  0.0718
17611W        W35815   2.539   8.969  11.664 -0.4989 -0.0702 -0.1189
17612W        W35816   6.310   2.746   4.005  0.0931 -0.0643  0.2290
17613W        W35817   7.723   3.268  13.441  0.1535  0.2446 -0.1768
17614W        W35818  13.097  14.983  13.966 -0.0351 -0.4327 -0.3614
17615W        W35819  13.358   8.364   6.149  0.0515  0.2134  0.2547
17616W        W35820  11.383   1.887  13.995  0.0184 -0.0438 -0.0588
17617W        W35821  13.977   4.946   2.892 -0.0543 -0.0163  0.2925
17618W        W35822  15.907   1.767   2.681  0.1107  0.0407  0.0387
17619W        W35823   2.253  13.177  12.728 -0.1553 -0.0388  0.0822
17620W        W35824  17.334  11.606  15.388  0.1791  0.0632  0.0181
17621W        W35825   6.620  14.713   2.658  0.2778  0.2825  0.0951
17622W        W35826  16.693   6.052  12.774  0.1268  0.2643  0.1224
17623W        W35827  15.253  16.439  12.405  0.0574 -0.0704  0.0295
17624W        W35828   0.324  10.513   2.379 -0.3040 -0.1668 -0.0741
17625W        W35829  10.931  14.323   4.505 -0.1001  0.0392  0.2932
17626W        W35830   6.933  15.412   2.974  0.1455  0.3256 -0.3272
17627W        W35831   3.405   4.844  14.313 -0.1138 -0.2872 -0.1630
17628W        W35832   5.136   9.478  14.039  0.0355  0.1962  0.0706
17629W        W35833  13.161   4.992  12.983 -0.0258  0.3485  0.0622
17630W        W35834   0.838   6.897  13.489 -0.2677 -0.0884  0.0070
17631W        W35835  17.439   8.525   5.781 -0.1625 -0.0812 -0.1282
17632W        W35836  15.478   2.795   0.774 -0.1958 -0.0564  0.0307
17633W        W35837   8.046   5.030  13.698  0.4964 -0.0881 -0.1813
17634W        W35838   3.803  11.165  12.037  0.1130  0.0420  0.0764
17635W        W35839  11.799   1.234  13.596 -0.1008 -0.0143  0.0313
17636W        W35840  11.643  11.774  15.342 -0.0390  0.0801 -0.0144
17637W        W35841  10.073  13.732  14.966  0.0747 -0.5345  0.2817
17638W        W35842  12.340   8.607   0.810  0.0913 -0.1348 -0.0474
17639W        W35843   7.810   7.017  10.758  0.3081 -0.0397 -0.0138
17640W        W35844   6.773  11.833  12.974  0.0063 -0.2141  0.1033
17641W        W35845  17.061  12.638   0.785 -0.0985 -0.0931  0.2591
17642W        W35846  16.231  11.726   0.476  0.1268 -0.4269 -0.5263
17643W        W35847   7.676  17.766  12.800 -0.1414 -0.1072  0.2812
17644W        W35848  12.401  15.230  11.684  0.0544 -0.0305 -0.1502
17645W        W35849   0.324  13.970  12.082 -0.0119  0.4110  0.1185
17646W        W35850  12.729   5.599  11.934  0.0435 -0.2075  0.1991
17647W        W35851  16.662  10.146   1.433 -0.2662 -0.2495  0.2561
17648W        W35852  12.621   9.937   2.179  0.2723 -0.0163 -0.0247
17649W        W35853  13.828  15.250   1.490  0.0228 -0.0816  0.1612
17650W        W35854   5.840  14.057   0.485  0.0051  0.0011  0.1499
17651W        W35855   5.724  17.693  12.542 -0.2750  0.1781  0.2843
17652W        W35856   2.281  13.992   1.314  0.0457 -0.1462 -0.2383
17653W        W35857  10.895   5.593  14.639  0.1237 -0.0377  0.2010
17654W        W35858   6.076  17.356  11.249  0.0198  0.1822  0.3020
17655W        W35859   7.229   9.820  14.911  0.0257 -0.1760  0.0497
17656W        W35860   1.163   0.748  14.084 -0.1653 -0.1226  0.1797
17657W        W35861  10.759   8.209   3.271  0.1518  0.0706  0.1460
17658W        W35862  14.172   1.371   4.196 -0.1676 -0.3951  0.2360
17659W        W35863   8.691  10.331   1.090 -0.1540 -0.1236  0.2028
17660W        W35864  10.510   8.368  12.534 -0.1398  0.0366  0.2096
17661W        W35865   4.422   3.492   2.441 -0.1117  0.0489  0.1317
17662W        W35866   9.082  10.119   1.387  0.1316  0.0575  0.0847
17663W        W35867  10.457   2.626  11.574 -0.0229 -0.1013  0.0860
17664W        W35868   0.814   0.901   2.614 -0.0681  0.0337 -0.1575
17665W        W35869  14.333  13.545   1.604  0.1707 -0.1329 -0.0481
17666W        W35870  10.939   4.987   0.387  0.0772 -0.1603 -0.1577
17667W        W35871  11.079   3.332  15.148  0.1361  0.3149 -0.0624
17668W        W35872  17.546   8.315  11.380  0.1235  0.1764 -0.0082
17669W        W35873   7.235  13.670  12.235 -0.3023  0.1256 -0.1592
17670W        W35874   8.516   1.521  11.281 -0.2287  0.2748 -0.0479
17671W        W35875  13.408   8.456   4.741 -0.0448 -0.1149 -0.0426
17672W        W35876  14.750   1.460   1.199 -0.2952 -0.2129  0.1213
17673W        W35877  14.404   3.861   4.665 -0.2325 -0.1045  0.2992
17674W        W35878   3.825   7.022   1.306 -0.1247  0.2337  0.2327
17675W        W35879  10.639  17.595  12.059  0.0015  0.2377  0.3904
17676W        W35880  14.061  14.076   1.257 -0.3796  0.0899 -0.1030
17677W        W35881  14.074  14.147  15.681  0.1091 -0.3579 -0.0705
17678W        W35882  15.048  17.817  12.488  0.2587 -0.2117  0.1639
17679W        W35883   2.411   6.261  14.014 -0.3491 -0.0582  0.1749
17680W        W35884   8.944   6.639  12.959  0.1994 -0.3365 -0.2431
17681W        W35885  14.049  17.434  14.470  0.0788  0.0195  0.0778
17682W        W35886   9.484  13.690  15.138 -0.0223  0.0415  0.0343
17683W        W35887  12.197  17.080   3.010 -0.2440 -0.0339  0.0474
17684W        W35888   8.625  10.916   0.153 -0.0205  0.0576 -0.1542
17685W        W35889  17.460   4.496  15.120  0.0614 -0.0095  0.0821
17686W        W35890   3.388   7.654  15.919 -0.1299  0.0504  0.2371
17687W        W35891  14.511  14.268   0.175  0.0553  0.4136  0.0145
17688W        W35892   3.060   7.298  12.200 -0.0774 -0.0319  0.0277
17689W        W35893  17.944  10.983  12.358 -0.1403 -0.2161  0.0610
17690W        W35894   8.992  16.984  16.027 -0.0470  0.0147  0.1519
17691W        W35895  10.566   7.762   4.160  0.2671 -0.0676 -0.1819
17692W        W35896   0.612  12.532   1.692 -0.1464 -0.1505 -0.1755
17693W        W35897  11.120   3.974   0.854  0.3181  0.0077 -0.2730
17694W        W35898  16.887  13.677  14.961  0.0840 -0.0927 -0.1495
17695W        W35899  14.282   1.604   1.711 -0.1283 -0.1670 -0.0149
17696W        W35900  13.059  14.506   1.828 -0.1563  0.3224 -0.0609
17697W        W35901  12.568  12.275  15.526 -0.0017  0.1881 -0.0029
17698W        W35902  16.645  10.654   4.041 -0.1590 -0.3640 -0.1320
17699W        W35903  13.178   1.750  11.422 -0.0255  0.3212 -0.3962
17700W        W35904   7.945  17.918  11.670 -0.0076 -0.0176 -0.0007
17701W        W35905  16.672   4.727   1.127 -0.2577  0.0697 -0.2105
17702W        W35906  17.229   2.055  14.492  0.1970  0.0954 -0.1159
17703W        W35907  13.741   2.448   1.248 -0.0697 -0.0954 -0.1004
17704W        W35908  16.207   9.385   1.597 -0.2987 -0.4715 -0.1923
17705W        W35909  13.847   2.981  15.194  0.2811 -0.2308  0.1034
17706W        W35910   3.594   2.552  14.214 -0.0257 -0.0741 -0.1869
17707W        W35911  17.166   0.036  15.086  0.1511 -0.0536 -0.1655
17708W        W35912   6.988   3.923   3.008  0.0305 -0.0663  0.1922
17709W        W35913  13.588   1.075   1.772 -0.0843  0.1144  0.2940
17710W        W35914  10.931   3.367   5.462  0.0190  0.0523 -0.1933
17711W        W35915  16.073   6.645  12.071  0.0016  0.1556 -0.0731
17712W        W35916   5.828  14.142   4.675  0.0900  0.2558  0.3831
17713W        W35917   7.095  10.598  14.625  0.2077  0.2978  0.1439
17714W        W35918   6.291   5.248   3.377 -0.1194 -0.0451  0.0698
17715W        W35919   8.970  11.269   2.326 -0.0002  0.0925 -0.0559
17716W        W35920   1.723   6.220   1.620  0.1376 -0.2097 -0.0151
17717W        W35921  17.056   0.810  14.467  0.0480  0.0550  0.1425
17718W        W35922   8.014   6.113  14.634 -0.0258 -0.2178  0.2249
17719W        W35923  10.385  17.847   0.650 -0.0414  0.2706  0.2155
17720W        W35924   4.752   5.515   1.073  0.0392 -0.0676  0.2311
17721W        W35925   9.471   8.876  13.144  0.3110  0.0130 -0.0495
17722W        W35926   9.614  17.743  15.127  0.0682  0.1788 -0.1006
17723W        W35927   7.122  15.845   4.642 -0.1941  0.0089 -0.3472
17724W        W35928   5.309   7.227   4.332  0.1213 -0.1291  0.0623
17725W        W35929  17.605  13.273   0.721 -0.1015  0.1189 -0.1232
17726W        W35930   2.473  17.236  11.707 -0.0297  0.0664  0.0176
17727W        W35931  11.373  16.737  14.227  0.0240  0.0578  0.2130
17728W        W35932  10.481   0.289   1.983  0.1313  0.1032 -0.1540
17729W        W35933   5.503  10.423   3.747 -0.0416  0.0673  0.1944
17730W        W35934  16.938  15.543  14.287 -0.2011  0.0655 -0.0074
17731W        W35935   5.663  17.165  11.597 -0.3361  0.0061 -0.1041
17732W        W35936  10.695   6.582   4.778 -0.1898  0.0412  0.2525
17733W        W35937  10.388  10.548   4.432 -0.0947  0.1091  0.1296
17734W        W35938   0.158   5.510  11.185  0.0498 -0.4908 -0.2041
17735W        W35939   9.703   5.621  10.301 -0.0424  0.1474  0.1290
17736W        W35940  18.034  16.716   3.971  0.2497  0.2434 -0.0642
17737W        W35941  11.671  15.035   1.697 -0.0906  0.2498  0.1315
17738W        W35942   0.782  17.179  13.081  0.1035 -0.0505  0.0120
17739W        W35943  11.708   9.631  15.480  0.1373 -0.1938 -0.3063
17740W        W35944   5.322   9.969  14.853 -0.0213 -0.0411 -0.3854
17741W        W35945  12.878   4.607  13.012  0.1111 -0.4740 -0.0345
17742W        W35946  15.789   6.677  11.604 -0.1155 -0.0343 -0.2078
17743W        W35947   6.933   0.125   2.264 -0.0271  0.0646 -0.3899
17744W        W35948  11.479   1.996   2.864  0.1501  0.0086  0.2770
17745W        W35949  12.202  10.318  12.667 -0.1337 -0.2540 -0.0997
17746W        W35950   6.124  13.222   4.813  0.0966  0.0255 -0.0155
17747W        W35951   6.264   9.950   4.167 -0.1701  0.0412 -0.3319
17748W        W35952   3.349   2.969  15.365  0.1258 -0.3622  0.0176
17749W        W35953  13.353  16.367   4.522  0.0307 -0.0360 -0.1129
17750W        W35954   8.253   6.014  14.192  0.2311 -0.1213  0.0821
17751W        W35955  13.935  14.269  15.173 -0.0628 -0.0513  0.2211
17752W        W35956  14.887  14.220  14.289  0.0594  0.0617  0.0444
17753W        W35957  10.781  18.041   2.193 -0.1686 -0.0107 -0.2469
17754W        W35958   9.278   5.356   0.559 -0.1239 -0.0033  0.0771
17755W        W35959  11.444   1.083   0.107  0.1867  0.3504  0.2298
17756W        W35960   1.149   0.275  13.833  0.0676  0.0826  0.1942
17757W        W35961   3.019   2.437  11.768 -0.0470 -0.1746 -0.1230
17758W        W35962  17.899   3.855  15.914 -0.0903  0.3129 -0.3135
17759W        W35963   2.664   1.601   3.674  0.2392 -0.3801 -0.1417
17760W        W35964  13.066  15.375   0.305 -0.2009  0.0900  0.0317
17761W        W35965   8.460   1.920  16.020 -0.0982 -0.0154  0.2711
17762W        W35966  12.124  17.170  13.387 -0.2475  0.0418 -0.4139
17763W        W35967  17.853  11.593   0.380 -0.2845  0.1199 -0.1080
17764W        W35968   3.041  14.996  11.319  0.0465 -0.0917 -0.0897
17765W        W35969  10.480   8.831  16.069 -0.0330  0.0996  0.1145
17766W        W35970  11.741   1.581   5.221  0.3035  0.0371  0.1983
17767W        W35971   9.389   5.002  12.695 -0.1734 -0.1739  0.1999
17768W        W35972   4.791   3.932   0.906 -0.0478  0.0023 -0.0981
17769W        W35973  15.011   7.558   1.375  0.0260  0.1473  0.2461
17770W        W35974  13.341   6.800  15.733  0.3217 -0.0260  0.1061
17771W        W35975   9.622  12.202  12.798 -0.2766 -0.0478 -0.2050
17772W        W35976  15.599   9.607   0.205 -0.1626  0.0320  0.1243
17773W        W35977   4.300   8.681   0.865 -0.3030 -0.0905 -0.0256
17774W        W35978   1.578   9.227  12.079 -0.0722 -0.0042  0.1430
17775W        W35979  11.668   7.326   5.229  0.0275 -0.0089  0.0310
17776W        W35980  15.339   7.048  13.133 -0.0505  0.1839  0.0085
17777W        W35981  13.951  10.658  12.894  0.0993 -0.0667 -0.0723
17778W        W35982  11.022  16.259  11.263  0.1232 -0.0927 -0.3295
17779W        W35983   4.760   4.970  12.404  0.1341  0.0444 -0.1426
17780W        W35984  14.598  15.219  13.509 -0.4108  0.0132 -0.4954
17781W        W35985   2.080   5.446   1.522 -0.0555  0.4370 -0.0622
17782W        W35986   6.890   5.512  11.959 -0.2101  0.0743  0.2102
17783W        W35987  16.554   6.123   5.079 -0.1801 -0.1155  0.0805
17784W        W35988   7.189   5.357  13.865  0.1292  0.1751 -0.1576
17785W        W35989   0.838  14.528   0.100  0.1729 -0.3855 -0.1322
17786W        W35990  16.014  17.530  13.851  0.2881  0.0152 -0.0622
17787W        W35991   0.140  10.805   3.762 -0.1594 -0.1473  0.1136
17788W        W35992   9.284   4.205  13.150 -0.0697  0.1125  0.1100
17789W        W35993   1.654  15.902   0.343 -0.1193  0.0706 -0.0072
17790W        W35994   4.242   3.216  14.341  0.0386 -0.1830  0.1784
17791W        W35995   2.680  16.758  14.627  0.2458  0.0084  0.2802
17792W        W35996  13.832   2.736   4.170 -0.0254 -0.0414 -0.0247
17793W        W35997  12.195   2.821  14.683  0.0711 -0.2657  0.1345
17794W        W35998  17.503   9.153   3.022  0.1593  0.1776  0.1409
17795W        W35999   2.813   2.001  11.530  0.2902  0.1206 -0.0499
17796W        W36000  12.969   7.810  14.800  0.2525 -0.0291  0.0194
17797W        W36001  10.912  11.947  11.567 -0.2049  0.1006  0.0944
17798W        W36002   8.753  12.494  11.553 -0.3756 -0.1033 -0.1856
17799W        W36003   0.339   6.732   5.057 -0.0502  0.0377 -0.3673
17800W        W36004   9.511   9.134  12.011 -0.0459 -0.0032  0.1667
17801W        W36005  10.274   7.854   1.895 -0.1443  0.2301  0.0809
17802W        W36006  11.136  11.781   4.273 -0.0645  0.2694 -0.0301
17803W        W36007   8.372   7.901   2.378  0.2377  0.0169  0.0567
17804W        W36008   5.274   0.296   0.978  0.0235 -0.1226 -0.1693
17805W        W36009  10.184   2.258  11.833  0.0995 -0.1564  0.1563
17806W        W36010  17.507   7.984  14.325  0.3014 -0.0469  0.0844
17807W        W36011   1.151  14.851  11.209 -0.0664  0.2145 -0.0885
17808W        W36012  13.800  14.325   2.178 -0.0057  0.3114  0.1069
17809W        W36013  15.755   2.177   2.906 -0.2548 -0.1317  0.1594
17810W        W36014  16.896   6.282   2.451  0.4840  0.2620 -0.2097
17811W        W36015   0.499  11.720   4.841 -0.1709 -0.1674  0.1257
17812W        W36016  16.048   3.210   4.825  0.0842  0.0977 -0.3192
17813W        W36017   4.608  12.534   5.014  0.2726 -0.2370  0.2442
17814W        W36018  14.888  12.063   2.603 -0.1377  0.2605  0.0424
17815W        W36019   2.487   3.098  12.528  0.1626  0.2486  0.0439
17816W        W36020   6.441  13.956  14.498 -0.1688  0.0754  0.1864
17817W        W36021  10.339   3.937  10.532 -0.0504 -0.5182 -0.2876
17818W        W36022   7.484   2.418   2.046 -0.1537  0.2497 -0.1353
17819W        W36023   7.975  12.417  14.598 -0.2183 -0.2410  0.0637
17820W        W36024  10.868   9.756   6.275  0.1376  0.2259 -0.0176
17821W        W36025   1.252   6.057   2.437  0.0495  0.3128 -0.0631
17822W        W36026  12.371   3.021   1.544 -0.0792  0.0451  0.2504
17823W        W36027  12.210   1.182  13.930 -0.1718 -0.2425  0.0558
17824W        W36028  15.257   9.266  15.601 -0.0127 -0.0607  0.1987
17825W        W36029  13.154  12.472  14.156  0.0630  0.1278  0.0689
17826W        W36030   5.570   2.127  13.186  0.3019 -0.4490 -0.0685
17827W        W36031  14.804   5.191  12.577 -0.1802  0.0604 -0.0279
17828W        W36032  15.826   5.188  14.100 -0.1075  0.1195 -0.1141
17829W        W36033   2.139   4.005   1.144  0.2777  0.0725 -0.1835
17830W        W36034  15.233   3.844  15.673 -0.3424 -0.2371 -0.2384
17831W        W36035   1.897  12.645   1.119  0.4406  0.0950 -0.0204
17832W        W36036  14.626  16.522   3.800  0.0746 -0.1794 -0.1631
17833W        W36037   8.684   2.996  14.070  0.0292  0.0641  0.0682
17834W        W36038   1.285   5.343   1.022  0.1110 -0.1028  0.1395
17835W        W36039   4.212  11.737  15.238  0.1926 -0.0667 -0.1371
17836W        W36040  14.679  12.318   3.945 -0.0608  0.0038  0.1571
17837W        W36041  15.055  11.489  13.499 -0.0165 -0.1045 -0.0809
17838W        W36042  13.020   1.036   1.987 -0.0970  0.0647  0.1288
17839W        W36043   1.358   4.571  13.355 -0.0332 -0.1138  0.0398
17840W        W36044  11.042  10.522  12.092  0.2913 -0.0114 -0.0526
17841W        W36045   3.019  15.039   3.900  0.0675  0.0453 -0.2086
17842W        W36046   0.631   9.474   0.698  0.0389 -0.1615 -0.0016
17843W        W36047  10.065   8.319  11.665 -0.1701  0.2116 -0.0586
17844W        W36048   5.915  10.902   0.218  0.0198  0.1590 -0.1019
17845W        W36049   9.216   2.604  12.461 -0.3055  0.0421 -0.1115
17846W        W36050   6.837  10.687   4.235  0.0857 -0.0729 -0.2582
17847W        W36051   8.368   2.854  12.638  0.0479 -0.0384 -0.0545
17848W        W36052   0.729   5.812  15.481  0.0732  0.0681 -0.0011
17849W        W36053   4.061   9.701  14.900  0.0470  0.0735 -0.1705
17850W        W36054  14.804   4.773  13.750  0.1887  0.0062 -0.0928
17851W        W36055   1.227  14.451   4.383  0.0920 -0.0007  0.1885
17852W        W36056  17.912   9.079   0.212  0.0946  0.0171 -0.0081
17853W        W36057   0.433  14.868   0.223  0.2136  0.0101  0.0574
17854W        W36058  12.802  11.899   0.326 -0.0638  0.0714 -0.0901
17855W        W36059   2.052   9.346  14.974  0.3320  0.0704  0.2351
17856W        W36060  13.672  10.328  13.174 -0.0113  0.3228 -0.1337
17857W        W36061   0.407   9.258   1.581  0.1174  0.0365 -0.2819
17858W        W36062   6.015   9.488   4.924 -0.0574  0.0579 -0.0724
17859W        W36063   5.984  16.731   1.608 -0.1560 -0.0453  0.1272
17860W        W36064   8.665  15.587  14.614 -0.0170 -0.2147  0.2751
17861W        W36065  12.845  17.817  12.971  0.1595  0.0231  0.0443
17862W        W36066   6.712  14.981   1.100 -0.0080  0.0610 -0.1704
17863W        W36067   9.117   6.060  10.875  0.2290 -0.0781 -0.0646
17864W        W36068  12.136   4.777  14.532 -0.0111 -0.1610 -0.0534
17865W        W36069   3.247  14.853   2.314  0.2378 -0.3487 -0.0367
17866W        W36070   9.443   4.897  15.319  0.2370  0.0888 -0.3970
17867W        W36071   8.336  17.395   2.399  0.2232  0.0206 -0.2256
17868W        W36072  13.953   9.675   2.047 -0.0772 -0.4151  0.1693
17869W        W36073  13.094   2.200  11.967  0.3162 -0.1520 -0.2148
17870W        W36074   1.354  10.434   5.856  0.0439 -0.0783  0.2427
17871W        W36075  13.178   9.414  11.904 -0.0857 -0.0409  0.0859
17872W        W36076  11.682  11.149   1.369  0.2453  0.0286 -0.1060
17873W        W36077   1.698  15.906  13.143  0.1677  0.1495 -0.1183
17874W        W36078   1.789   8.910  15.637  0.2385 -0.2564 -0.1390
17875W        W36079  14.516  14.682  11.743 -0.1611 -0.1110 -0.2840
17876W        W36080  11.767  13.572  15.920 -0.0365  0.0581  0.2652
17877W        W36081   3.041  17.626   4.675 -0.0144 -0.0819 -0.1724
17878W        W36082   5.699   2.445  14.107  0.1193  0.1314 -0.1411
17879W        W36083   4.432   8.417   2.571 -0.0762 -0.1119 -0.1975
17880W        W36084  13.515   7.972   4.834 -0.0201 -0.0602  0.0822
17881W        W36085   0.551  16.056  13.856  0.0249  0.2015  0.0910
17882W        W36086  15.862   8.790  12.621 -0.0133 -0.2117  0.0551
17883W        W36087   9.379   0.979  12.109 -0.0535 -0.1282  0.0794
17884W        W36088   2.259   5.087  13.912  0.0172  0.2223 -0.0650
17885W        W36089   4.636  13.179   0.791 -0.0493  0.3749 -0.1485
17886W        W36090   1.148   8.180  13.081 -0.0022  0.3544  0.1591
17887W        W36091   3.532   5.581  11.549 -0.1068 -0.2134 -0.1463
17888W        W36092   7.940  10.662  11.802 -0.2473 -0.2612 -0.2634
17889W        W36093  15.151  10.018   3.051  0.0321 -0.0368  0.0359
17890W        W36094   2.188   5.470   4.847 -0.2008 -0.0602  0.3913
17891W        W36095   8.410   8.327  12.213 -0.2902 -0.0866 -0.0106
17892W        W36096   1.313   2.116  13.841  0.1594  0.0714  0.0277
17893W        W36097  12.826   1.926  12.385 -0.2565  0.0786 -0.0273
17894W        W36098   1.551   5.019   0.763  0.3391  0.1412 -0.5124
17895W        W36099   9.557   3.013   1.318  0.0623 -0.0580 -0.3476
17896W        W36100   1.727   4.501  14.259  0.2089 -0.0025 -0.1659
17897W        W36101   1.306  17.002  15.829  0.2578 -0.1550  0.1210
17898W        W36102   3.000  17.686  13.550  0.0159  0.1246  0.1625
17899W        W36103   2.764   6.309   0.793  0.1089  0.0652  0.1840
17900W        W36104  17.284   5.918   0.605 -0.4615 -0.0113 -0.0957
17901W        W36105   0.723  15.865   2.590 -0.2254  0.1898 -0.2278
17902W        W36106  15.352   1.787  11.654 -0.4819  0.0455  0.0228
17903W        W36107   8.464  11.491   0.563  0.0927  0.1180  0.1465
17904W        W36108   5.089  10.168   1.380 -0.1833 -0.1554  0.0215
17905W        W36109  13.538   4.275  15.578  0.0927 -0.1611  0.2605
17906W        W36110  11.259   8.879   5.532  0.3050 -0.1300 -0.2131
17907W        W36111  13.135   6.092   3.184 -0.1749  0.0980  0.0648
17908W        W36112   1.571  10.157  12.736  0.0467 -0.0813 -0.2447
17909W        W36113   5.433  15.792  13.185 -0.2400 -0.0826 -0.2354
17910W        W36114  13.036   5.657   1.378  0.0442 -0.1485  0.0260
17911W        W36115   3.717  11.737  15.948  0.1032  0.0536  0.0501
17912W        W36116   9.201  15.700   4.369 -0.1139  0.0328 -0.1604
17913W        W36117   0.121   5.119   5.114 -0.0545  0.1824  0.0343
17914W        W36118   5.389   4.775   4.180  0.1055 -0.0955  0.2016
17915W        W36119  10.770  14.982  13.392  0.1483  0.3481 -0.0657
17916W        W36120   7.039  11.974   0.536 -0.1144  0.1884 -0.1432
17917W        W36121  16.649   7.632  13.415 -0.0856  0.0070  0.3116
17918W        W36122   9.459  14.976  14.483  0.1354 -0.0524  0.0291
17919W        W36123   4.805   2.947  12.806 -0.0878  0.1421 -0.1069
17920W        W36124   7.946   7.219  11.391 -0.1862 -0.0836  0.1787
17921W        W36125   2.218   9.227  13.980  0.0457  0.1766 -0.0122
17922W        W36126  10.372   3.859  12.003  0.0374 -0.0553  0.0246
17923W        W36127   7.749  13.469   2.587 -0.2277  0.1625  0.0251
17924W        W36128  11.545  11.552   1.100  0.0907  0.0899  0.1091
17925W        W36129  10.013   6.206  14.532 -0.2214  0.1626  0.1782
17926W        W36130  15.076  14.864  11.232  0.1837 -0.0191 -0.1073
17927W        W36131   6.488   0.029   1.911  0.0750  0.1015 -0.1177
17928W        W36132  16.163   5.143   2.378  0.1106  0.0667  0.1744
17929W        W36133   4.578   9.566   4.468 -0.1271  0.0894 -0.0519
17930W        W36134   6.694   4.842   1.824 -0.0216  0.1202 -0.3795
17931W        W36135  13.222  12.217   2.059 -0.0082 -0.1666 -0.0578
17932W        W36136   8.537   7.747  12.452  0.0306 -0.0352 -0.0140
17933W        W36137   9.960  11.802   4.403 -0.1353  0.0254  0.0209
17934W        W36138   6.155   4.022   0.266  0.3138 -0.1465  0.1856
17935W        W36139   0.066  16.930  13.997  0.0466 -0.1969 -0.1887
17936W        W36140   8.479   3.828  12.321  0.2552 -0.0294 -0.2612
17937W        W36141   2.565  10.612  14.271 -0.0042 -0.2179  0.2743
17938W        W36142   9.957   2.322   0.713  0.1947  0.0976 -0.1544
17939W        W36143  15.089  15.609  16.104  0.0622 -0.1130  0.3565
17940W        W36144  14.595   9.081   1.261 -0.0462 -0.2611  0.2643
17941W        W36145   0.001  13.259  13.326  0.0715 -0.3091  0.2866
17942W        W36146   8.254   9.427  13.056 -0.0087  0.0708 -0.0336
17943W        W36147   3.401   8.802  12.870 -0.0370 -0.3107 -0.0339
17944W        W36148   9.544  14.093   0.363 -0.1106 -0.0684  0.0074
17945W        W36149  12.020   6.459   3.585 -0.0362 -0.0307  0.0139
17946W        W36150  10.817  10.352   4.793 -0.0095  0.1393  0.0713
17947W        W36151  11.244   1.372  11.447  0.0440 -0.0685 -0.2947
17948W        W36152   3.652   0.242  14.154 -0.1647 -0.0299 -0.1294
17949W        W36153  15.891   6.190  11.685  0.0571  0.1639 -0.0636
17950W        W36154   6.393  17.603   0.649 -0.1820  0.1789  0.0565
17951W        W36155   3.923   8.807  12.982 -0.4492 -0.0393  0.1049
17952W        W36156   9.142   3.024  14.478 -0.1966  0.0846  0.2740
17953W        W36157  17.742   5.237  16.106  0.0830  0.3601 -0.0916
17954W        W36158   7.644  11.857  11.677 -0.2924 -0.1589 -0.2543
17955W        W36159   3.071  12.113   1.571  0.0812 -0.1971 -0.2680
17956W        W36160  14.505  11.357  15.766  0.1792  0.0900  0.0120
17957W        W36161  16.436   0.302  15.773  0.1079  0.3832  0.3186
17958W        W36162  17.253  12.081  15.451  0.0666  0.0379  0.0675
17959W        W36163   2.267  11.499   1.720 -0.0015  0.1333  0.0867
17960W        W36164   6.660   5.035  13.432 -0.1360  0.0752  0.2550
17961W        W36165  11.208   5.454   0.412  0.2241  0.0021 -0.2023
17962W        W36166   6.482   1.289   4.027 -0.0567 -0.0037 -0.0412
17963W        W36167  17.548   1.720   2.496  0.1719  0.0968  0.2725
17964W        W36168   8.349   2.700   1.558  0.0021  0.1275  0.0798
17965W        W36169  16.836   7.208  16.172 -0.1744 -0.3902 -0.0894
17966W        W36170   0.842  10.297   3.714 -0.2424  0.1157 -0.1305
17967W        W36171   3.516  17.761  13.512  0.2260  0.0105 -0.2187
17968W        W36172   1.332  16.164  11.357 -0.1671  0.1087 -0.3744
17969W        W36173  16.684   4.541   2.824  0.1432  0.0337  0.2341
17970W        W36174  16.901   2.874  12.145  0.0360  0.0214  0.1494
17971W        W36175   4.257   0.095   4.798  0.2523 -0.4621  0.1447
17972W        W36176  12.049   7.561  12.631  0.0233 -0.2049  0.1704
17973W        W36177   9.200  15.763   2.899 -0.0881 -0.1449 -0.0213
17974W        W36178   2.592   2.515  12.071 -0.0320  0.2242 -0.0844
17975W        W36179  14.139  14.513   0.429 -0.0774  0.0699  0.1182
17976W        W36180   9.680   1.468  12.977 -0.2682 -0.0640 -0.0816
17977W        W36181  13.515   8.925  16.014  0.1399 -0.2373 -0.1438
17978W        W36182  15.368  10.688  11.539  0.3276 -0.0357  0.2618
17979W        W36183  11.087   0.581   2.808 -0.0964 -0.1375  0.0308
17980W        W36184   9.989   1.884   1.883  0.2420 -0.1323 -0.1156
17981W        W36185  12.866   0.547  13.961 -0.0184 -0.0173 -0.1072
17982W        W36186  14.931  11.677   0.213 -0.2559  0.1450  0.0195
17983W        W36187  16.376  14.210  14.513  0.3465  0.0497 -0.1620
17984W        W36188  12.931   6.899   1.166 -0.0584 -0.0012 -0.2778
17985W        W36189  13.276  15.125  12.675 -0.0655  0.3907 -0.0465
17986W        W36190  15.875   9.473   1.219  0.2164 -0.1162  0.0022
17987W        W36191  13.974  16.202  10.277 -0.1355 -0.0390 -0.0638
17988W        W36192  13.844  14.700   4.049  0.2172 -0.1048  0.1800
17989W        W36193  18.022   5.504   0.783 -0.0173  0.0862 -0.1541
17990W        W36194   2.928   1.157  13.916 -0.1310  0.0858 -0.3761
17991W        W36195   4.062   6.665   0.981 -0.1761 -0.1941  0.2635
17992W        W36196   3.091   2.984   3.892 -0.3057  0.1070 -0.0534
17993W        W36197  15.300   6.080  13.893 -0.0417 -0.2827  0.2600
17994W        W36198  17.604  17.252  14.014  0.1287 -0.2572  0.0636
17995W        W36199   0.773   2.057  13.685  0.1365 -0.1004 -0.1517
17996W        W36200  17.696   0.222   1.009 -0.0467 -0.3796 -0.3832
17997W        W36201   1.468   1.151   4.607  0.0461  0.2285 -0.1821
17998W        W36202   8.123  11.165   1.468  0.0150  0.0101  0.1493
17999W        W36203  14.006  11.517  13.971  0.0545  0.1575  0.0171
18000W        W36204   0.250   0.278  14.033  0.1106  0.0080  0.0297
18001W        W36205  16.869  17.230  16.028  0.0263  0.0106  0.1080
18002W        W36206  12.690  12.826  14.171  0.0545  0.0067  0.1912
18003W        W36207   2.487   7.968   2.023  0.0247  0.2595  0.1259
18004W        W36208  13.351  11.961  11.763 -0.1808  0.1733 -0.2478
18005W        W36209   9.723   8.045  14.474  0.1049  0.3128  0.2488
18006W        W36210  15.621  12.811  15.726 -0.0689 -0.2292 -0.0308
18007W        W36211   7.011   8.951   3.014  0.0166  0.5169  0.1198
18008W        W36212  15.900   4.947   4.324 -0.0987 -0.0086  0.0634
18009W        W36213  10.009  14.943   4.809  0.0132  0.0140 -0.1264
18010W        W36214   8.645   6.532   5.324 -0.0244 -0.1438  0.0229
18011W        W36215   2.992   4.629   0.101 -0.0366  0.2660 -0.2267
18012W        W36216   3.665   5.737   4.880 -0.1769  0.0404 -0.4248
18013W        W36217  16.268   9.091   1.166 -0.1051 -0.0767  0.1898
18014W        W36218  15.922   9.514   4.647 -0.1862 -0.0473 -0.1446
18015W        W36219  15.232   0.429  13.927  0.0806  0.2355  0.1051
18016W        W36220   6.637   8.545  15.049 -0.1330 -0.3454 -0.4523
18017W        W36221   0.767   9.939  12.838 -0.0420  0.1822  0.2038
18018W        W36222   2.576   4.286   0.327  0.0528  0.0459 -0.0802
18019W        W36223  11.489   0.121  12.173 -0.1465  0.0036  0.2866
18020W        W36224   8.959  15.053  13.514  0.0167 -0.1431  0.1486
18021W        W36225   5.490   3.311   3.962  0.2824 -0.0920 -0.0843
18022W        W36226   6.104   9.395  15.468 -0.1031 -0.2178 -0.1201
18023W        W36227   6.509   0.797   2.705  0.0230  0.0130 -0.1844
18024W        W36228  12.143   8.678  15.050 -0.0781  0.1511 -0.3322
18025W        W36229   7.472  14.173  11.533  0.2779  0.0400 -0.0521
18026W        W36230  17.840  15.070   1.356 -0.0504 -0.1791 -0.0356
18027W        W36231  16.130  12.596   3.490  0.1773 -0.0374  0.1531
18028W        W36232  15.931  12.468  13.614  0.0879 -0.4139  0.2385
18029W        W36233  17.625   7.469   2.399 -0.2078  0.0872  0.1502
18030W        W36234  14.966   5.483  11.931 -0.0082 -0.3075 -0.0657
18031W        W36235   3.052   4.192   0.316  0.3928 -0.0163 -0.3587
18032W        W36236  13.395   2.013   3.928 -0.0704  0.3935  0.0737
18033W        W36237   4.275  14.595  13.502  0.0690 -0.1567 -0.0452
18034W        W36238  15.276   2.371   4.981  0.0109  0.2166  0.3023
18035W        W36239   0.463  13.104  13.651  0.1634  0.1558  0.0143
18036W        W36240   0.642  14.586  14.297 -0.4032  0.1859 -0.3024
18037W        W36241   4.833   0.694  14.721  0.0307 -0.1773  0.2202
18038W        W36242   4.984   3.101   0.618  0.0286 -0.1196  0.1236
18039W        W36243   5.562   9.775   4.789  0.0658 -0.0822  0.0669
18040W        W36244   7.964   2.105  14.222 -0.1151 -0.1463 -0.0685
18041W        W36245  17.187   4.048  11.504  0.2709 -0.0011 -0.1569
18042W        W36246  10.160   3.602   3.640  0.2994 -0.0541  0.2462
18043W        W36247  15.233   6.700   1.238 -0.1085  0.2773  0.1509
18044W        W36248  17.473   3.149   0.138  0.1438 -0.1634  0.2070
18045W        W36249  17.175   0.721   3.825  0.0139  0.1428  0.2068
18046W        W36250   5.340   7.990   6.224 -0.2617 -0.0883  0.3011
18047W        W36251  14.502   5.933   1.591  0.0329 -0.1699 -0.1361
18048W        W36252  16.443  16.235  10.455  0.0861 -0.2546  0.2438
18049W        W36253  16.144   7.833  12.455 -0.0287 -0.2221  0.0187
18050W        W36254  11.249   3.010  15.608 -0.1583 -0.0136  0.0741
18051W        W36255   5.354   1.813  15.939  0.1896 -0.0075 -0.1920
18052W        W36256  10.986  10.260  12.693 -0.0396 -0.3035 -0.0992
18053W        W36257  13.855  10.383   1.534  0.1141  0.1793  0.0251
18054W        W36258   1.068   8.097   4.129  0.2373  0.1197  0.0295
18055W        W36259   1.712   5.986  13.402  0.0559 -0.1092  0.1422
18056W        W36260   5.207  10.321   3.132  0.2573  0.1559 -0.0176
18057W        W36261   5.198   3.269  13.103 -0.0383 -0.2558  0.0581
18058W        W36262   9.125   0.528   4.161 -0.0847 -0.1970 -0.3391
18059W        W36263   1.145   9.272  13.573 -0.1326 -0.1278  0.0820
18060W        W36264   9.949   6.973  13.199 -0.2033  0.0952 -0.0591
18061W        W36265   2.271  12.095  14.865  0.0968  0.0306  0.0709
18062W        W36266  15.343  11.855  12.467 -0.0759  0.1867 -0.0856
18063W        W36267  13.800  14.067  14.383  0.4880  0.1443  0.1545
18064W        W36268   4.819  11.586  11.476 -0.0540  0.0838  0.1995
18065W        W36269   6.983   8.149   0.199 -0.0955 -0.2585  0.1316
18066W        W36270  14.981   6.989  14.122 -0.2416 -0.1909  0.0286
18067W        W36271   8.579   6.267   2.839  0.2419 -0.1159 -0.1298
18068W        W36272   7.088   3.312   3.140 -0.1587 -0.0464  0.1327
18069W        W36273   4.039   9.566   4.208 -0.1358 -0.2088 -0.0640
18070W        W36274  13.978  17.250  15.362  0.4487 -0.2026 -0.0385
18071W        W36275   4.067   2.574   3.567 -0.2549  0.2987  0.1230
18072W        W36276  10.494   9.122   1.446  0.1752 -0.0830  0.0539
18073W        W36277   3.393   9.128  15.593  0.1543  0.1168  0.0347
18074W        W36278   4.598   8.330  13.358 -0.0019 -0.2233 -0.0181
18075W        W36279   1.905   9.400   1.576 -0.0617  0.0218 -0.1090
18076W        W36280   9.652   6.193  11.116  0.1829  0.2028 -0.0940
18077W        W36281   0.913   3.705  11.257  0.4971 -0.2784 -0.0665
18078W        W36282  15.411  10.219  14.541 -0.3427  0.2521 -0.0622
18079W        W36283   9.765   6.707   3.777 -0.0709 -0.0289 -0.0512
18080W        W36284  14.929  17.804   0.567  0.0697 -0.0086  0.0979
18081W        W36285   2.490  15.856  11.176 -0.0002 -0.0974 -0.2714
18082W        W36286  15.924   1.288   3.179 -0.1719  0.0535 -0.0466
18083W        W36287   0.445   6.460  14.126 -0.0280  0.0758 -0.1468
18084W        W36288  10.805   9.223  15.256  0.1939  0.0145  0.0342
18085W        W36289   1.580   4.722   1.172 -0.0234 -0.1057  0.1041
18086W        W36290   6.015   1.065  14.164  0.4016  0.0351  0.2441
18087W        W36291  14.643   8.169   0.364 -0.3635  0.0274  0.1867
18088W        W36292   6.689  12.845  15.589 -0.0179  0.3332  0.0316
18089W        W36293  11.525  17.025   1.291  0.0405  0.2948  0.1222
18090W        W36294   7.460  14.050   1.940  0.1101  0.2078 -0.0867
18091W        W36295   7.580  12.956  13.969 -0.1320 -0.2536  0.2821
18092W        W36296   6.495  10.333   1.599  0.0498 -0.2274  0.1163
18093W        W36297  14.214   0.988   1.109 -0.0368 -0.2201  0.1626
18094W        W36298  13.348  16.755   4.221 -0.2280 -0.0030 -0.2778
18095W        W36299   4.341   6.450   1.784 -0.2929 -0.0877 -0.1984
18096W        W36300   5.731   6.942   3.037 -0.1296 -0.0723  0.1136
18097W        W36301   2.245   4.114   2.534  0.3124  0.1578 -0.1455
18098W        W36302   9.122   8.442   2.846 -0.1687 -0.1390 -0.1069
18099W        W36303   7.709   4.736   5.916  0.3586 -0.3017 -0.1509
18100W        W36304   3.422  14.670  15.539 -0.1148 -0.1635 -0.2194
18101W        W36305  17.641   4.721   3.726 -0.0846  0.0158  0.2480
18102W        W36306   0.198   5.626  15.204  0.1841 -0.2358  0.2008
18103W        W36307  12.109  16.289  13.039 -0.0640  0.0453 -0.1729
18104W        W36308   9.852  12.347   0.384  0.1541  0.3447 -0.0391
18105W        W36309   3.894  10.355   0.593 -0.0788 -0.0087 -0.0466
18106W        W36310  11.059  15.722   3.318 -0.0089  0.0647  0.2155
18107W        W36311   8.529   6.830   2.950 -0.0095  0.0032  0.1595
18108W        W36312  13.366  17.756   5.185 -0.0200  0.1305  0.5233
18109W        W36313  11.744   2.162   1.138 -0.1170 -0.0424 -0.0044
18110W        W36314   4.000   8.591  12.044  0.0233 -0.1661  0.1087
18111W        W36315   9.447   4.711  12.247  0.0465  0.0591 -0.0058
18112W        W36316   3.887  16.054   2.364 -0.0890 -0.1891 -0.1309
18113W        W36317   0.006   2.516   1.601  0.0178 -0.1621 -0.0873
18114W        W36318   1.290  14.825   0.070 -0.2581 -0.0811 -0.1120
18115W        W36319  15.834   5.696   0.569 -0.0003 -0.2386 -0.0919
18116W        W36320  11.872  13.236   0.742 -0.1249 -0.2154 -0.1310
18117W        W36321   2.245  10.752   1.021 -0.2411 -0.1102  0.1918
18118W        W36322   2.138   0.310   3.581 -0.1423  0.1835  0.0317
18119W        W36323   1.604   0.774   1.984  0.0469 -0.2284 -0.0473
18120W        W36324  16.953  10.573  14.596 -0.1544  0.0163  0.0325
18121W        W36325   5.151  12.529   0.662  0.2829 -0.0800 -0.1930
18122W        W36326   5.399  11.255  15.588 -0.2499 -0.1009 -0.2199
18123W        W36327   8.118  13.392   4.136 -0.0840 -0.1680 -0.2071
18124W        W36328  14.661   0.458  14.626  0.1444  0.1674  0.0514
18125W        W36329   1.792  10.849  16.065 -0.1505 -0.0304  0.1910
18126W        W36330  14.102  14.142   2.953 -0.0803 -0.2755  0.1372
18127W        W36331  15.177   7.558  11.760 -0.0104  0.1891  0.1891
18128W        W36332  14.947  17.543   1.571  0.2315 -0.0040  0.2673
18129W        W36333  14.372   1.249  11.859 -0.2280 -0.0122  0.1727
18130W        W36334   0.938  12.018  11.956  0.0232 -0.2169 -0.0523
18131W        W36335   6.521   4.509  14.453 -0.0947  0.4030 -0.2578
18132W        W36336  12.448   8.155  11.692  0.0045 -0.2970  0.0197
18133W        W36337   4.332  11.557  14.811 -0.0018  0.1939  0.0814
18134W        W36338  14.143   0.490   2.812  0.2310  0.1628 -0.1143
18135W        W36339  15.981   6.781  14.640  0.0048  0.1891 -0.0418
18136W        W36340   0.464   0.612  14.445  0.0049 -0.1573 -0.2186
18137W        W36341   7.160   8.520   1.803  0.0116 -0.0733  0.1871
18138W        W36342   9.395  11.845   5.420  0.0902  0.2855 -0.1112
18139W        W36343   7.510  11.811   4.323  0.2778 -0.0222  0.1622
18140W        W36344   8.456   9.507  13.827  0.1912 -0.2782 -0.4107
18141W        W36345  16.879  10.910  15.768 -0.1903 -0.0815  0.0558
18142W        W36346  11.175   0.875  11.424  0.1442  0.0771 -0.1434
18143W        W36347  12.229   8.076   1.702  0.2739  0.1012 -0.0700
18144W        W36348   3.526  15.023   3.987 -0.1498  0.0136  0.1694
18145W        W36349   6.650   4.055   1.682  0.2391  0.0890  0.2839
18146W        W36350   2.039  16.242  13.459  0.0517 -0.2905  0.5003
18147W        W36351   5.445  12.366   1.288 -0.1404 -0.0820  0.1169
18148W        W36352  14.236  14.541   1.987  0.0353  0.2846  0.0708
18149W        W36353   6.993   4.704  14.045 -0.0293 -0.1377  0.0780
18150W        W36354   3.693   3.285  15.567  0.0010 -0.2846  0.2266
18151W        W36355  10.905  11.583   0.843  0.3141 -0.0659  0.0023
18152W        W36356  10.295   8.257   5.223  0.0304  0.1631  0.0253
18153W        W36357   4.822  17.975   2.257  0.0314 -0.0415  0.3408
18154W        W36358  13.892  14.569   2.656  0.1092 -0.0185  0.1796
18155W        W36359  10.532   5.624   3.523 -0.1908  0.0656 -0.0187
18156W        W36360  10.046  11.372  16.051  0.0858 -0.0713  0.0620
18157W        W36361   2.339  12.418   1.287  0.0608  0.0966 -0.1394
18158W        W36362   6.224  16.627   3.700  0.1118  0.0172 -0.0994
18159W        W36363  15.407  14.081   0.208  0.2785 -0.0786  0.3134
18160W        W36364  15.002   9.787  12.484 -0.0186 -0.2287 -0.1680
18161W        W36365  13.673  16.892  13.945  0.1203 -0.1904 -0.2420
18162W        W36366   8.192   7.496  13.756  0.1506 -0.1484  0.2683
18163W        W36367   6.577   6.069  15.708  0.2539  0.3413  0.1365
18164W        W36368  13.269   8.787  12.960 -0.0805 -0.0372 -0.0210
18165W        W36369   1.904   3.741  13.900 -0.2180 -0.1739 -0.0851
18166W        W36370  10.286  14.584  12.286 -0.1363  0.1162 -0.0452
18167W        W36371   8.427  12.268  11.954  0.1002  0.1395  0.0084
18168W        W36372   7.680   5.339   2.479 -0.1870  0.0726  0.0509
18169W        W36373  11.335   4.901   2.335 -0.2667 -0.0377 -0.0506
18170W        W36374   0.765  12.874  14.477  0.1829  0.1147  0.1012
18171W        W36375   0.924   5.599  11.749 -0.3825 -0.2232  0.0556
18172W        W36376  17.789   0.050   3.395 -0.0401  0.2652  0.5718
18173W        W36377   0.212   8.325  11.962  0.0911 -0.0313 -0.0171
18174W        W36378  10.006  15.812  12.532  0.1414 -0.0054 -0.1043
18175W        W36379   9.389   5.862  15.903 -0.2363 -0.3770 -0.4076
18176W        W36380  14.651   1.367   3.097  0.1238 -0.1064 -0.0848
18177W        W36381   8.132  16.856   3.791  0.0942  0.1042  0.0900
18178W        W36382  16.062  14.233   2.071 -0.1130  0.1394 -0.0836
18179W        W36383  15.569  17.868   2.124  0.0029  0.0840 -0.0754
18180W        W36384   3.558   1.528   3.742 -0.3445  0.2740  0.0676
18181W        W36385   4.501   3.962   3.506 -0.2050  0.0284  0.1264
18182W        W36386   1.913  16.595  12.148 -0.0887 -0.0666 -0.3050
18183W        W36387  17.340   8.263   3.231 -0.3222 -0.0651  0.0061
18184W        W36388   9.821  11.893   1.144 -0.1712 -0.0673 -0.1562
18185W        W36389  11.945   8.856  12.671  0.0852  0.0523  0.1597
18186W        W36390  10.246   5.459  15.429 -0.0511  0.2596  0.0249
18187W        W36391   0.327  16.837  16.044 -0.0379 -0.1321 -0.0874
18188W        W36392  17.334   9.107   4.952  0.1986 -0.0112  0.2176
18189W        W36393  10.704   4.076   0.020 -0.2926 -0.0241  0.1493
18190W        W36394   7.135  12.441   2.289  0.1527  0.0253 -0.1468
18191W        W36395  13.179  12.518   2.750  0.2117  0.0449  0.2561
18192W        W36396  12.718   1.747  14.130 -0.0866 -0.1408  0.0170
18193W        W36397   1.558  14.600  14.320 -0.1744  0.0764  0.0381
18194W        W36398  16.277  13.101   0.795  0.3429  0.2363 -0.0160
18195W        W36399  16.807  15.274   0.394  0.0812 -0.2699 -0.0228
18196W        W36400   4.375  14.946  15.651 -0.1988  0.1007 -0.3109
18197W        W36401  14.825  17.603   3.556 -0.2318 -0.0792  0.0642
18198W        W36402   4.668   1.678   4.045  0.1093 -0.0145 -0.0622
18199W        W36403  15.784  10.806  11.961  0.1056  0.1798  0.1856
18200W        W36404   9.154   6.387   1.642  0.3412  0.2239  0.0190
18201W        W36405   8.459   6.210   4.612  0.0961 -0.1968 -0.0077
18202W        W36406  14.623   9.959  15.966 -0.0362 -0.0083  0.0827
18203W        W36407   8.752   6.622  13.881 -0.0579  0.1497  0.2718
18204W        W36408   6.594   9.305  12.970  0.0521 -0.0289  0.1832
18205W        W36409   3.779  13.000   3.390 -0.0279 -0.1506  0.2724
18206W        W36410  16.728  17.397   0.362  0.2094 -0.0567 -0.1104
18207W        W36411  15.085  11.141   1.755  0.3893  0.1314 -0.0778
18208W        W36412   7.011  11.389  15.027 -0.1272 -0.0086  0.1671
18209W        W36413  17.574   3.871  15.481  0.0393  0.1776 -0.1745
18210W        W36414  16.004   3.800   2.857  0.0423 -0.0496  0.1297
18211W        W36415  11.877   7.797  13.980 -0.0646 -0.1626  0.0238
18212W        W36416  15.178   6.121   2.423  0.1860 -0.1322  0.0354
18213W        W36417   5.912   3.836  14.243 -0.0527  0.1004 -0.3514
18214W        W36418   0.361   8.367   1.766 -0.0069  0.0544 -0.3127
18215W        W36419   2.185   6.261  12.517  0.0477 -0.1136  0.2988
18216W        W36420  10.869  17.815  15.101 -0.0623 -0.0225 -0.1326
18217W        W36421  13.733   5.964  13.061  0.0894 -0.0735  0.2249
18218W        W36422  12.500   3.418  13.376  0.2535 -0.1145  0.0348
18219W        W36423   7.016   8.074   1.951 -0.2640 -0.0911 -0.2928
18220W        W36424   5.012  14.871  15.469 -0.0192 -0.2341  0.0128
18221W        W36425   3.367   7.810  12.132 -0.0338 -0.2485 -0.1867
18222W        W36426   8.729  11.533  14.445 -0.1856  0.1856 -0.0616
18223W        W36427  13.925  15.958  12.060  0.0380  0.0565 -0.3851
18224W        W36428   0.634  13.369   1.335  0.2752  0.0527 -0.0044
18225W        W36429   4.191  13.496   1.683  0.0709 -0.0313  0.0616
18226W        W36430  13.920  17.646  10.202 -0.1555 -0.1626  0.2261
18227W        W36431   8.168  16.611   1.858  0.0922 -0.0230 -0.0444
18228W        W36432  17.682   0.286  10.968 -0.0378 -0.0817 -0.1990
18229W        W36433   1.096  13.553   4.723 -0.2716  0.2077  0.0896
18230W        W36434   6.746  11.141  16.067 -0.2070 -0.1316 -0.1980
18231W        W36435   2.733   8.876  12.116  0.2373  0.1206 -0.3037
18232W        W36436   1.172   8.298  13.867  0.0281  0.0972 -0.0125
18233W        W36437   6.885  14.536  15.427  0.3417 -0.3075 -0.0064
18234W        W36438  13.516  17.512  14.595 -0.0095 -0.1627 -0.0888
18235W        W36439  17.821  13.991   4.303  0.1496 -0.3985 -0.2556
18236W        W36440   4.040  15.234   3.944 -0.3462 -0.0102 -0.0395
18237W        W36441   0.301   2.768  15.235  0.0645 -0.1808 -0.1293
18238W        W36442  15.212  11.396  15.489  0.3365  0.0608 -0.1109
18239W        W36443   2.306   2.530  16.172  0.2400  0.0292  0.1072
18240W        W36444   9.903  14.457   0.278 -0.1642 -0.0750 -0.1771
18241W        W36445   8.646  11.805   1.407  0.0383  0.2736 -0.0051
18242W        W36446  17.603  15.917  11.686  0.0895  0.0218 -0.0455
18243W        W36447   6.867   7.790   1.578 -0.0993 -0.0551  0.0181
18244W        W36448  10.983   5.933   1.415 -0.0970  0.1461  0.2673
18245W        W36449  12.320   0.884  10.960 -0.1343  0.0080  0.3606
18246W        W36450   5.823  11.405   1.939 -0.1912 -0.1536  0.3249
18247W        W36451   4.929   5.387  14.273  0.1136  0.1215 -0.0362
18248W        W36452  12.326  14.003   0.901  0.0682  0.0726  0.2099
18249W        W36453  11.682  14.326   4.021 -0.1854 -0.1964  0.2412
18250W        W36454   8.185   0.718  11.421  0.1387 -0.1058  0.1086
18251W        W36455   4.925   5.648   3.963 -0.4531 -0.2218  0.1787
18252W        W36456   1.839  17.067   0.353  0.2939 -0.2788 -0.1635
18253W        W36457   9.234  12.153   4.572 -0.2370 -0.0189 -0.1410
18254W        W36458   4.716   0.386   3.145 -0.0873 -0.0051 -0.1505
18255W        W36459   9.180   3.243  13.282 -0.0849 -0.0622 -0.0511
18256W        W36460   3.884   7.092   0.770 -0.1534 -0.0528  0.0006
18257W        W36461   2.376   2.084  15.431 -0.0801 -0.0972 -0.1515
18258W        W36462   6.419   8.926   1.085 -0.0240  0.0832  0.1720
18259W        W36463   0.848  11.264   1.377 -0.0261 -0.2749  0.1698
18260W        W36464   8.344   5.356   3.087  0.2323  0.0163  0.0572
18261W        W36465  11.407   8.918  12.689 -0.0930 -0.1950  0.0365
18262W        W36466  12.844   9.637  15.039 -0.2598  0.1125  0.0779
18263W        W36467   9.097   0.522  12.424  0.2297 -0.0340 -0.0441
18264W        W36468   6.389   2.505   0.136  0.1694  0.1746 -0.3165
18265W        W36469   3.707   3.025  14.442  0.1056  0.0756  0.2145
18266W        W36470   6.494  17.979  13.359 -0.0862 -0.0510 -0.2546
18267W        W36471   8.921  16.375  12.939 -0.1705  0.0129  0.0530
18268W        W36472   2.503   6.464  14.506 -0.1599 -0.1083 -0.0886
18269W        W36473   8.110   6.196  13.298 -0.0924  0.0642 -0.1432
18270W        W36474   3.446  12.611  14.680 -0.0095  0.3489 -0.2835
18271W        W36475  13.586   9.557   4.724  0.0651  0.1005 -0.1700
18272W        W36476  13.677   1.620  12.803 -0.2340 -0.0519 -0.2234
18273W        W36477   1.807  13.221   0.741  0.1858  0.1877 -0.0450
18274W        W36478  11.155   7.688  13.200 -0.4221 -0.0383 -0.3738
18275W        W36479  11.666  12.680  15.948  0.3086  0.1716  0.0436
18276W        W36480  12.777  12.540   1.598  0.0485 -0.0037 -0.0283
18277W        W36481   1.441  11.809  14.001 -0.1832 -0.0884  0.1543
18278W        W36482   7.573  10.497   5.014  0.1702  0.1713 -0.0173
18279W        W36483  17.001   1.123   2.024 -0.0266  0.0754  0.0679
18280W        W36484  11.936  14.023   0.101 -0.0988  0.0850  0.1197
18281W        W36485   9.395  17.439   2.294  0.0235  0.2923 -0.2679
18282W        W36486  15.391   9.791  14.224  0.0603  0.0781  0.1522
18283W        W36487   9.054  12.598   4.905  0.1932 -0.0677 -0.0420
18284W        W36488   4.645   9.737  15.740 -0.3351  0.1125  0.1564
18285W        W36489   9.403   7.839  12.289 -0.2026 -0.1811  0.0074
18286W        W36490  13.745   9.273   2.332 -0.3681 -0.2773  0.1851
18287W        W36491  13.880   8.939  14.116 -0.0549 -0.0169 -0.2285
18288W        W36492  16.204   8.182   4.564  0.0183  0.0616  0.2351
18289W        W36493  17.248   5.344  14.545  0.3116 -0.1525 -0.1457
18290W        W36494  11.599  17.376  11.870 -0.1471  0.1924 -0.2464
18291W        W36495  14.318   4.406   1.687 -0.2662 -0.1807  0.1100
18292W        W36496   0.378  10.718   5.179  0.2746  0.0290 -0.4583
18293W        W36497  14.924   5.927  14.627  0.1190 -0.3042  0.0816
18294W        W36498  14.702  12.124  15.674 -0.1785 -0.1801  0.1044
18295W        W36499   7.941   7.493   5.485 -0.1501  0.2003 -0.0720
18296W        W36500   9.330   9.138   3.822 -0.1004  0.1883 -0.1025
18297W        W36501   6.579  12.431   2.358 -0.2075  0.0683 -0.0168
18298W        W36502   5.330   2.451  11.640 -0.2310 -0.0846 -0.0642
18299W        W36503   7.276  10.827  15.537  0.1240  0.0554  0.0897
18300W        W36504  17.442   4.830   2.238  0.0160 -0.0364  0.2761
18301W        W36505  13.322   9.115  13.636 -0.0377 -0.1135  0.0402
18302W        W36506   2.164  16.593   2.310 -0.2717  0.2124  0.1745
18303W        W36507  13.528   9.750  12.023  0.1875 -0.1510  0.3183
18304W        W36508  10.763  10.936   1.683  0.2127  0.3864  0.2031
18305W        W36509   1.207   1.247   5.002  0.1064 -0.0463 -0.0665
18306W        W36510   3.226   8.594   2.296  0.2576  0.0092  0.0193
18307W        W36511   7.819   2.323  15.355 -0.1114  0.0288 -0.0043
18308W        W36512  13.977   7.550   2.186  0.0045 -0.0666 -0.0604
18309W        W36513  13.834   8.879   1.367 -0.0725  0.1092  0.1219
18310W        W36514   9.779  14.140  15.043 -0.0053 -0.1479  0.1410
18311W        W36515   4.373   0.676   0.904  0.4526  0.1313  0.0349
18312W        W36516   8.037   9.383  12.046  0.1375  0.2920 -0.1735
18313W        W36517   4.720  12.244   0.684  0.0702  0.1411 -0.0109
18314W        W36518   0.551   0.783   3.009 -0.1537 -0.0277 -0.1135
18315W        W36519   4.225   3.853   0.986 -0.0726  0.0552 -0.0536
18316W        W36520   0.927   7.142   6.002  0.1421  0.1704  0.3594
18317W        W36521   4.372  15.411  12.229 -0.1175 -0.1411 -0.4015
18318W        W36522   5.647  13.676  16.030 -0.0136 -0.5553  0.0765
18319W        W36523   1.674   2.279   3.852 -0.1523 -0.0575 -0.0504
18320W        W36524   8.073  11.672  10.561  0.0464  0.1622  0.2569
18321W        W36525  10.586   8.043   2.820  0.2863  0.2234  0.1371
18322W        W36526  15.049   8.900   0.270 -0.3263 -0.1746 -0.0640
18323W        W36527   0.360   0.309  13.097  0.2169  0.2969  0.1444
18324W        W36528  13.508  14.075   1.394  0.0540  0.0227  0.0405
18325W        W36529   5.368   7.423  14.045  0.0785  0.4222 -0.0215
18326W        W36530   1.619   1.516  11.144 -0.1723  0.0905  0.0758
18327W        W36531   6.868   5.814  12.688 -0.0290 -0.0197  0.0442
18328W        W36532   1.872  13.027   4.513 -0.1845 -0.0260  0.0536
18329W        W36533   1.109  14.538  14.100  0.0041 -0.3048  0.0511
18330W        W36534  17.568   3.355   2.296  0.2278 -0.0644 -0.0387
18331W        W36535   2.738   4.356   4.617  0.1175  0.1157  0.0296
18332W        W36536   2.763   0.265  15.863 -0.1524  0.1484  0.0914
18333W        W36537  17.442   2.591   2.842  0.1841  0.2343 -0.0823
18334W        W36538   0.549  12.129  14.539 -0.3557 -0.2764 -0.0407
18335W        W36539   8.849  10.886  14.872 -0.1190 -0.0059  0.0074
18336W        W36540  10.601  14.477  12.679 -0.1730  0.3471 -0.1163
18337W        W36541   2.517   6.362  11.406  0.1981  0.3337  0.1078
18338W        W36542  16.754  16.309  10.962 -0.0257 -0.0194  0.2060
18339W        W36543  15.482  10.141  15.088  0.1501 -0.1948 -0.0995
18340W        W36544  14.472  16.462  12.658  0.0447 -0.1496 -0.2928
18341W        W36545  14.945   9.403   1.219  0.1051 -0.1583  0.0193
18342W        W36546   9.439   6.097   2.140  0.0372  0.0850  0.1569
18343W        W36547  14.083   7.951   5.030 -0.1021  0.0852  0.0990
18344W        W36548  10.045  10.365  10.751 -0.1160 -0.1120 -0.0532
18345W        W36549   7.006   2.588   1.841 -0.1648  0.1302 -0.2241
18346W        W36550   9.430   5.972   4.396  0.1523  0.0767  0.0351
18347W        W36551   5.790  16.998  12.431 -0.0117  0.1290  0.1831
18348W        W36552   3.400  13.431  15.195 -0.1541  0.0365  0.2803
18349W        W36553   1.188  10.374  11.749 -0.0417 -0.0128  0.1599
18350W        W36554   8.759  11.552   0.939  0.2441  0.3805  0.1606
18351W        W36555  13.012   8.574  14.166  0.2032  0.3432 -0.1805
18352W        W36556   1.002  12.397  14.581 -0.3454  0.3457 -0.0804
18353W        W36557  15.287  17.680  11.572 -0.1549  0.1160  0.0275
18354W        W36558   8.363   9.968  13.137  0.0839  0.0209  0.4741
18355W        W36559   4.002   1.913   3.416 -0.3210  0.1150 -0.3053
18356W        W36560  11.963  14.914   0.945  0.1108  0.0412  0.1319
18357W        W36561   5.834   8.366  13.909  0.3305  0.0056  0.1790
18358W        W36562   5.541  11.460  12.380  0.3692 -0.5247  0.0138
18359W        W36563  12.249  14.378  11.495  0.0647  0.3038  0.0692
18360W        W36564   9.180   2.206   3.331 -0.0930 -0.0998  0.1770
18361W        W36565  17.017  10.374   4.301 -0.0249  0.1169 -0.1269
18362W        W36566   6.179   7.172  15.507 -0.1109  0.2611  0.2113
18363W        W36567   8.497  15.047  13.202 -0.2655 -0.0597 -0.5208
18364W        W36568   2.598   6.382  16.025  0.1776 -0.2066 -0.2652
18365W        W36569  16.674  15.830  13.940 -0.0607 -0.0445  0.2952
18366W        W36570  17.284   5.553  13.160  0.0250  0.0443 -0.1301
18367W        W36571   9.507  10.912   4.120 -0.1446 -0.1776  0.2660
18368W        W36572   1.165   1.103  14.471  0.0116 -0.2094  0.0056
18369W        W36573  16.412  10.140  15.806  0.2980 -0.1336 -0.0397
18370W        W36574  16.923   4.454  12.516  0.1135 -0.1584  0.1521
18371W        W36575  10.058   4.188   2.210  0.0185  0.2073  0.2089
18372W        W36576  16.386   7.423   0.113 -0.2644  0.0854  0.2333
18373W        W36577  17.701   7.786   1.979 -0.0565 -0.0633  0.0580
18374W        W36578   9.723   8.886   4.066  0.2919 -0.1462  0.1013
18375W        W36579   4.896  11.899  15.503 -0.0034 -0.0654  0.0482
18376W        W36580   7.372   5.796   5.208 -0.3056 -0.0074 -0.0465
18377W        W36581   1.734   0.869   2.521  0.1812 -0.1829  0.1056
18378W        W36582  10.408   5.677   2.522 -0.1171 -0.2374 -0.0904
18379W        W36583   9.962   6.679  15.789 -0.1554 -0.0644  0.1482
18380W        W36584  11.720   4.352   3.844  0.0934 -0.0132  0.0344
18381W        W36585  16.670   4.680  13.132 -0.2471 -0.4500  0.1091
18382W        W36586   4.206  10.100   6.086 -0.2254  0.1774 -0.0009
18383W        W36587   1.499   7.421   1.104 -0.2370  0.0203  0.2911
18384W        W36588   5.290  14.532   1.502  0.1077 -0.2104 -0.0122
18385W        W36589  16.304  12.735  13.390  0.0699  0.2162  0.2939
18386W        W36590  14.568  14.579   0.631 -0.3186  0.0230 -0.0023
18387W        W36591   9.282   2.522  14.313  0.2116 -0.0410 -0.1946
18388W        W36592  14.754   2.532   3.065  0.1503 -0.0231 -0.1717
18389W        W36593  13.220   3.193   5.284 -0.1825 -0.1723  0.1259
18390W        W36594   7.338   1.385  14.086  0.0977 -0.0323 -0.0341
18391W        W36595  16.323   5.626  10.717  0.3136 -0.0676  0.2389
18392W        W36596  12.379  16.973   4.357 -0.3322 -0.0068 -0.3011
18393W        W36597  14.663  12.677  13.129  0.0564  0.1184 -0.0564
18394W        W36598   5.676   1.621   0.092 -0.0656  0.0073 -0.1412
18395W        W36599  12.050  15.392   3.622 -0.1378 -0.2686 -0.0506
18396W        W36600   3.676   4.381  15.517 -0.0966  0.2632  0.2019
18397W        W36601   6.048  13.812  14.887  0.2111  0.0701 -0.2186
18398W        W36602   3.157  14.305  12.600  0.1198 -0.0424  0.0849
18399W        W36603  13.706  13.035   2.640  0.2754  0.0128  0.0930
18400W        W36604   7.957   2.900   1.710 -0.0160 -0.0645  0.0977
18401W        W36605  17.523  12.732   5.914 -0.0940  0.0965 -0.2317
18402W        W36606   1.523   1.716  14.147 -0.1189  0.3013  0.1967
18403W        W36607   7.163  12.626  13.960 -0.1520  0.2643 -0.1998
18404W        W36608   1.420   5.781  11.932  0.0529  0.1394 -0.3246
18405W        W36609   9.939   1.889  15.539  0.0582 -0.0033 -0.1065
18406W        W36610  17.095   3.509  15.383 -0.0926 -0.1493 -0.1975
18407W        W36611   7.662  17.639  15.255 -0.0090  0.0549  0.0344
18408W        W36612  16.511   1.876  13.110  0.2213  0.0336  0.0806
18409W        W36613  13.913  17.175  11.400 -0.0582 -0.0716  0.0556
18410W        W36614   0.966  13.240   0.940 -0.0222 -0.1371 -0.1042
18411W        W36615   8.923   9.151   1.734  0.0313 -0.2396 -0.1587
18412W        W36616  13.372  15.823   0.347 -0.2410 -0.0942 -0.1953
18413W        W36617   9.418   2.116   4.682  0.0040 -0.1465 -0.0165
18414W        W36618  11.269  17.457   0.931  0.2212 -0.0266 -0.0447
18415W        W36619   6.897   7.800  13.102  0.2025 -0.0164 -0.1514
18416W        W36620  14.766   7.773   3.816  0.1641  0.1995  0.0826
18417W        W36621  16.663  10.393  11.703  0.2543 -0.1242 -0.1656
18418W        W36622  10.645  17.287   0.597  0.1316 -0.1814  0.1397
18419W        W36623  10.244   6.018  14.061  0.1785 -0.0109  0.1120
18420W        W36624   4.653  17.247   3.839 -0.1116 -0.0211  0.3143
18421W        W36625  13.003  10.444   4.800 -0.0591 -0.3378  0.2404
18422W        W36626   7.445  15.245   2.824  0.0628  0.1536 -0.0048
18423W        W36627   7.224   6.090  14.175  0.0177  0.0866  0.1821
18424W        W36628  13.704   1.641   4.185 -0.1677  0.2203  0.0572
18425W        W36629   1.809   1.550   3.880  0.2420  0.0899  0.2077
18426W        W36630   5.284  15.846   3.595  0.0356 -0.3065  0.0214
18427W        W36631  13.502   6.227   4.075  0.0332  0.1308 -0.0114
18428W        W36632  12.131  14.912  13.776  0.3872  0.2601  0.3316
18429W        W36633  12.752   5.044   3.016  0.1986 -0.1527 -0.0293
18430W        W36634   8.935   8.148  15.508 -0.1220 -0.0774  0.2797
18431W        W36635  12.693   6.496  13.830  0.0325 -0.0495 -0.0168
18432W        W36636   9.620  13.196   1.315 -0.1865  0.0066  0.1101
18433W        W36637  10.179  15.246   0.506 -0.1496 -0.2145 -0.2626
18434W        W36638   6.261   9.103  14.277 -0.0359  0.0951 -0.3199
18435W        W36639   3.884   2.601  11.126  0.0059 -0.0053  0.1482
18436W        W36640  15.070  11.966   3.888 -0.0876 -0.1681 -0.1933
18437W        W36641   7.284  14.637  15.751  0.0919 -0.1370 -0.0692
18438W        W36642   4.236   7.523  11.486 -0.3074  0.0215 -0.2517
18439W        W36643  11.278   2.401   1.311  0.2516 -0.0436 -0.2288
18440W        W36644   8.496  13.600  13.176  0.0888  0.3966  0.2292
18441W        W36645   4.810   1.718  15.264  0.0805  0.0086 -0.2689
18442W        W36646   1.170   7.936   0.858  0.2107  0.2303 -0.1551
18443W        W36647  11.631  16.930   1.823  0.1513  0.2003  0.1453
18444W        W36648  16.410  13.788  15.674 -0.0257  0.0083  0.0724
18445W        W36649   0.178   2.079  11.480 -0.3036 -0.0980 -0.1651
18446W        W36650   0.565  10.556  14.019 -0.1617  0.0039 -0.0287
18447W        W36651   4.606   5.879  12.670  0.0967 -0.0333  0.2991
18448W        W36652  17.501  15.212   2.347  0.1614 -0.0222  0.1891
18449W        W36653   5.116  15.847  15.071 -0.1272 -0.3401 -0.0295
18450W        W36654   8.744   7.589   1.460  0.0440 -0.0204 -0.0178
18451W        W36655  14.067  16.442  11.977 -0.2397 -0.0036 -0.3037
18452W        W36656   8.261  11.511   3.742 -0.4074 -0.2747  0.1082
18453W        W36657   5.820   5.556   1.085  0.1991  0.0138 -0.2436
18454W        W36658   0.820  14.157   1.197 -0.1968  0.0334 -0.0360
18455W        W36659   6.685   5.517   3.981  0.4057 -0.2097  0.0137
18456W        W36660   8.026   2.972  15.238 -0.0330  0.1651  0.0693
18457W        W36661   7.615   3.136   0.308  0.3175 -0.3044 -0.1124
18458W        W36662   7.848   7.391  14.086 -0.2048 -0.0349  0.0657
18459W        W36663   1.548   9.706  12.052 -0.0464 -0.1025  0.1239
18460W        W36664   4.886  17.705   1.474 -0.1082  0.0642 -0.0773
18461W        W36665  16.267   1.314  13.978 -0.0562 -0.3657  0.2216
18462W        W36666   7.331   5.481   4.688  0.0812 -0.0982 -0.1197
18463W        W36667   1.523   1.271   1.292 -0.1951 -0.0251  0.1548
18464W        W36668   1.071  11.087   5.078 -0.0959  0.1490  0.1387
18465W        W36669  10.966   5.968  10.452 -0.2184 -0.0737 -0.1601
18466W        W36670   5.024   3.971  15.092  0.3035  0.1639 -0.1480
18467W        W36671   8.516  12.588   1.437  0.5610  0.0097 -0.0048
18468W        W36672   8.533   4.470  13.547  0.0441 -0.3989  0.0519
18469W        W36673  14.599   4.469  14.778  0.4019 -0.2651  0.0867
18470W        W36674   6.259   6.583   4.917  0.0940  0.0564 -0.0914
18471W        W36675   2.119   0.882   4.527  0.0174 -0.1973 -0.0301
18472W        W36676   5.052  15.892   4.451  0.1437 -0.2597  0.2409
18473W        W36677   7.592  14.849   1.415 -0.3139  0.1225  0.0722
18474W        W36678   6.387   2.506  11.482 -0.0951  0.1430 -0.1062
18475W        W36679   8.949  15.926   0.479  0.0105  0.0808 -0.2014
18476W        W36680  17.431  10.713   5.073  0.1737 -0.2393  0.0561
18477W        W36681   6.846  13.044   4.641 -0.0364  0.1026  0.3939
18478W        W36682  15.767   6.416   4.530  0.2445  0.0749  0.2527
18479W        W36683   2.620   8.986  14.839 -0.2862  0.2302  0.1395
18480W        W36684  17.408  15.524   4.200  0.0850 -0.2659  0.1737
18481W        W36685  12.320   0.968   2.551 -0.1484 -0.1279 -0.0700
18482W        W36686   3.411   7.147   0.991 -0.0473  0.1551 -0.1807
18483W        W36687   6.816  11.034   3.094  0.0784 -0.1121 -0.3856
18484W        W36688  15.235  10.562  14.225  0.0274 -0.1457  0.0142
18485W        W36689   2.895  16.410  15.744  0.1964 -0.1703 -0.1786
18486W        W36690   5.410   1.343   0.786 -0.1917  0.1865 -0.3046
18487W        W36691   6.683   3.285  12.111 -0.1581  0.3284 -0.2408
18488W        W36692   3.280   9.517  11.381 -0.1642  0.4079  0.1409
18489W        W36693   0.967  11.355   3.728  0.0299  0.1343 -0.2673
18490W        W36694   7.342   1.701  15.275 -0.0888  0.3030 -0.1310
18491W        W36695   7.862  16.554  13.466  0.3317  0.0906  0.0434
18492W        W36696   9.287  13.985   3.726 -0.1438  0.0931 -0.4210
18493W        W36697   3.010   6.038  14.360 -0.2200  0.0544 -0.0258
18494W        W36698   5.184  11.549   4.559 -0.0395  0.0191 -0.0043
18495W        W36699  15.809  15.134   3.261  0.4667 -0.0973 -0.3429
18496W        W36700   6.458  13.845   5.457 -0.2079 -0.3783 -0.2290
18497W        W36701  11.941  16.780  13.126 -0.1386  0.1373 -0.1219
18498W        W36702  14.525   7.762   1.258 -0.2219  0.0049 -0.1955
18499W        W36703   4.027  12.598   1.272 -0.1476  0.2688  0.1810
18500W        W36704  15.741  10.068   0.556  0.1826 -0.1148 -0.1185
18501W        W36705  14.250   5.090   4.354 -0.1996 -0.1154  0.4081
18502W        W36706  14.671  13.540   3.270  0.2031 -0.3587 -0.1125
18503W        W36707   9.120  10.861   2.154 -0.1576 -0.3490  0.1682
18504W        W36708   0.934  10.140   5.082  0.1087  0.2145 -0.3181
18505W        W36709   6.573   2.930  11.717 -0.0749 -0.1069 -0.2616
18506W        W36710   1.505  13.427  12.274 -0.1731  0.0531 -0.0773
18507W        W36711   4.786  14.999   4.450 -0.0302  0.3796  0.0232
18508W        W36712   3.856  15.591   0.322 -0.0683  0.1009 -0.3289
18509W        W36713   8.520   1.109  13.365 -0.0942 -0.1740 -0.0007
18510W        W36714  14.535  17.007  16.149 -0.2933  0.0763 -0.0792
18511W        W36715   2.214  12.639  13.365  0.1806 -0.0818  0.0518
18512W        W36716   3.155  14.211  13.122  0.0874 -0.0504 -0.0363
18513W        W36717  16.583  11.055   2.789 -0.2102 -0.2775  0.1879
18514W        W36718   1.610   0.275   0.220 -0.0767  0.3287 -0.1570
18515W        W36719  12.976   0.353  11.417  0.4366 -0.1455 -0.0011
18516W        W36720  15.670  10.258  12.137 -0.2702  0.1957 -0.0371
18517W        W36721   9.976   3.210   2.226  0.0219  0.2850 -0.0716
18518W        W36722   8.062   1.542   2.890 -0.1322  0.1369 -0.1248
18519W        W36723   1.932   5.081   4.590  0.2245  0.3084  0.0162
18520W        W36724  17.677  17.551   2.359  0.0141 -0.0007  0.0638
18521W        W36725   6.431  11.704  14.063  0.0726 -0.0855 -0.1575
18522W        W36726   1.695   6.126   4.682  0.1126 -0.2600  0.0467
18523W        W36727   0.750   6.424   4.238 -0.2170 -0.2059 -0.0845
18524W        W36728   7.544   9.967   4.948  0.1448  0.1595 -0.0715
18525W        W36729  16.714  12.430  12.115 -0.3829  0.0131  0.1984
18526W        W36730   7.114   9.080  15.756  0.0533  0.0874 -0.0881
18527W        W36731  12.718   5.421  15.485  0.2135 -0.2345 -0.0522
18528W        W36732   0.043  15.652   3.075  0.1609  0.0829 -0.2772
18529W        W36733   4.977   0.966  12.708 -0.3279 -0.0681 -0.2403
18530W        W36734  11.354  14.851   3.297 -0.0771  0.2305  0.1155
18531W        W36735  13.660   3.068  12.632 -0.1559  0.2784 -0.0092
18532W        W36736  17.354  11.967   3.782  0.0173  0.0686 -0.1088
18533W        W36737   8.391  17.270   3.741  0.2728 -0.1772 -0.0653
18534W        W36738   6.691   1.806   1.822  0.0768 -0.2696 -0.0499
18535W        W36739  15.298   7.246  12.168 -0.0734 -0.0401 -0.0637
18536W        W36740  12.413   6.319   2.178 -0.0475  0.2535 -0.2546
18537W        W36741   0.548   5.015  14.839  0.3224  0.2182  0.0743
18538W        W36742  15.338   4.654  13.625 -0.2816  0.0892  0.3168
18539W        W36743   5.718  12.931   2.597 -0.0824  0.0260  0.1430
18540W        W36744   9.615   8.444  13.996 -0.0823 -0.0770 -0.1835
18541W        W36745  12.565  15.604   0.221 -0.2720  0.0415  0.1834
18542W        W36746   6.098  12.365  14.224  0.1613  0.1376  0.1613
18543W        W36747  15.485  10.564  13.703 -0.0666  0.1485 -0.2125
18544W        W36748   3.991   7.051  15.930  0.1971 -0.1388 -0.1043
18545W        W36749   4.690  15.064  11.312  0.2450  0.0336 -0.3545
18546W        W36750   2.036   0.560  15.457  0.0603  0.0375 -0.2574
18547W        W36751   1.494  14.176  13.341 -0.4280 -0.0077 -0.1129
18548W        W36752  15.020   8.811   3.961  0.2285  0.0437  0.3720
18549W        W36753  12.784  15.587  13.905  0.0071  0.0113  0.1275
18550W        W36754  17.958  16.407  12.519 -0.2193 -0.1628  0.2180
18551W        W36755  11.823  13.210  13.391  0.0741  0.1388 -0.0335
18552W        W36756   8.036  10.448  15.893 -0.2276 -0.1772 -0.0599
18553W        W36757  14.587  16.046  13.467  0.0335 -0.2179 -0.1259
18554W        W36758   4.643  11.135   1.341  0.0952  0.1709  0.1201
18555W        W36759  17.869   7.044   3.113 -0.1968 -0.2140 -0.3931
18556W        W36760   9.694  13.957   0.812  0.0636  0.1538 -0.1205
18557W        W36761   0.393  10.454   2.949  0.0397 -0.2870  0.1185
18558W        W36762  16.587   0.455   2.032 -0.3339 -0.2624  0.0639
18559W        W36763   4.823   9.302   0.467 -0.0081 -0.0244  0.1624
18560W        W36764   6.534   4.821   0.801 -0.2579 -0.2255 -0.0510
18561W        W36765   6.719  11.195   4.092 -0.2965 -0.0093  0.4245
18562W        W36766  14.928  11.003  13.397 -0.2363 -0.1363 -0.0696
18563W        W36767  17.110  13.379  13.297  0.1934  0.1471  0.0482
18564W        W36768   4.916  17.159   0.299 -0.0317 -0.2084 -0.2193
18565W        W36769  13.995  13.375  15.991  0.0332 -0.0807 -0.1624
18566W        W36770   6.744   2.215  16.131  0.1144 -0.2004 -0.0085
18567W        W36771   2.210  15.356  13.089 -0.2324 -0.1424 -0.2109
18568W        W36772   7.650   5.101   0.423 -0.1755 -0.2944 -0.1297
18569W        W36773   8.792  16.639  15.448  0.4212 -0.0359  0.1420
18570W        W36774   7.187   6.514  12.155 -0.1315 -0.2031  0.4150
18571W        W36775   5.177  10.171   4.063  0.2490 -0.2394 -0.1720
18572W        W36776   5.323   2.551  13.148 -0.0180 -0.1879 -0.0797
18573W        W36777   8.788  12.353   3.450 -0.0357 -0.2477 -0.0647
18574W        W36778  16.862   9.072   3.610  0.2369  0.0642 -0.2644
18575W        W36779  10.726   2.433   4.545 -0.0928 -0.2414 -0.1780
18576W        W36780  12.019   0.857  14.927 -0.1042  0.1219  0.1134
18577W        W36781  12.078   9.714   2.839  0.2055  0.0498  0.2479
18578W        W36782   2.429   9.332  14.527 -0.2639 -0.2272 -0.0249
18579W        W36783  11.083   1.099  13.382  0.0493  0.0661  0.1069
18580W        W36784  12.432  16.744   2.540  0.0963  0.4468  0.0730
18581W        W36785   8.358   7.118  15.912  0.1399 -0.0378  0.5576
18582W        W36786  14.414  17.034  12.437  0.0715 -0.4415  0.0865
18583W        W36787   5.912  10.666   3.681 -0.3224  0.1872  0.0563
18584W        W36788   5.379   1.242   2.096  0.1516 -0.2311  0.0478
18585W        W36789   3.568   1.236  15.109  0.1422 -0.0416  0.2432
18586W        W36790  13.380  15.246  11.536  0.0621  0.1707 -0.0082
18587W        W36791  12.277  13.161   0.427  0.1552  0.2895 -0.1724
18588W        W36792  17.101   4.579   1.004 -0.0099 -0.0472  0.2397
18589W        W36793  14.369  12.368  13.937 -0.0639  0.1370  0.3074
18590W        W36794   7.479  10.644  15.978 -0.2324  0.2874  0.1424
18591W        W36795  17.452  15.382  15.628  0.2964  0.1777 -0.1872
18592W        W36796   9.021   8.967  15.186 -0.2140 -0.1849  0.2659
18593W        W36797  11.337  17.000  13.764 -0.0730  0.0981 -0.1977
18594W        W36798   0.406   7.668  13.978 -0.1714 -0.0308  0.1732
18595W        W36799   1.571  10.219   4.243 -0.0424 -0.0850 -0.0803
18596W        W36800   8.295   0.156  15.303 -0.2043  0.3148 -0.2218
18597W        W36801   5.594   5.597   1.679  0.1705 -0.0677  0.1446
18598W        W36802  11.757  10.728  15.521 -0.1620  0.0901 -0.1986
18599W        W36803  15.659   9.844   1.591 -0.0131  0.3941  0.1755
18600W        W36804  15.276   4.218   4.051 -0.0244  0.1137 -0.1335
18601W        W36805   7.405   4.408  15.992  0.0673  0.2564  0.0165
18602W        W36806   4.759   8.928   4.016 -0.0692  0.2090  0.1643
18603W        W36807  10.845   9.100  13.432 -0.2695  0.0408  0.1555
18604W        W36808   6.505  16.076  14.388  0.0834  0.0508 -0.0649
18605W        W36809   0.191  13.558  11.873 -0.1936  0.3047  0.0883
18606W        W36810  13.271   4.438   2.882  0.1486  0.0363  0.2930
18607W        W36811   8.832   9.172   2.277  0.1485 -0.0296  0.2979
18608W        W36812  11.107   6.676   3.021 -0.1850  0.0105 -0.3013
18609W        W36813   1.944  16.759   4.666 -0.2380  0.2613  0.1435
18610W        W36814   9.030  16.899  14.182 -0.1840  0.0111 -0.1100
18611W        W36815  10.962  12.582   4.165  0.0316  0.0844 -0.1897
18612W        W36816   1.576  12.416  14.548 -0.0471  0.1859 -0.0502
18613W        W36817  15.507   1.439   0.594 -0.2519 -0.0291 -0.3087
18614W        W36818  15.666   7.970   3.164  0.2328 -0.0211 -0.3354
18615W        W36819   0.538  15.413   0.827  0.0588  0.0163  0.2401
18616W        W36820   3.952  12.891   4.077  0.2506 -0.0514 -0.1955
18617W        W36821  10.255  10.497   3.897  0.1339  0.2697  0.2850
18618W        W36822  11.453   9.329  13.873  0.0540  0.0480  0.1960
18619W        W36823   4.390  14.478  15.040 -0.0911  0.0253  0.1717
18620W        W36824   8.537   0.545  11.020  0.0495 -0.1727  0.2411
18621W        W36825  10.297   4.123  15.451 -0.2619  0.1234 -0.0384
18622W        W36826  13.290  17.528   3.689  0.0795 -0.1274 -0.1276
18623W        W36827   0.387   4.738  13.956 -0.0658  0.2015  0.3347
18624W        W36828   3.632   0.874   5.958 -0.0939 -0.2124  0.1749
18625W        W36829   4.003  17.389  14.658  0.0225  0.0761 -0.1778
18626W        W36830   9.084   4.548  12.704  0.4272  0.3725  0.0187
18627W        W36831   4.313   7.893   1.657 -0.1260 -0.1903  0.1375
18628W        W36832  12.442  17.630  13.569  0.0884  0.0123 -0.1553
18629W        W36833   2.595   0.361   1.711  0.0182  0.0692  0.0362
18630W        W36834  11.748   8.483   0.619  0.0815 -0.2430 -0.2413
18631W        W36835   3.798  17.275   1.405 -0.0473 -0.1981  0.1511
18632W        W36836  13.845   0.458   0.144  0.1812 -0.1379 -0.2043
18633W        W36837  12.710  14.292  15.079  0.0494  0.1884  0.2315
18634W        W36838  17.234  11.923  12.622 -0.2199 -0.1603  0.0556
18635W        W36839  17.904   0.259   4.199 -0.2416  0.2803 -0.1102
18636W        W36840   3.458  17.680  14.081  0.0478 -0.1673 -0.0845
18637W        W36841   6.294  12.124  13.837 -0.1284  0.0536 -0.1128
18638W        W36842  15.021  14.921  15.564 -0.3575 -0.0482 -0.0032
18639W        W36843  12.752   9.561   4.506  0.0433  0.0625 -0.0138
18640W        W36844  11.742   1.110   2.405 -0.1516  0.0482  0.0268
18641W        W36845   8.365  14.839   0.038  0.0224 -0.1647 -0.1822
18642W        W36846  15.109   8.741  15.982 -0.0574 -0.0185  0.1237
18643W        W36847  12.842  15.987  10.853 -0.3286 -0.0735  0.3839
18644W        W36848   0.669  13.458   2.148  0.1745 -0.0836  0.0274
18645W        W36849  16.745   5.981   0.275  0.2082 -0.3494 -0.0940
18646W        W36850  14.496  17.725  14.472  0.1324  0.3767  0.0389
18647W        W36851   9.731   9.548   5.924 -0.2314  0.2032  0.1955
18648W        W36852   2.635  13.527  12.256 -0.1660  0.2059  0.0807
18649W        W36853   9.170  14.010  15.831 -0.2360  0.1851  0.1143
18650W        W36854   3.347   4.796   1.199  0.0646 -0.1152  0.0518
18651W        W36855   8.511   3.249   2.436  0.2261 -0.0440  0.0468
18652W        W36856   7.685   5.303  12.731  0.0794 -0.0316 -0.0702
18653W        W36857  13.425   3.240   3.850  0.0216 -0.0653 -0.0864
18654W        W36858   9.854  16.833  16.065 -0.0237 -0.2732 -0.0502
18655W        W36859  10.233  10.847   1.608  0.0442  0.0955  0.0281
18656W        W36860  12.697   2.380  14.698 -0.3187  0.0050 -0.0653
18657W        W36861  13.041   2.347   3.774  0.0940 -0.2524  0.0342
18658W        W36862  17.077  13.836  13.607 -0.2590  0.1053 -0.2622
18659W        W36863   3.318   8.197   1.546 -0.2258  0.1626  0.2662
18660W        W36864  14.944  15.347  12.367 -0.2332 -0.1590 -0.0663
18661W        W36865   0.615   7.951   1.007  0.1569 -0.0641  0.0598
18662W        W36866   3.058  15.848  11.221 -0.2002 -0.2812 -0.0694
18663W        W36867  10.165   9.486   1.212 -0.0130  0.0148  0.0676
18664W        W36868  10.083  12.290  12.511 -0.1024 -0.1966  0.1512
18665W        W36869   3.955   9.722   1.179  0.2106 -0.2027  0.0948
18666W        W36870   3.938   4.041   3.441  0.0032 -0.1696 -0.1148
18667W        W36871   2.397  11.125  11.903 -0.0218 -0.3428  0.1918
18668W        W36872   3.840  15.473   3.528 -0.0815 -0.0144 -0.0461
18669W        W36873  10.230  15.406   0.047  0.1408  0.2975 -0.3809
18670W        W36874   0.976   9.354  15.262 -0.0571  0.0029 -0.2059
18671W        W36875  12.176   0.622  11.746 -0.1084  0.2700 -0.0497
18672W        W36876   5.355   1.534   2.822 -0.2114 -0.0941 -0.1285
18673W        W36877  15.519   8.233  14.628 -0.0146 -0.0560 -0.0141
18674W        W36878   3.410   6.920  12.146  0.2754 -0.0899  0.1872
18675W        W36879   4.927   1.884   4.588 -0.2827 -0.3018 -0.2898
18676W        W36880  16.516  14.314  13.892 -0.3022 -0.0613  0.1525
18677W        W36881  11.267   3.800  15.196  0.2983  0.0277  0.0546
18678W        W36882  10.847   7.195   1.010 -0.0924  0.0279  0.0181
18679W        W36883   1.014   2.468   4.265  0.1533  0.0171  0.0878
18680W        W36884  10.467   4.904  13.676  0.0856  0.0033 -0.1462
18681W        W36885  13.498  12.710  14.412  0.1015 -0.1358  0.1277
18682W        W36886  14.657   6.726   3.851  0.0333 -0.0050 -0.2206
18683W        W36887   1.345   6.914   2.363  0.0094 -0.0338  0.0485
18684W        W36888  15.481   5.009  13.142 -0.3526 -0.0287 -0.2222
18685W        W36889   0.423   9.370   4.403 -0.1179  0.0596  0.0255
18686W        W36890   9.784  16.017  14.699  0.2618  0.1012  0.1143
18687W        W36891   1.813   0.564  14.884 -0.1584  0.2297  0.2104
18688W        W36892  11.930  16.993   5.210 -0.1629  0.1232 -0.1625
18689W        W36893  17.495   0.409  13.648  0.0824 -0.2392 -0.1839
18690W        W36894   0.785  15.026   0.647  0.2034  0.0852  0.2839
18691W        W36895   4.123  13.442   2.559  0.0919  0.0792 -0.1682
18692W        W36896   1.596   3.087   0.069 -0.1043  0.1839 -0.0116
18693W        W36897  10.853  11.796  12.676 -0.2330  0.0144  0.0264
18694W        W36898   3.327  11.334  12.210 -0.1525 -0.1436 -0.0056
18695W        W36899  11.392  12.471   2.157  0.1128  0.0332  0.1054
18696W        W36900  12.043   5.840  16.055  0.0426  0.0088 -0.2040
18697W        W36901  17.936  17.642   3.582 -0.0576  0.0290  0.0830
18698W        W36902  17.031   7.693   4.685  0.0916  0.1892  0.0840
18699W        W36903   0.338  12.359   3.665  0.1984  0.1314 -0.0924
18700W        W36904  14.310  15.180  12.463  0.1414 -0.1248  0.1609
18701W        W36905  12.286  17.491   1.740 -0.1500 -0.1549  0.1289
18702W        W36906  11.813   7.364  11.526  0.1190 -0.1023 -0.0337
18703W        W36907  14.489  15.010  15.416  0.0670  0.0638  0.0351
18704W        W36908   0.233  15.809   4.205 -0.0794  0.0201 -0.1110
18705W        W36909  10.947   5.727   4.484 -0.0201 -0.0876  0.0783
18706W        W36910   9.661   0.283   3.166  0.0186 -0.0767 -0.3880
18707W        W36911   8.462   1.612   1.661  0.1626 -0.1032 -0.0081
18708W        W36912   7.108  11.525   3.688  0.3805  0.4890 -0.0794
18709W        W36913   8.131   3.718  13.141 -0.3637 -0.2435  0.2490
18710W        W36914   3.534   8.084  14.863  0.2619 -0.0382 -0.1020
18711W        W36915   8.913  11.048   3.950  0.0638 -0.3784 -0.0668
18712W        W36916  10.401   0.808   2.650 -0.0915 -0.0236 -0.0298
18713W        W36917   3.223   5.523   2.188 -0.1661 -0.1217  0.3184
18714W        W36918  10.350   7.480   0.296  0.0117  0.1966 -0.0132
18715W        W36919   8.273   5.400  12.052 -0.0260  0.1768 -0.0326
18716W        W36920  13.876   8.484   1.045  0.3315  0.2460  0.1128
18717W        W36921   3.673  17.235   3.599  0.1506 -0.1297  0.0652
18718W        W36922  13.520   4.786   2.608  0.1498 -0.0006 -0.2119
18719W        W36923   7.673  14.894   3.980  0.0910  0.0391  0.1020
18720W        W36924  10.109   7.641   0.718  0.0692  0.0720  0.3040
18721W        W36925  17.995   5.230  10.758 -0.1433  0.1820  0.0644
18722W        W36926  11.824  17.897  14.701 -0.1707 -0.2514  0.2130
18723W        W36927   7.603  16.505   1.721  0.3047 -0.0622  0.2290
18724W        W36928   9.063   6.218  16.047  0.2135  0.1952 -0.1102
18725W        W36929   6.975  12.473   1.414  0.0183 -0.0622 -0.3556
18726W        W36930   8.875   8.057   1.305  0.0061 -0.1541 -0.1238
18727W        W36931  10.988   3.076  12.088  0.1737  0.4501 -0.0722
18728W        W36932  15.441  14.810  13.895 -0.0982 -0.0011  0.1479
18729W        W36933  16.484   1.853   1.678 -0.1710  0.0200  0.1617
18730W        W36934   8.042   0.443  10.955  0.2852 -0.1504 -0.0433
18731W        W36935  12.988  17.975   3.792  0.1215  0.0663  0.3714
18732W        W36936  16.092   3.670  13.762  0.1648  0.0720  0.1270
18733W        W36937  15.881  11.456   5.019  0.4168  0.0721  0.3612
18734W        W36938  15.343   2.472  14.880  0.0614  0.0633 -0.1911
18735W        W36939  17.821  12.876  14.139  0.0904 -0.0098 -0.1759
18736W        W36940  16.933  15.126   1.697 -0.1346  0.3000 -0.1005
18737W        W36941  12.284  11.437   5.550  0.0579  0.2727 -0.1230
18738W        W36942  12.778   1.016   3.059  0.1643 -0.1995  0.1195
18739W        W36943   7.214  17.641   4.544  0.2100 -0.1082  0.0571
18740W        W36944  15.979   6.543  12.946  0.2063 -0.8034 -0.1479
18741W        W36945   4.826  15.343  10.946 -0.1949 -0.1728  0.3430
18742W        W36946   0.507   5.372   4.966  0.1080  0.6192 -0.1059
18743W        W36947   6.495   3.102  10.798  0.0074 -0.1669 -0.2124
18744W        W36948   3.551  13.631  13.217  0.4057  0.1812 -0.0206
18745W        W36949  17.863  12.278   3.730 -0.1397  0.1137  0.1774
18746W        W36950  15.939   4.472   4.633 -0.2484 -0.4013  0.0213
18747W        W36951   0.492   1.224   0.301  0.1336  0.2944  0.1119
18748W        W36952   0.345   2.044  11.968 -0.0559 -0.0377 -0.0346
18749W        W36953  14.734   7.381  15.666 -0.0604  0.0953 -0.0610
18750W        W36954   5.330   0.637  14.503 -0.3483  0.4568  0.0101
18751W        W36955   6.861   3.705  16.060 -0.2788 -0.0137  0.2462
18752W        W36956   2.533   5.748  15.505  0.2355  0.1793  0.0798
18753W        W36957   2.095  17.140  15.494 -0.3442 -0.1039  0.1542
18754W        W36958   1.319  15.789  14.005  0.2553 -0.1094 -0.0822
18755W        W36959   2.357   3.950   2.025 -0.0592  0.0849 -0.2108
18756W        W36960   7.166   8.005   2.874  0.1694 -0.0085  0.1616
18757W        W36961  10.888   7.062   4.725 -0.1027  0.0334 -0.0818
18758W        W36962  12.861   1.215  14.075 -0.2371 -0.1868  0.0589
18759W        W36963   3.021   0.615  15.108  0.0250  0.2538 -0.1136
18760W        W36964  13.170  10.933  13.980 -0.2092  0.1947  0.1737
18761W        W36965   4.855   0.743  11.369  0.3001  0.0463 -0.1313
18762W        W36966  14.500  11.300  14.315  0.1580  0.0345  0.2101
18763W        W36967   8.236  13.521  10.652 -0.0546 -0.1232  0.1848
18764W        W36968   3.891  16.836   0.004  0.3286  0.1161  0.2116
18765W        W36969   2.401   9.245  13.074 -0.1333 -0.2514  0.2531
18766W        W36970  16.929  13.795   4.473  0.0653  0.1147 -0.1821
18767W        W36971   0.872   4.920   3.764  0.2972  0.3450 -0.2230
18768W        W36972   1.159   6.249  14.749 -0.0754 -0.0413 -0.4189
18769W        W36973  14.456   0.745  11.946 -0.3551  0.1902 -0.3029
18770W        W36974   7.690   2.319  12.045 -0.3302  0.0452  0.1473
18771W        W36975  11.566   4.132   5.055 -0.1460 -0.0542 -0.0500
18772W        W36976   3.753  14.462  14.355 -0.0308 -0.1023  0.0198
18773W        W36977  10.969  12.513   4.703  0.1311 -0.0977  0.0362
18774W        W36978   3.094  12.792  13.424 -0.0202 -0.0013 -0.2580
18775W        W36979   6.660   8.293  15.551  0.1007 -0.0889 -0.1611
18776W        W36980  17.250   6.185  13.853  0.3156 -0.1587  0.0829
18777W        W36981  10.650  17.919  13.178 -0.0432  0.0331  0.0032
18778W        W36982  16.950   4.461  15.069 -0.1783  0.4520  0.1575
18779W        W36983  10.615   0.923  11.446  0.1448  0.0525 -0.0314
18780W        W36984  10.024  14.991   1.128 -0.2378 -0.0216 -0.1165
18781W        W36985   8.391   5.381  13.417  0.1809 -0.3800 -0.2639
18782W        W36986   1.574  11.508   0.525 -0.2814  0.0018 -0.1104
18783W        W36987  15.067   9.705  15.822  0.0658 -0.1689  0.2796
18784W        W36988  10.771   8.787   1.724 -0.0333  0.0574 -0.2858
18785W        W36989   8.315  14.652  14.892  0.2426  0.1843 -0.0617
18786W        W36990   0.861   3.448  15.430  0.3360 -0.0397 -0.1013
18787W        W36991  11.150  13.235   2.762  0.3084  0.0274  0.1473
18788W        W36992  17.666  17.776  13.432 -0.2100  0.2234 -0.2286
18789W        W36993  10.980   1.089  15.193 -0.0309 -0.0106 -0.0253
18790W        W36994   8.413  17.477  15.793  0.1754 -0.0172 -0.0929
18791W        W36995  13.496  12.882   0.916 -0.0180  0.4401  0.3812
18792W        W36996  10.579   0.452  12.308 -0.0976 -0.0101 -0.0555
18793W        W36997  16.411   5.113  11.576  0.2501 -0.0790  0.2018
18794W        W36998   4.486  14.821   2.905  0.2286 -0.1248 -0.0944
18795W        W36999  13.621  12.876  13.983 -0.1056 -0.4879 -0.1191
18796W        W37000  16.951  16.308  14.071 -0.0396  0.1042 -0.2320
18797W        W37001   8.027  16.870   4.676 -0.0374  0.2373 -0.3524
18798W        W37002   2.937   0.240   2.766 -0.0134  0.3058  0.1421
18799W        W37003   8.315  14.751  14.264 -0.1650 -0.2418  0.1004
18800W        W37004  17.455  13.931  11.730  0.3045 -0.0171 -0.2179
18801W        W37005   9.443   6.525  15.931 -0.0580 -0.2528  0.0247
18802W        W37006   9.118  13.198  11.866  0.0727  0.1401  0.0303
18803W        W37007   4.871   7.484   4.372  0.0937  0.0840  0.1067
18804W        W37008   6.447   5.971  14.009 -0.0650 -0.2566  0.2548
18805W        W37009   1.578  14.199   3.462  0.3272 -0.0464 -0.0531
18806W        W37010   9.447   0.112  11.169 -0.4225  0.0340  0.0207
18807W        W37011   9.921   3.036   5.113 -0.2113 -0.0634 -0.0941
18808W        W37012   0.019  12.856  13.073  0.0938  0.1015 -0.0398
18809W        W37013  10.120  14.544   3.641  0.0538  0.1598  0.0821
18810W        W37014  13.581  10.417   5.233 -0.1454  0.0603 -0.5506
18811W        W37015  10.098  17.029  13.154  0.2031  0.1885 -0.1134
18812W        W37016   7.415   7.589  13.831  0.0367  0.2279 -0.1800
18813W        W37017  16.296   1.834  12.553  0.2789  0.0232 -0.0569
18814W        W37018   1.274   7.079   3.172  0.1643  0.1095 -0.1714
18815W        W37019   3.869  16.774   4.335 -0.0197 -0.1058 -0.1418
18816W        W37020   9.429  17.355  15.505  0.1248  0.1237  0.0680
18817W        W37021  12.195   7.522  13.236  0.0728  0.1928  0.2454
18818W        W37022  10.565   2.924   1.102 -0.3260  0.3669 -0.4208
18819W        W37023  15.799   9.449  14.130  0.0728 -0.0001 -0.0336
18820W        W37024   8.335   4.523   5.747  0.0171 -0.1651 -0.0948
18821W        W37025   8.998   5.392   0.974  0.0195  0.2005 -0.1568
18822W        W37026  14.108  15.403   0.239 -0.2512 -0.1326 -0.1718
18823W        W37027  16.230   5.382  14.938  0.4789 -0.0529  0.1104
18824W        W37028  10.636   3.703  12.813 -0.1943 -0.0305 -0.1166
18825W        W37029   9.960  10.485  15.368  0.3254 -0.2567 -0.0800
18826W        W37030   9.325  15.765   3.842  0.0124  0.0705  0.2229
18827W        W37031   1.855  14.739   1.846 -0.1777  0.2475  0.0446
18828W        W37032  17.498  12.163   3.272 -0.1307  0.1027 -0.3176
18829W        W37033   5.847   9.583   1.296 -0.0841  0.0944 -0.0867
18830W        W37034   8.126  14.380  16.125 -0.2310 -0.0778 -0.1178
18831W        W37035  15.438   0.080  12.577 -0.0896  0.1872  0.0038
18832W        W37036  13.426   5.636   5.297 -0.0484  0.0092  0.0377
18833W        W37037   3.200   7.206   3.347 -0.1090 -0.0487 -0.0933
18834W        W37038   3.890   3.595  14.534 -0.0645  0.1787 -0.0174
18835W        W37039  12.244   6.977   6.255  0.0022  0.0213  0.2212
18836W        W37040  11.298   7.283  11.630 -0.1009 -0.2459  0.0688
18837W        W37041   5.938  13.307   3.102 -0.0453  0.4367  0.1095
18838W        W37042  11.506  12.883   0.788  0.2862  0.0755  0.0966
18839W        W37043   9.742  13.921  12.056 -0.3520 -0.1119 -0.3645
18840W        W37044   3.391   5.106  14.850  0.2614 -0.2998 -0.1331
18841W        W37045   7.625   0.454  12.435 -0.0125 -0.0173 -0.1171
18842W        W37046  14.326   0.336   1.901 -0.0606 -0.1465 -0.0851
18843W        W37047   8.527  15.773   4.846  0.1620 -0.2229 -0.1163
18844W        W37048   4.836   5.967  12.099  0.0440  0.0099 -0.4229
18845W        W37049  14.854  18.005   3.224  0.0190 -0.1714 -0.1034
18846W        W37050  11.960   4.390   2.032  0.0333  0.0411  0.3736
18847W        W37051   2.338   2.366   5.659  0.3906 -0.0010  0.1512
18848W        W37052   7.959   8.864  11.566 -0.1699  0.0682 -0.1056
18849W        W37053  14.534   3.204  15.986  0.1284  0.1292  0.0945
18850W        W37054   0.098   9.125   5.281 -0.1584  0.1685  0.2818
18851W        W37055   5.024  11.414  12.529 -0.0582  0.1518 -0.0933
18852W        W37056  13.194   1.813  15.591  0.2041 -0.1786  0.0928
18853W        W37057   4.360   2.863  12.552  0.0454  0.1821  0.2157
18854W        W37058   5.181  13.752  16.022 -0.0758 -0.0185 -0.1585
18855W        W37059  17.406  17.975  16.174  0.0045 -0.1390 -0.1353
18856W        W37060   6.597   9.188   3.336  0.0990  0.0546 -0.0123
18857W        W37061  16.810   2.014   1.302  0.1492 -0.1864 -0.0682
18858W        W37062  17.780  14.672  12.290 -0.0550  0.2345 -0.1268
18859W        W37063   8.633  17.279   2.847 -0.2717 -0.2931  0.2217
18860W        W37064   2.428  12.867   4.014 -0.1444  0.1727  0.0641
18861W        W37065   2.352  14.427  11.570  0.0628 -0.4572 -0.0194
18862W        W37066  12.465   1.005  14.729  0.0544 -0.2469 -0.0173
18863W        W37067  13.671   6.476   3.624 -0.1815  0.3778  0.1156
18864W        W37068  14.156  13.934  13.156 -0.1379 -0.0918  0.1467
18865W        W37069   2.480  16.994  12.737 -0.3093 -0.1137  0.0527
18866W        W37070  16.667  11.261  10.970 -0.1343  0.1504  0.0862
18867W        W37071   7.423  10.569  12.141 -0.0859 -0.4548  0.1230
18868W        W37072   1.449   0.994  14.872  0.3076 -0.0974  0.0697
18869W        W37073  13.372   6.821   0.568 -0.0425  0.0156  0.0091
18870W        W37074   9.919   4.298  14.093 -0.1527 -0.1823  0.0280
18871W        W37075  17.685   9.420  15.886  0.0373 -0.0764 -0.1100
18872W        W37076   4.534   2.568   3.337 -0.1666  0.0376  0.3788
18873W        W37077   8.651   6.759   4.445 -0.0126  0.0418  0.0689
18874W        W37078   6.076   4.380   4.001  0.1461  0.2865 -0.0005
18875W        W37079   2.437  12.388   4.262  0.0012 -0.0570  0.0856
18876W        W37080   9.898   8.068  13.583 -0.1039 -0.0384 -0.1697
18877W        W37081   5.402  17.328  13.455 -0.3480  0.2074  0.1166
18878W        W37082  12.782   2.515   0.489  0.2150  0.1409  0.0123
18879W        W37083   6.695  14.225  11.750  0.3943 -0.0013 -0.0148
18880W        W37084  17.231   4.389  13.807  0.1719  0.0582 -0.0441
18881W        W37085  16.272   3.738   4.110  0.1868 -0.0610 -0.0954
18882W        W37086  14.585  17.257   1.858 -0.2000 -0.1050  0.3475
18883W        W37087   6.923  13.327  11.962 -0.0406  0.0006 -0.2893
18884W        W37088   6.197   5.219  15.894 -0.0467  0.1331  0.0926
18885W        W37089  15.572   7.593  16.145 -0.1102 -0.0125 -0.0030
18886W        W37090   5.807   5.389  13.447  0.3257 -0.2091 -0.0368
18887W        W37091   9.514  10.011  12.303 -0.1703  0.4623  0.3060
18888W        W37092  13.741  12.448   2.039  0.1698 -0.1524  0.0769
18889W        W37093   3.879   5.989   2.730 -0.2794 -0.0142 -0.1145
18890W        W37094   8.065  16.440  12.464  0.1651  0.3603  0.1267
18891W        W37095  17.268   0.767  11.144 -0.2394 -0.0689  0.0159
18892W        W37096  11.269   8.587   3.617 -0.1332  0.1963 -0.1342
18893W        W37097  14.311   1.903  11.890 -0.1086 -0.4230  0.1815
18894W        W37098  11.501   4.939  15.771  0.2132  0.1263  0.0676
18895W        W37099  16.885  17.731   1.149 -0.1214  0.2063  0.0621
18896W        W37100  14.863   1.457  15.669  0.4363 -0.3029  0.1602
18897W        W37101   2.040   8.139   4.902  0.1022  0.3649  0.2177
18898W        W37102   2.359  10.886  13.293 -0.2832  0.4702 -0.1882
18899W        W37103  11.254  14.383  12.062 -0.2956 -0.4162 -0.0691
18900W        W37104  14.887  13.703   1.412  0.1233 -0.0981 -0.2779
18901W        W37105   2.087  15.128  12.187  0.0862 -0.2293 -0.1788
18902W        W37106   3.357  15.746  14.547 -0.0086  0.0561 -0.1587
18903W        W37107  13.853  14.242   0.095 -0.0316  0.0564  0.2360
18904W        W37108  13.744   4.453  15.084 -0.0981 -0.0483  0.0871
18905W        W37109   2.506   8.588  15.739 -0.2930 -0.0542  0.0508
18906W        W37110  14.904  11.772  12.135 -0.0421 -0.2761 -0.0558
18907W        W37111   9.956  16.829   2.207 -0.0751 -0.1372 -0.1260
18908W        W37112   3.040  11.519   2.426 -0.0028 -0.1481  0.1321
18909W        W37113  12.151  14.385  15.189  0.0563  0.0246  0.0407
18910W        W37114   9.240  12.726  13.678 -0.0077 -0.0365 -0.1420
18911W        W37115   3.888  16.432   0.858  0.0232  0.2278  0.0979
18912W        W37116   6.278   7.172   0.952  0.0864 -0.0117 -0.4723
18913W        W37117   8.942   4.885  15.627  0.3463 -0.3659 -0.1286
18914W        W37118  10.900   9.007   2.691 -0.0521 -0.1151  0.2594
18915W        W37119  16.376   1.861   4.139  0.0770  0.0184 -0.0276
18916W        W37120   0.037   9.629   4.563 -0.2453 -0.2305  0.0077
18917W        W37121  15.076   0.045   4.221  0.1348  0.1162  0.0392
18918W        W37122  15.946   6.130  15.012 -0.1329  0.0057  0.0656
18919W        W37123   4.071   9.081  14.906  0.0987 -0.0784 -0.2251
18920W        W37124   6.417  13.450  10.295 -0.0551 -0.3087 -0.0059
18921W        W37125   6.702   0.327  10.779  0.1330  0.0352  0.0365
18922W        W37126  17.668  15.035   0.273 -0.0808  0.1374  0.4515
18923W        W37127   9.053  14.846  11.842 -0.0253  0.1296 -0.0690
18924W        W37128   8.528   0.606  13.557 -0.1834 -0.2326  0.2238
18925W        W37129   1.757  12.692   3.770  0.0314 -0.0713  0.0817
18926W        W37130   5.881   1.804  12.084 -0.1933  0.1587 -0.0165
18927W        W37131   1.212   4.018   2.767  0.0602 -0.2835  0.1340
18928W        W37132  10.466   5.316  14.579 -0.0271  0.0365 -0.2558
18929W        W37133  11.579  13.362   3.631 -0.0561 -0.1652  0.0523
18930W        W37134  15.791   5.930   3.034 -0.0749 -0.2023  0.1371
18931W        W37135   6.715   0.265   0.097 -0.4255  0.3079  0.3156
18932W        W37136   4.272  12.956   2.706 -0.4123 -0.0615 -0.0521
18933W        W37137   6.709   6.119   4.710  0.1860 -0.0967  0.1595
18934W        W37138   6.086   8.600  14.958  0.0550 -0.3327  0.0484
18935W        W37139  10.448   1.892   2.791  0.4169 -0.1702  0.2209
18936W        W37140  10.456   2.036  10.919 -0.1750 -0.4455  0.0371
18937W        W37141  12.746   2.805  13.809 -0.0787  0.0968 -0.0227
18938W        W37142  14.985  14.832  11.851 -0.0846 -0.0105  0.0271
18939W        W37143   5.213   4.006   0.637  0.0372 -0.1579 -0.0016
18940W        W37144   9.027  14.800  13.009  0.0555  0.0391 -0.1856
18941W        W37145   1.438  16.807   0.615  0.2620  0.1471 -0.1703
18942W        W37146  10.398   7.192  13.415  0.1521  0.2581  0.2109
18943W        W37147  16.608   9.153   2.338 -0.2499 -0.1562 -0.3902
18944W        W37148   2.710   3.510  11.595 -0.0506 -0.3382  0.1461
18945W        W37149  16.319   7.678   1.994 -0.2406 -0.1226 -0.2428
18946W        W37150   0.194  15.120   1.729 -0.2902  0.0904  0.0992
18947W        W37151  17.942  14.689   3.116  0.0976  0.1191  0.3767
18948W        W37152   6.838   3.199  12.563 -0.3848 -0.3730  0.0394
18949W        W37153   4.328  16.650   3.516 -0.0427  0.0944 -0.0504
18950W        W37154  16.199   3.388  15.365 -0.2113 -0.2091 -0.1433
18951W        W37155   1.878   5.058   5.651 -0.0293 -0.0713  0.4566
18952W        W37156  15.504   6.617  12.987 -0.4478 -0.1945 -0.2216
18953W        W37157   1.254  16.976  11.481  0.1835 -0.1275  0.0585
18954W        W37158   6.442   2.344  13.377 -0.1065 -0.0319  0.2407
18955W        W37159  16.965  15.030   2.313 -0.0512  0.1983  0.0144
18956W        W37160   7.495   8.136   1.077  0.1106 -0.3609 -0.3425
18957W        W37161  10.472  17.615   3.494  0.0711  0.0930 -0.0546
18958W        W37162   9.609   8.475  13.455  0.1939  0.1164  0.0308
18959W        W37163  15.114  16.481  10.968  0.0161 -0.0355 -0.0087
18960W        W37164  16.489   9.816  11.919 -0.3591 -0.1023 -0.1240
18961W        W37165   4.007   7.995   0.587  0.3014  0.2203  0.0545
18962W        W37166   5.410   4.681   2.945 -0.1719 -0.1344 -0.1324
18963W        W37167  15.351   0.024  10.789 -0.1773  0.0189  0.1734
18964W        W37168  11.267   2.807  15.100  0.2140  0.2162 -0.2432
18965W        W37169   9.733   8.549   1.634 -0.1623  0.0664  0.0190
18966W        W37170  15.765  16.973  14.714 -0.1530  0.0277  0.0134
18967W        W37171   2.288  14.246   0.244 -0.0147  0.0039  0.1381
18968W        W37172   1.795  16.403  15.282 -0.2081  0.1673 -0.0972
18969W        W37173   2.221  17.751  15.279 -0.0305 -0.2045  0.3491
18970W        W37174  16.220   3.781  15.044  0.0522  0.2913 -0.2347
18971W        W37175   2.309   5.359  12.935 -0.2706 -0.0644  0.2858
18972W        W37176   7.929   7.711   3.807 -0.0672  0.3076 -0.0410
18973W        W37177   4.103  12.425  12.082 -0.1292  0.2570  0.1196
18974W        W37178  17.288   1.259   1.666 -0.0220 -0.1239  0.1396
18975W        W37179   6.203  17.656   1.711 -0.1004  0.0512  0.0182
18976W        W37180  12.790   9.330   0.875 -0.0130 -0.1458  0.0595
18977W        W37181   0.341   7.583   4.382  0.3584 -0.0893 -0.0493
18978W        W37182  10.166  12.938  15.910 -0.2732 -0.0195 -0.0000
18979W        W37183  12.157   1.264  12.523 -0.3686  0.4075 -0.0983
18980W        W37184   8.646  16.395  11.587 -0.1217 -0.0087 -0.0773
18981W        W37185  17.207  17.257  11.680 -0.0981 -0.1288  0.1131
18982W        W37186  12.613   7.107  12.854  0.0769  0.0605 -0.2118
18983W        W37187  13.445  14.789   1.504 -0.0857 -0.0368  0.0480
18984W        W37188   3.265   5.885   3.521 -0.0127  0.0083  0.1203
18985W        W37189  15.940  14.926   0.482  0.0470  0.1472 -0.0786
18986W        W37190   2.072   6.462  16.044 -0.0204  0.1354 -0.2070
18987W        W37191  13.784   8.961   3.098 -0.0272  0.1279 -0.0924
18988W        W37192   1.020   1.879   0.561 -0.0837 -0.1446 -0.3015
18989W        W37193  15.930  17.102  11.131  0.1852 -0.2667  0.0539
18990W        W37194   4.545   8.965   1.687  0.0180 -0.1406  0.0175
18991W        W37195   8.031   6.033  15.774  0.1536 -0.0110 -0.1337
18992W        W37196   3.516   6.197   4.689  0.0599  0.2383 -0.0665
18993W        W37197   8.176   9.760  13.536  0.0445  0.3559  0.0185
18994W        W37198   0.839   8.184  11.879 -0.0692 -0.2496  0.3261
18995W        W37199  11.947   9.464   0.599  0.0343 -0.3191  0.1216
18996W        W37200  14.858   4.300   3.183  0.0688  0.1383 -0.1241
18997W        W37201   1.446   7.698  14.777 -0.1456  0.1255  0.1731
18998W        W37202  10.484  13.550   2.256 -0.3362  0.0813  0.0918
18999W        W37203   9.608  17.607   4.750 -0.0440 -0.3446  0.0741
19000W        W37204  10.421   1.075   3.091 -0.1179  0.1451 -0.1824
19001W        W37205   1.197   1.776  11.137 -0.0937  0.2255 -0.2224
19002W        W37206  13.079   6.510  14.164  0.0144  0.0255 -0.1405
19003W        W37207   9.325  16.586  15.393  0.1889  0.0611 -0.3481
19004W        W37208   2.297  12.316  13.991  0.1806  0.2861 -0.1289
19005W        W37209   5.712   5.966   1.361  0.1953 -0.0042  0.1765
19006W        W37210  13.859   7.686  14.471  0.1000  0.1859 -0.1400
19007W        W37211   6.939   5.074  12.263  0.0584 -0.2136  0.0514
19008W        W37212  15.780  13.544   3.498 -0.1955 -0.1019 -0.1146
19009W        W37213   8.530  18.028  10.888  0.3414 -0.2195 -0.1792
19010W        W37214   9.523  11.162  14.521 -0.0331 -0.0479  0.1059
19011W        W37215   4.654  13.184  11.861  0.0328 -0.2296 -0.1295
19012W        W37216  17.286   6.728   0.471  0.1546  0.1808 -0.2113
19013W        W37217   5.111   0.180  14.630 -0.1857 -0.0176 -0.1026
19014W        W37218   2.806   2.309  12.473 -0.0753  0.0639 -0.1198
19015W        W37219  10.708   0.873   4.193  0.0429 -0.0500  0.2424
19016W        W37220  15.231   0.918  12.312  0.0590  0.2498  0.1148
19017W        W37221   3.551   1.222   5.618 -0.1114  0.3123 -0.0318
19018W        W37222   5.641  11.807   0.460 -0.1398 -0.4786 -0.0026
19019W        W37223   7.529  15.625  13.322  0.4210  0.2047 -0.2141
19020W        W37224   3.387   3.231  14.185 -0.1657 -0.0659 -0.0972
19021W        W37225   9.175   9.514   4.764  0.0466 -0.1136  0.3488
19022W        W37226  15.051   0.835  10.572 -0.1776  0.1001 -0.1454
19023W        W37227  13.157   0.577   1.692  0.0314 -0.1108  0.1773
19024W        W37228   6.053   0.619   1.212  0.0567 -0.0793 -0.0550
19025W        W37229  14.299   3.574  13.608 -0.1129  0.0556 -0.1545
19026W        W37230  14.937   3.478  12.590 -0.1518  0.1431  0.0971
19027W        W37231  13.053   7.149   4.403  0.1531 -0.0613  0.3076
19028W        W37232   9.823  14.210   2.412 -0.1311 -0.0499 -0.0178
19029W        W37233   7.210   0.458  13.488 -0.0177  0.1937 -0.0719
19030W        W37234   5.601  16.582   4.932 -0.0103  0.2452 -0.1951
19031W        W37235   1.752  12.598   1.737 -0.3046  0.3361  0.0597
19032W        W37236   1.637  13.692  14.762  0.1010  0.1389 -0.0514
19033W        W37237   6.427   3.420  15.914 -0.2179  0.2948 -0.1203
19034W        W37238   8.370  13.196   3.220 -0.1111  0.2260  0.0097
19035W        W37239  13.867   5.088  14.109  0.1727 -0.0415 -0.1131
19036W        W37240  16.840  17.773  14.815 -0.0120 -0.2892 -0.2036
19037W        W37241  16.787   3.658  13.024 -0.0435  0.3406 -0.1850
19038W        W37242   0.035   2.649   0.478 -0.0942  0.2135 -0.1786
19039W        W37243  11.186   6.185   4.594  0.0638 -0.0610  0.2657
19040W        W37244   2.503   5.088   1.296 -0.0514  0.0310  0.0598
19041W        W37245  15.130   8.802   1.986  0.2641  0.2102 -0.0307
19042W        W37246   4.746   9.116   2.163 -0.1168 -0.1620  0.2390
19043W        W37247   6.854   5.425  14.437 -0.0417 -0.0602  0.1195
19044W        W37248   0.368   1.849  14.080  0.1002  0.3392 -0.2096
19045W        W37249   8.397   7.806  13.296  0.0068 -0.0542 -0.0671
19046W        W37250   1.833  14.772  13.084  0.0326 -0.2032  0.0097
19047W        W37251  16.374   5.197   3.246  0.1044  0.0272 -0.0329
19048W        W37252  14.230  12.768  15.241  0.0828 -0.3451  0.0086
19049W        W37253   1.229   7.265  14.864 -0.0324  0.2474  0.3036
19050W        W37254  10.481  13.324  11.641 -0.1772 -0.1165 -0.3343
19051W        W37255  16.836   5.268   3.497 -0.0770 -0.1172 -0.0977
19052W        W37256   8.523   3.767   3.276 -0.1609  0.2350 -0.1910
19053W        W37257   5.160   2.556  12.650 -0.0490  0.2346  0.1913
19054W        W37258   8.940  15.235   5.642 -0.1601  0.3019 -0.2085
19055W        W37259   6.064   7.292   3.236 -0.2155  0.2117  0.5378
19056W        W37260   4.531   8.274   3.079  0.2207 -0.0111 -0.1707
19057W        W37261   0.532  13.463  15.617 -0.0197  0.3428 -0.2019
19058W        W37262   2.798  13.631   1.391 -0.2429 -0.4022 -0.0939
19059W        W37263   6.192   1.558   0.145  0.0656 -0.1537  0.2513
19060W        W37264   0.057   0.143  15.639 -0.2648 -0.1479  0.2209
19061W        W37265  15.882   8.862  15.284  0.0351 -0.2270  0.4828
19062W        W37266  14.788  16.851  11.919 -0.1633 -0.2325 -0.0322
19063W        W37267   4.535  17.206  12.978  0.0992 -0.1656 -0.2438
19064W        W37268   0.911   0.445   4.663  0.0239 -0.0574 -0.1712
19065W        W37269   3.504  16.714   1.159  0.0772 -0.1974  0.0998
19066W        W37270   3.279   6.920  13.076  0.0148  0.3209 -0.2148
19067W        W37271   6.730  11.797   3.588 -0.1019  0.0533  0.1566
19068W        W37272   1.362   1.501  11.588 -0.1451  0.1373 -0.0169
19069W        W37273   5.146  12.082  15.077  0.1659 -0.4221  0.2727
19070W        W37274  15.598  13.792   3.044 -0.1271  0.0698 -0.1114
19071W        W37275  11.567   4.768  15.276 -0.0757 -0.0406  0.2343
19072W        W37276   0.499   2.663  13.222  0.0537  0.0810  0.0854
19073W        W37277   9.335  15.299  13.640 -0.2639  0.0315  0.4260
19074W        W37278   4.647  16.491  11.586 -0.1981 -0.1123  0.2595
19075W        W37279  14.634  14.844   1.147 -0.3944  0.1451  0.0059
19076W        W37280   3.262   9.502  13.309 -0.0058 -0.0884 -0.2313
19077W        W37281   5.763  14.283   3.225  0.1425 -0.1565 -0.1410
19078W        W37282   1.530  14.783   4.409 -0.2035 -0.0220 -0.1204
19079W        W37283   2.311  17.516   2.434 -0.0399  0.1640 -0.1184
19080W        W37284  16.170  15.668  15.148 -0.2352 -0.3265  0.3212
19081W        W37285  13.074   1.730  11.955  0.0622  0.0615  0.2212
19082W        W37286   3.512   2.841   4.647  0.3271 -0.5093  0.1373
19083W        W37287   1.513  15.255   0.088  0.2612  0.0862 -0.2156
19084W        W37288  10.169   5.849   1.474 -0.0693  0.0414 -0.1367
19085W        W37289   3.213   7.195  11.739  0.0666 -0.2475  0.3218
19086W        W37290  11.451  10.586   2.081 -0.0366 -0.3712 -0.1170
19087W        W37291   1.654  15.415  13.837 -0.1041 -0.3272  0.0184
19088W        W37292  16.100   2.636  11.711  0.0503 -0.1277  0.0437
19089W        W37293   8.993   7.230  12.900  0.0990  0.6497  0.0064
19090W        W37294  16.438   6.829  15.326  0.1393 -0.0509  0.1151
19091W        W37295  14.944   4.092  16.145  0.0156 -0.0662  0.1253
19092W        W37296  12.777   6.464  14.620 -0.0169 -0.0389 -0.0306
19093W        W37297   9.229  12.682  11.581  0.0840 -0.5056 -0.0471
19094W        W37298   3.328   3.331  13.702  0.1466 -0.0719  0.0111
19095W        W37299  11.883  17.380   0.971  0.0918  0.1186 -0.2286
19096W        W37300   2.668   9.023   5.845 -0.2883  0.0511  0.0717
19097W        W37301   7.644   6.796   3.415  0.0934 -0.0984  0.2036
19098W        W37302   1.709   7.261   4.255  0.1848 -0.2729 -0.0942
19099W        W37303  12.906  15.444   2.503  0.1208  0.0678 -0.2239
19100W        W37304   0.504  10.198  11.776  0.0347 -0.1180  0.3512
19101W        W37305  13.619   0.510  14.517 -0.3529  0.0128  0.3116
19102W        W37306   2.053  17.075  11.889  0.0038 -0.1088  0.1211
19103W        W37307  16.416   6.934   0.471  0.0656  0.0638  0.1162
19104W        W37308   5.250   9.504   0.606  0.0138  0.0799 -0.0463
19105W        W37309   2.400   5.064   0.763  0.0249 -0.0828 -0.0492
19106W        W37310  12.796  12.963  12.531 -0.0661 -0.1783  0.1540
19107W        W37311   9.697   6.604   5.794 -0.3548 -0.3327 -0.0666
19108W        W37312  16.753  12.705  11.712  0.0633 -0.0504  0.0340
19109W        W37313   8.855  13.965   2.438  0.0756  0.0799 -0.1259
19110W        W37314   1.863  10.785   1.932  0.1431 -0.0979 -0.0702
19111W        W37315  17.292   6.294  11.336 -0.2229  0.2469 -0.1185
19112W        W37316   9.776   0.329   1.371 -0.0433  0.0685 -0.1419
19113W        W37317   4.971   9.811   2.889 -0.1823 -0.0541 -0.0781
19114W        W37318   6.690  12.440  15.915  0.0708  0.0348 -0.2096
19115W        W37319   8.800  11.318  15.754  0.0122  0.1923 -0.0136
19116W        W37320   0.807  12.838   1.287  0.1027  0.0919  0.0343
19117W        W37321   1.946   2.766   1.755 -0.2825  0.0999  0.0938
19118W        W37322   9.213   6.682   1.171  0.0048  0.1050 -0.0343
19119W        W37323   7.569  16.903   0.724 -0.2565  0.0818  0.1694
19120W        W37324  16.498   0.581   3.526  0.2716  0.1586  0.1613
19121W        W37325   6.243  14.870   4.250  0.1003 -0.2278  0.1459
19122W        W37326  16.748  10.156   3.954  0.2526 -0.3931 -0.1019
19123W        W37327   7.533   0.428  14.929  0.1011 -0.5232  0.0837
19124W        W37328   5.225  16.430   2.867 -0.0807  0.0918  0.0722
19125W        W37329   7.984   6.281   0.659 -0.0675 -0.1991 -0.0636
19126W        W37330   1.739  17.678  11.148 -0.0052 -0.0758 -0.2621
19127W        W37331  15.465   2.119   2.491 -0.1658  0.3008 -0.1329
19128W        W37332   0.494  10.722   0.544  0.0734 -0.0492  0.0687
19129W        W37333  14.818   6.029  15.749 -0.0999  0.3008 -0.2740
19130W        W37334  16.576  12.034   0.261 -0.2020 -0.2582  0.0210
19131W        W37335   9.758   4.680   2.030  0.3463  0.0261  0.1615
19132W        W37336   1.716  12.958  14.208  0.0264 -0.1075  0.2325
19133W        W37337  10.091   5.268   2.915 -0.1300 -0.2269 -0.1042
19134W        W37338   8.860  14.802   3.155  0.2102 -0.2454 -0.2701
19135W        W37339   8.821  12.490  15.127  0.3423 -0.2239  0.3278
19136W        W37340   0.943   4.820   3.212  0.2117  0.0127  0.1883
19137W        W37341   0.452  14.088   5.529 -0.2422  0.0042 -0.0611
19138W        W37342   1.243  17.897  11.365 -0.0080 -0.2538  0.0105
19139W        W37343   6.475   0.333  14.021 -0.0589  0.1242  0.2734
19140W        W37344   8.556   5.362  14.518  0.1879 -0.2467 -0.3695
19141W        W37345  15.353  16.905   3.693 -0.2420  0.1721  0.0561
19142W        W37346   3.734  12.576   3.090 -0.0840 -0.1092 -0.2807
19143W        W37347   1.121   5.042   1.405  0.2176 -0.3560 -0.2184
19144W        W37348  17.946   0.415  13.339 -0.1938 -0.2342  0.0912
19145W        W37349  11.485  10.412  13.779  0.1871  0.2448  0.0345
19146W        W37350  13.194   0.716  11.717 -0.1485 -0.0223  0.3047
19147W        W37351  13.398   7.774   2.252  0.0774  0.1912  0.1352
19148W        W37352  13.375   6.772  13.799 -0.2348 -0.1432  0.1366
19149W        W37353   9.487   4.161   0.491 -0.1019 -0.0310 -0.0382
19150W        W37354   9.440   1.231  13.819  0.0872 -0.2122  0.0204
19151W        W37355   2.927   3.256  13.434  0.1545  0.5710 -0.1253
19152W        W37356   1.540   7.052   1.948  0.1775  0.1061 -0.1609
19153W        W37357  10.161  17.133  11.890  0.2888 -0.0619  0.0073
19154W        W37358   1.056  16.302   2.538  0.2289  0.2273 -0.2322
19155W        W37359  17.600  17.043   2.433 -0.0847 -0.2134  0.0247
19156W        W37360   9.998  12.086  13.940  0.2372  0.3909  0.2928
19157W        W37361  16.203   5.278   0.529 -0.0900  0.1666  0.0209
19158W        W37362  11.427   2.291  12.545 -0.2065 -0.0052 -0.0308
19159W        W37363  11.643  12.910  11.458 -0.0505  0.2590  0.0583
19160W        W37364   4.874   3.038   1.084  0.0014 -0.0720  0.2438
19161W        W37365   3.464  10.370   0.433  0.0828  0.1690  0.3648
19162W        W37366  12.689   5.029   0.198  0.4068 -0.0195 -0.1185
19163W        W37367   4.593  12.898   1.383 -0.4336 -0.0790  0.0050
19164W        W37368   2.670   2.304   1.977  0.1871 -0.0327 -0.2454
19165W        W37369  12.751  17.632   0.495 -0.3262 -0.1245 -0.3672
19166W        W37370  13.834   8.203  12.490  0.0477  0.1748 -0.0825
19167W        W37371  11.824   7.035   0.897  0.0122  0.0371  0.0274
19168W        W37372  16.701  11.408  14.030  0.1819 -0.1657 -0.0963
19169W        W37373  17.538  12.999  14.529 -0.1988 -0.2799 -0.1501
19170W        W37374  17.420   0.590  10.109  0.1263  0.2347 -0.1939
19171W        W37375   6.790  13.654  10.593 -0.4334 -0.0093  0.0359
19172W        W37376   1.199   2.182   1.558  0.2174  0.2064 -0.1038
19173W        W37377   1.964  10.396  12.493 -0.0709 -0.1858 -0.1866
19174W        W37378  14.754  13.244  16.150  0.0334 -0.0277 -0.1521
19175W        W37379   8.770   9.143  13.683  0.1722 -0.2504 -0.1280
19176W        W37380  16.849  10.689   3.359 -0.1942  0.2441 -0.2065
19177W        W37381  15.067   5.310   2.126  0.1177 -0.1089  0.0190
19178W        W37382   6.341  13.121  12.705 -0.0920  0.1568 -0.1762
19179W        W37383   7.778   3.373  15.177  0.0201 -0.2622 -0.0533
19180W        W37384   1.007   5.035  12.504  0.0050 -0.1999 -0.2488
19181W        W37385  13.938  16.697  10.457  0.1821  0.0305  0.3095
19182W        W37386   4.311   8.218   4.180 -0.3612 -0.1797  0.0061
19183W        W37387   3.033   5.934   1.489  0.0074 -0.2983 -0.4940
19184W        W37388  15.145  10.310   4.039  0.0782 -0.2622  0.2128
19185W        W37389  13.580   0.637   3.902 -0.2419  0.0452  0.0563
19186W        W37390  11.187  17.341  12.160 -0.0715  0.0458  0.2800
19187W        W37391   5.533   3.370   3.197 -0.1767  0.1287 -0.0273
19188W        W37392   6.420   9.133  11.637 -0.2713 -0.0927 -0.0138
19189W        W37393   4.148   3.001  11.294 -0.0982  0.2780 -0.0812
19190W        W37394  11.269  12.562   1.166  0.1179 -0.0541 -0.3417
19191W        W37395   2.404  11.676   3.090  0.1276 -0.3887  0.2134
19192W        W37396   7.498   3.442  11.703  0.0729  0.0852  0.0360
19193W        W37397   8.195  13.717   3.762  0.1172 -0.0295 -0.0057
19194W        W37398   2.363  14.300  14.505  0.3772 -0.1336 -0.0508
19195W        W37399   6.277   8.720   1.574  0.2055  0.0495 -0.0997
19196W        W37400   2.386   5.839   4.037 -0.1529  0.1165 -0.2428
19197W        W37401   4.736  15.556  12.614  0.2458 -0.3619  0.0725
19198W        W37402  11.971  13.787   0.577 -0.0000 -0.1982  0.0531
19199W        W37403  15.736   3.055  12.934  0.1013  0.0098 -0.1860
19200W        W37404   1.219   9.040   0.084  0.3403 -0.1638 -0.0775
19201W        W37405  11.653   2.998   2.257 -0.3675 -0.1008 -0.2915
19202W        W37406   4.960   0.840  14.034 -0.3582 -0.2771  0.0962
19203W        W37407   2.326   9.358   0.474 -0.2642 -0.1248  0.3176
19204W        W37408   5.840   8.183  16.127  0.0652 -0.1439 -0.1365
19205W        W37409   6.635  11.996   4.489 -0.4345  0.1173  0.0448
19206W        W37410   8.044  13.214   0.394  0.1654  0.2211 -0.3925
19207W        W37411   7.152  10.813  14.132  0.0377  0.0868 -0.2177
19208W        W37412  15.840  11.318   1.850  0.0221  0.1367  0.3643
19209W        W37413   6.661  15.060   4.457  0.1809 -0.0039  0.2545
19210W        W37414  16.957   2.225   4.307  0.1678 -0.0877 -0.0506
19211W        W37415   3.232   4.049   4.728  0.4567  0.2275  0.2355
19212W        W37416   3.076   2.719  14.279  0.4463 -0.1167  0.0951
19213W        W37417   7.979  13.136   5.323  0.1469 -0.0219 -0.2880
19214W        W37418   4.962   6.008   2.970 -0.0845  0.0667 -0.0507
19215W        W37419  12.650  15.420  15.010 -0.0689 -0.1004  0.0398
19216W        W37420  10.953   1.295  14.531 -0.1275  0.1170 -0.2184
19217W        W37421  10.443  12.483  12.766 -0.1122  0.1223 -0.1814
19218W        W37422  12.112   0.058  11.308 -0.2105  0.2297 -0.1618
19219W        W37423  11.487  16.315   1.508 -0.1002 -0.1773  0.0777
19220W        W37424   2.444  15.823   1.722 -0.0107  0.1240 -0.0659
19221W        W37425   3.306   2.433   3.780  0.1066 -0.1710  0.1860
19222W        W37426  13.186  11.183  12.142 -0.0435  0.1451 -0.0147
19223W        W37427  16.127  16.345   4.570 -0.0496 -0.1489 -0.1018
19224W        W37428   5.179  10.891   1.434 -0.3730 -0.1467  0.1192
19225W        W37429  15.560   4.956   0.062  0.0100  0.0316  0.1159
19226W        W37430   5.860  10.909   1.960  0.0752 -0.0197  0.0647
19227W        W37431   1.799  17.456  12.152 -0.0449  0.0904 -0.3425
19228W        W37432  11.402  12.913   2.545 -0.1535 -0.0451 -0.0677
19229W        W37433   1.333   6.977  11.789 -0.1118 -0.1470  0.0065
19230W        W37434   6.757   3.403  11.251 -0.2148 -0.1808 -0.4159
19231W        W37435   7.188   1.178   3.394  0.0389  0.0686 -0.1184
19232W        W37436   5.964  16.465  12.162  0.2550 -0.0397 -0.2538
19233W        W37437   2.425   6.637   1.819  0.3232  0.2262 -0.1330
19234W        W37438   6.793   9.182  11.132 -0.1026  0.1983 -0.4946
19235W        W37439   9.206  12.422  14.107  0.3873  0.2357  0.1563
19236W        W37440   4.228   3.320  15.567  0.0516 -0.2929 -0.1326
19237W        W37441   9.084   5.241  15.240 -0.3331  0.1744  0.0393
19238W        W37442  17.014   1.043  15.972 -0.1898  0.2373  0.1651
19239W        W37443  13.055   5.985  15.550 -0.1070 -0.1643 -0.1883
19240W        W37444   4.446  11.765  15.682 -0.1255 -0.1087  0.1203
19241W        W37445   5.786  11.292  10.957  0.1314  0.1799  0.0927
19242W        W37446  12.536  11.204   4.775  0.0304 -0.0783 -0.3468
19243W        W37447   1.562   1.533  12.626 -0.1783  0.1048 -0.2741
19244W        W37448   7.368   2.336   1.480  0.2889  0.0354 -0.0727
19245W        W37449   3.395  10.446  11.242 -0.0586  0.0144 -0.0042
19246W        W37450   7.656   5.507   4.304 -0.0039  0.1319 -0.1596
19247W        W37451  13.129   5.894   2.746 -0.0309 -0.4025  0.1734
19248W        W37452   1.754  13.030  15.160  0.2679 -0.0605  0.0215
19249W        W37453   7.557   9.204  12.026 -0.0845 -0.0298 -0.1056
19250W        W37454  11.776  16.119   3.114  0.4504  0.4443  0.1844
19251W        W37455   1.467   1.077   3.305  0.1350  0.1104 -0.0318
19252W        W37456   8.496  10.949   1.734  0.0675  0.2753  0.0007
19253W        W37457  16.722   9.694   2.238 -0.1123  0.1492 -0.3039
19254W        W37458  17.557  13.268  14.062 -0.0075 -0.1026 -0.2155
19255W        W37459  15.536   7.106  15.962 -0.0319  0.3175  0.5871
19256W        W37460   0.818  16.083   1.628  0.1328  0.1440  0.1557
19257W        W37461   3.878   4.889  15.197  0.0248  0.1167  0.1714
19258W        W37462   5.265  10.398  11.670 -0.0436  0.0764 -0.0457
19259W        W37463  14.993   4.386  12.349  0.0664 -0.0308  0.2467
19260W        W37464   1.903   9.983  14.267  0.3326 -0.2216  0.0965
19261W        W37465  15.483   6.857  14.431 -0.3177 -0.0917  0.3352
19262W        W37466  11.291  11.981  12.434  0.1489  0.2709  0.4411
19263W        W37467   5.278   6.298   0.111  0.3525 -0.0785  0.0238
19264W        W37468   4.248  16.539   4.451  0.0343 -0.3554 -0.1666
19265W        W37469  14.637  13.543  12.172 -0.3198  0.0043  0.1351
19266W        W37470   4.488   4.866   3.190 -0.0629 -0.0020 -0.0171
19267W        W37471  11.697   0.837  11.626  0.2715 -0.2334 -0.0491
19268W        W37472  16.311   2.452  12.540 -0.0304 -0.1218 -0.2333
19269W        W37473  15.775  13.813  13.830 -0.0753  0.1069  0.0021
19270W        W37474   9.462   2.028   1.976  0.2471  0.4652 -0.0967
19271W        W37475   0.997   2.258  11.205 -0.0382  0.2146 -0.1721
19272W        W37476   8.093  16.838   0.983 -0.1758  0.1349  0.1058
19273W        W37477   8.287   0.608  15.446 -0.1225 -0.2966 -0.4884
19274W        W37478   6.726   5.906  14.518 -0.0722  0.0756  0.0818
19275W        W37479   9.539  14.424   0.721  0.1353  0.2784  0.0361
19276W        W37480  14.569   9.887  13.115 -0.0815  0.0874 -0.0978
19277W        W37481   1.622  16.239   3.415 -0.2377 -0.2135 -0.0895
19278W        W37482   7.643   7.078   4.429 -0.2418 -0.1155 -0.1752
19279W        W37483  10.611   8.883  14.222 -0.0475  0.0188  0.0537
19280W        W37484  12.150  12.264  15.255 -0.1346  0.2864  0.0536
19281W        W37485  14.684   0.017  11.550 -0.0975 -0.0856 -0.1169
19282W        W37486   7.766   0.182   0.481 -0.0494 -0.0936  0.2747
19283W        W37487  16.454  17.127   1.791  0.3991  0.2796  0.1618
19284W        W37488  11.902  13.642   1.077  0.0584  0.1816 -0.0644
19285W        W37489   1.305   9.967  15.961  0.1389 -0.0689  0.2031
19286W        W37490  17.120  11.996   2.890  0.1383  0.1756 -0.0554
19287W        W37491  12.625  13.247  14.503 -0.0195 -0.0920 -0.1214
19288W        W37492  13.613  13.385  11.589 -0.0037  0.1899 -0.2032
19289W        W37493   7.497  12.443  11.802 -0.3863  0.1907  0.0845
19290W        W37494   7.649  13.009   1.884  0.3029  0.1487  0.1646
19291W        W37495   4.889   2.434  13.784 -0.2503  0.0048  0.1384
19292W        W37496  16.088  16.704  15.035  0.2745  0.5504 -0.3968
19293W        W37497   9.937  15.329   5.643 -0.2479  0.0923  0.1369
19294W        W37498   9.496  16.222  15.812  0.0036 -0.0093  0.0632
19295W        W37499  12.324   9.512  12.173 -0.1427  0.3376 -0.1311
19296W        W37500  11.078  11.487  11.727 -0.2749 -0.3068 -0.1216
19297W        W37501  10.580   9.541   4.026  0.0228  0.4827  0.2942
19298W        W37502  14.953   2.069  11.678 -0.2583 -0.1325 -0.0794
19299W        W37503  17.818  14.285   1.985 -0.0385  0.0107 -0.2419
19300W        W37504   9.358   1.475  13.411  0.1238 -0.1747 -0.4361
19301W        W37505  11.236  12.364   2.672 -0.0383 -0.2456 -0.4383
19302W        W37506   8.813   0.249  15.249 -0.2054 -0.1631  0.2159
19303W        W37507  12.236  14.015   2.721 -0.1583 -0.1081 -0.0909
19304W        W37508  10.257  10.251  12.048 -0.1758  0.1870 -0.0234
19305W        W37509  14.480   3.214   1.641  0.1434 -0.2742  0.1311
19306W        W37510   2.181   3.319  15.215 -0.0089  0.2498 -0.0045
19307W        W37511   5.365   6.956   3.395  0.2676  0.2184  0.0545
19308W        W37512   7.094  10.258   0.016 -0.1955  0.0373 -0.3421
19309W        W37513  11.698   3.996   1.136 -0.1551  0.0471  0.0857
19310W        W37514  12.062   1.902  11.790  0.0336  0.2639  0.0046
19311W        W37515   2.471  13.340   3.867  0.3129 -0.1063 -0.0700
19312W        W37516   9.186   2.930   0.039  0.0956 -0.1798 -0.1438
19313W        W37517  15.156   8.385   1.659  0.0418 -0.3503  0.0718
19314W        W37518  13.949  16.415   3.240  0.2496  0.1105  0.3976
19315W        W37519   1.089  16.846  15.448  0.0613  0.0282 -0.3219
19316W        W37520  16.328   8.701  14.420 -0.1222 -0.4366  0.1681
19317W        W37521  10.359   7.676   1.313  0.3328  0.0578  0.2141
19318W        W37522  15.924  14.483   3.923  0.0490  0.0210 -0.3010
19319W        W37523   5.213  16.371   0.795  0.0152  0.1596 -0.1931
19320W        W37524  16.023   7.572  11.903  0.0306  0.0351  0.2438
19321W        W37525  17.181  18.042  13.572  0.2822  0.0294 -0.0509
19322W        W37526  13.722  11.097   3.164  0.1323  0.1087 -0.0043
19323W        W37527   3.652  12.603  12.158  0.1069 -0.3354  0.1635
19324W        W37528   3.258  16.901   2.037  0.0578 -0.2646  0.0252
19325W        W37529  17.718  11.994  14.641  0.1031 -0.0913  0.2304
19326W        W37530   2.916  16.227  11.521 -0.0743 -0.0626 -0.0380
19327W        W37531  14.242   5.333   4.813  0.3355  0.0520  0.0116
19328W        W37532  12.396   3.044   3.922 -0.0841  0.1498  0.1020
19329W        W37533  14.039   9.411   1.600  0.1458 -0.1592  0.4243
19330W        W37534  16.267   6.651  13.338 -0.2552  0.0756 -0.1138
19331W        W37535   2.204   2.532  15.141 -0.3391 -0.5103  0.1454
19332W        W37536   5.184  13.277  13.590 -0.2345 -0.5078 -0.1905
19333W        W37537  14.865  13.908   4.510  0.1406  0.0584  0.0582
19334W        W37538   2.433   8.751  13.024  0.0422 -0.2771 -0.2365
19335W        W37539  12.809   7.354   2.042 -0.0281  0.1272 -0.1348
19336W        W37540  10.388  12.290   2.597 -0.1642 -0.2460 -0.3707
19337W        W37541   6.830  13.968  12.463  0.0160  0.0571  0.1209
19338W        W37542   1.001   5.787   0.898  0.0111  0.2540  0.0370
19339W        W37543  10.519  15.647   1.580  0.0521  0.3098  0.2472
19340W        W37544  15.450   2.250   1.541 -0.1371 -0.2467  0.1898
19341W        W37545  17.208  12.965  11.884 -0.0816  0.0890 -0.1334
19342W        W37546   8.484  16.486  12.676 -0.1539 -0.1638  0.1014
19343W        W37547   7.190   5.014   2.399  0.1438 -0.0563  0.0900
19344W        W37548   4.280   2.014  15.743  0.3156  0.1435 -0.1231
19345W        W37549   2.856   0.108  14.563  0.2409  0.1343 -0.3076
19346W        W37550  12.508   1.130   1.796  0.1476  0.0207 -0.0490
19347W        W37551  12.840   5.883  12.353  0.2764 -0.2540  0.1618
19348W        W37552   1.600   0.168   3.506  0.2260  0.2168  0.0315
19349W        W37553   0.917  10.843   1.107 -0.3339 -0.3233  0.1145
19350W        W37554   4.662   0.278   1.748 -0.0165 -0.0480 -0.1377
19351W        W37555   1.574  17.851   2.002  0.0701  0.0321 -0.3556
19352W        W37556   8.391   8.502  15.565  0.1207 -0.0988 -0.0791
19353W        W37557   9.692  16.919  11.548  0.2522 -0.4413  0.2169
19354W        W37558   5.008  12.834  13.630 -0.0635  0.0683 -0.0139
19355W        W37559  14.157   3.531  15.844  0.2245  0.0689 -0.2277
19356W        W37560   2.172  12.907   1.534 -0.0930  0.0959 -0.0996
19357W        W37561  10.159   2.705   2.027  0.2228 -0.1122 -0.3425
19358W        W37562   5.998   6.415   3.085  0.0429 -0.3586 -0.2610
19359W        W37563   5.832  17.897  14.817  0.0201 -0.3056  0.3138
19360W        W37564  13.225   9.158   3.301  0.4028  0.2071 -0.0228
19361W        W37565   9.792   2.986   4.432 -0.1521 -0.1642  0.0214
19362W        W37566   7.920  16.167   2.107  0.1086 -0.0610  0.0219
19363W        W37567   5.680   1.486   3.182 -0.0245  0.1106  0.0499
19364W        W37568   2.989  14.565   3.797  0.0257 -0.1801 -0.0806
19365W        W37569  11.732  10.181   4.452 -0.1077 -0.1083  0.0312
19366W        W37570  16.374  10.842   1.150  0.0214  0.2408  0.0317
19367W        W37571   6.316   4.983   4.718 -0.2782 -0.0053 -0.0700
19368W        W37572   2.550   4.854  12.491 -0.0401  0.2447  0.2186
19369W        W37573  12.176   7.873  15.094  0.0168  0.0348 -0.0399
19370W        W37574   2.115  12.306   0.634  0.0445 -0.2698 -0.0135
19371W        W37575   3.915   5.473   3.857  0.0907  0.2453 -0.2223
19372W        W37576  16.176   4.568  14.984 -0.0033 -0.1544  0.0263
19373W        W37577   9.627  13.005   4.306  0.0731 -0.1251 -0.2411
19374W        W37578   2.535   5.503  10.564  0.2179  0.0122  0.0173
19375W        W37579  13.847   1.552  14.135  0.2757 -0.1256 -0.0720
19376W        W37580   5.530  11.682  15.723 -0.2654  0.0941  0.2766
19377W        W37581  12.899  11.414   0.525 -0.0320 -0.1504  0.1735
19378W        W37582  16.301   0.881  14.885  0.0975 -0.1416 -0.1450
19379W        W37583   8.539   8.770  14.372 -0.0608 -0.0510 -0.0414
19380W        W37584   1.577   0.623   4.681 -0.3529  0.1881 -0.2406
19381W        W37585  14.580   2.836  15.552  0.0241 -0.0460  0.2516
19382W        W37586   5.023   8.971  15.365 -0.2224  0.0363  0.0169
19383W        W37587   0.997   9.013   1.542 -0.2066 -0.3121  0.2766
19384W        W37588  15.382   2.023  12.625  0.1130  0.2038 -0.3762
19385W        W37589   7.387  12.577  13.492  0.2653  0.1218 -0.1988
19386W        W37590   0.791   6.182   2.606  0.0781  0.4233  0.0833
19387W        W37591   3.233  10.576   1.241 -0.2836  0.0401  0.1890
19388W        W37592   0.165  15.112   5.460 -0.1136  0.0700 -0.0844
19389W        W37593  14.373  17.373  11.363  0.1171 -0.0270 -0.0224
19390W        W37594   4.623   3.955  14.736 -0.0044  0.0337 -0.0671
19391W        W37595   1.152   3.102   2.114 -0.1798 -0.1298  0.0892
19392W        W37596  16.726   1.042  15.106  0.0180 -0.1029 -0.0265
19393W        W37597   2.560  17.574   3.471  0.2707 -0.1303  0.2041
19394W        W37598  13.474   2.373  14.016 -0.0441 -0.0426  0.1780
19395W        W37599   8.858   8.525   0.697 -0.1672  0.2061 -0.0506
19396W        W37600  15.269   7.309  14.435  0.3008 -0.2220  0.0141
19397W        W37601   8.704   5.216   4.618  0.1695  0.0289  0.2119
19398W        W37602  12.445   6.079  13.720  0.0955  0.2359 -0.0935
19399W        W37603   5.782  10.876   4.535 -0.2389 -0.3102  0.3036
19400W        W37604  14.096   5.590  14.245 -0.1639 -0.3229  0.0762
19401W        W37605   0.171  17.416  11.894  0.1993  0.3879 -0.0320
19402W        W37606   9.957  16.591   0.492 -0.0741 -0.2314  0.3011
19403W        W37607   6.639  15.906  12.871 -0.0221  0.1638 -0.2712
19404W        W37608   4.481   9.795  11.691  0.0939 -0.0725  0.0302
19405W        W37609  11.891   3.234   2.615 -0.0155  0.0200 -0.1152
19406W        W37610  13.862   2.212   3.033 -0.0121  0.0909  0.0410
19407W        W37611   1.294  12.950  12.398  0.0652  0.1782 -0.1401
19408W        W37612   9.515  13.135  11.488 -0.0126 -0.1915  0.0867
19409W        W37613   0.760  10.058   4.300 -0.1321  0.0241  0.1155
19410W        W37614   2.630   8.064  11.651 -0.0394 -0.0790  0.0449
19411W        W37615  14.174  17.196   1.561  0.2887  0.0233  0.3470
19412W        W37616  15.616   3.932   3.237  0.1618 -0.0119  0.4732
19413W        W37617   5.264   3.902   4.022  0.2878 -0.0441  0.0532
19414W        W37618   6.712  17.144  14.335  0.0268 -0.1480  0.0233
19415W        W37619   1.133   3.840  15.331 -0.0952 -0.1095  0.0208
19416W        W37620   3.756   1.536  13.015  0.0298  0.2468 -0.0186
19417W        W37621   9.200   4.984  16.074  0.0222  0.0708 -0.0692
19418W        W37622  16.022   8.605   2.235 -0.0510 -0.2064  0.0644
19419W        W37623   8.191   5.137  14.170  0.1546  0.1399  0.3360
19420W        W37624   4.266   7.069  12.893  0.0507 -0.0607 -0.1922
19421W        W37625   2.064  16.557   0.067  0.0384  0.1162  0.1746
19422W        W37626   9.977   6.448  11.401 -0.0630  0.2547 -0.0638
19423W        W37627  13.064  13.297  11.618 -0.2170  0.0854  0.2716
19424W        W37628  15.744   7.690  13.968 -0.2108  0.0971 -0.4112
19425W        W37629  14.501   3.717  12.638  0.1525  0.3214 -0.4013
19426W        W37630  11.552   5.937   0.496  0.0599 -0.1951  0.1307
19427W        W37631   6.391  14.827   4.803 -0.0935  0.2094  0.1093
19428W        W37632   1.774  15.995  12.126 -0.0571  0.0160 -0.2849
19429W        W37633   4.230  10.681  16.051  0.0876 -0.2412 -0.0742
19430W        W37634   6.534   4.294  15.688  0.1694 -0.1157 -0.3280
19431W        W37635  15.270   0.528  15.358  0.1161 -0.3059  0.1269
19432W        W37636  11.204   0.885   4.939  0.0221 -0.0685 -0.0600
19433W        W37637   1.032  13.685   1.253 -0.2094  0.0579  0.4378
19434W        W37638   8.831  17.636   1.933 -0.1771  0.2075 -0.0428
19435W        W37639   4.634   4.546  13.864 -0.1563 -0.0611 -0.0394
19436W        W37640   8.464   8.055   1.720 -0.0144  0.1353 -0.2744
19437W        W37641   1.672   2.466  11.333 -0.0821 -0.1827 -0.0453
19438W        W37642   6.706   7.096   2.289  0.1693  0.4261  0.0249
19439W        W37643   6.407   9.294  15.073 -0.1380 -0.1561 -0.3672
19440W        W37644   9.409  13.719  16.165 -0.0346 -0.0093 -0.1649
19441W        W37645   1.034   6.792   1.527  0.0904  0.0211  0.1066
19442W        W37646  12.377  10.427  11.792  0.1060 -0.1251 -0.4141
19443W        W37647   9.627   7.742   5.007  0.4097 -0.0468 -0.0257
19444W        W37648  16.673   7.236   5.246  0.1126 -0.4524  0.1704
19445W        W37649   0.460  17.323  15.152 -0.0228  0.1615 -0.2260
19446W        W37650  12.283  15.657   4.063 -0.3527  0.2121 -0.4260
19447W        W37651  15.242  15.097  13.423  0.2833 -0.2266 -0.2914
19448W        W37652   0.218   6.640   1.586  0.4340  0.2577  0.0534
19449W        W37653  13.173   0.792   3.225 -0.0877  0.0306 -0.1372
19450W        W37654   3.553  10.932  12.434  0.2544 -0.2685  0.0743
19451W        W37655   0.691  17.708   3.479 -0.2229 -0.0681  0.0902
19452W        W37656   0.978   0.822  12.159 -0.0008  0.0504  0.2670
19453W        W37657   1.850  17.142  11.176 -0.0006 -0.2470  0.0241
19454W        W37658  10.997   8.431  11.529  0.3490 -0.0158  0.0647
19455W        W37659  13.714  14.537   1.148 -0.0914 -0.0119 -0.0710
19456W        W37660  14.132   4.148  13.297  0.1178  0.1151  0.2688
19457W        W37661   4.123   5.218   2.237  0.2389  0.0464 -0.1892
19458W        W37662   0.687   0.025  13.966 -0.2445  0.0312  0.0347
19459W        W37663  13.315  13.460   2.998  0.2835  0.2639 -0.3400
19460W        W37664  15.590   9.922   2.696  0.1140  0.1397 -0.1419
19461W        W37665   3.515   9.372  11.918  0.1008  0.3900 -0.1364
19462W        W37666   6.968   7.714  13.552 -0.3278  0.0438  0.1732
19463W        W37667  17.960  14.258  15.343  0.1460  0.2407 -0.2042
19464W        W37668  16.885   5.228  13.257  0.6866 -0.2332  0.3133
19465W        W37669  13.458  10.594  15.328  0.2262 -0.1057  0.2342
19466W        W37670   6.361  10.365   3.835  0.3369 -0.2845 -0.1669
19467W        W37671  12.848  17.964  11.684 -0.1702 -0.1648 -0.0922
19468W        W37672   9.411   0.135  11.723 -0.1208 -0.0758 -0.0892
19469W        W37673   4.766   2.127   4.163 -0.4822 -0.1834 -0.0160
19470W        W37674  14.330  13.017  15.952 -0.0152 -0.2173 -0.1846
19471W        W37675   6.027   8.641   3.030  0.2323  0.2532  0.2025
19472W        W37676  17.567   1.321  10.792 -0.4129 -0.2386 -0.1882
19473W        W37677   8.291   3.153  14.849 -0.0949 -0.0294  0.0221
19474W        W37678   9.754   3.984  13.228 -0.0342 -0.1288 -0.4167
19475W        W37679   2.511  16.519   0.284 -0.2884  0.0409  0.2582
19476W        W37680  12.674   3.190   3.503 -0.2207  0.1892  0.2257
19477W        W37681  11.621   3.618  14.325 -0.0606 -0.2613 -0.1744
19478W        W37682  10.242   3.989   2.717  0.2571 -0.1428  0.0876
19479W        W37683  11.213  17.174  14.578  0.1186  0.3027 -0.2064
19480W        W37684   3.560  16.424  15.492  0.2715  0.0386  0.1877
19481W        W37685  17.792  13.010   2.132 -0.2750 -0.2524 -0.3057
19482W        W37686   8.536   4.574  11.693  0.1035 -0.0829 -0.2199
19483W        W37687  12.606   8.091  15.155 -0.1596  0.0246  0.0513
19484W        W37688  14.193  10.035  11.502  0.1222 -0.2165 -0.0745
19485W        W37689   0.154   8.527   0.962 -0.3510 -0.0856  0.1473
19486W        W37690   7.069   6.071  15.587 -0.0512  0.0696  0.0493
19487W        W37691   8.433  10.556   2.477  0.0478  0.2659  0.1877
19488W        W37692   1.513  12.707   4.696  0.1366  0.0769 -0.2023
19489W        W37693  11.371   7.438  13.605  0.0564 -0.0481  0.1259
19490W        W37694  16.668   3.353   0.683  0.2713 -0.0484  0.2181
19491W        W37695   0.909   0.417  12.414 -0.3110 -0.1746 -0.0945
19492W        W37696  10.014  13.604   0.814  0.0751 -0.5113 -0.0453
19493W        W37697  11.482   1.468   3.079 -0.1954 -0.2064 -0.0997
19494W        W37698  11.204   9.431  11.513  0.0014 -0.1357  0.0026
19495W        W37699  17.500  10.220   4.110  0.0843  0.3981  0.1272
19496W        W37700  17.759  15.645   3.513  0.1394  0.2944 -0.1083
19497W        W37701  14.432   0.137   1.374  0.0448 -0.1638 -0.0842
19498W        W37702  11.012  15.400  14.667 -0.1475  0.0357 -0.2102
19499W        W37703   2.458  14.904  13.692  0.3325 -0.0939  0.4015
19500W        W37704  17.994  12.093   1.468 -0.1332  0.2314  0.0022
19501W        W37705  10.745   6.600   2.675 -0.0393 -0.1026 -0.0248
19502W        W37706  10.784  12.470  11.686  0.3111 -0.0155  0.1594
19503W        W37707  16.255  14.880  12.164 -0.0220  0.1381 -0.1437
19504W        W37708  10.239   4.041  15.964 -0.1232 -0.2388  0.0480
19505W        W37709   9.838   6.243  13.795 -0.0714 -0.1753  0.0067
19506W        W37710   5.642  10.869  15.266  0.0052  0.0188  0.1547
19507W        W37711   3.319   3.096  15.824  0.0697  0.3585  0.0094
19508W        W37712   5.495   9.608  16.064 -0.3309  0.0440 -0.0545
19509W        W37713  16.354  10.000   2.005 -0.2408  0.1087 -0.1919
19510W        W37714   3.894   0.335   3.675  0.0647  0.4339 -0.1931
19511W        W37715  16.582  12.135  14.606 -0.0300 -0.2268 -0.4123
19512W        W37716  13.618   1.071  13.531 -0.1072  0.0795  0.2051
19513W        W37717   9.350   0.038   5.014  0.1310 -0.0804  0.2269
19514W        W37718  14.833  10.906   0.143 -0.0509  0.0233  0.1329
19515W        W37719   5.997   8.993   0.151 -0.1842 -0.1196 -0.3392
19516W        W37720   0.604   1.942   5.507  0.1908 -0.1235  0.2618
19517W        W37721   2.268  16.627  15.528  0.0727 -0.2270  0.1561
19518W        W37722  17.943   5.974   1.666  0.1643  0.2706 -0.2876
19519W        W37723   3.574   6.638   1.013  0.0804 -0.0611 -0.0221
19520W        W37724   2.679  10.589  12.573  0.0384 -0.1444  0.1229
19521W        W37725  13.501   2.612   4.528 -0.0820  0.1382 -0.1064
19522W        W37726   5.741   0.072  13.403  0.1241 -0.2675  0.1466
19523W        W37727  10.504  12.494   3.955  0.0972 -0.2175  0.0403
19524W        W37728   7.491   8.326  14.713  0.0481  0.1793 -0.1281
19525W        W37729   0.718  12.530   2.197  0.3255  0.2251  0.1856
19526W        W37730   7.596   2.992  11.432 -0.1628 -0.2178 -0.2643
19527W        W37731   4.127   7.687  15.393  0.1214  0.0424 -0.0462
19528W        W37732  10.129  12.399   3.015 -0.2868  0.0200 -0.0494
19529W        W37733   6.499  16.152  11.850 -0.0887 -0.0781 -0.2143
19530W        W37734  13.499   1.529  16.014 -0.1074 -0.0277  0.1733
19531W        W37735   4.471   5.578   0.601 -0.4330  0.1644  0.0690
19532W        W37736   6.960   2.035  15.196  0.3613  0.1640 -0.4117
19533W        W37737  13.280   6.395  14.629  0.0797  0.0833  0.1765
19534W        W37738  17.872  13.680  11.481 -0.0656  0.3510 -0.2117
19535W        W37739   3.563  11.028   1.875  0.0359 -0.0673  0.0202
19536W        W37740   1.091   4.627  11.037 -0.0447 -0.2174  0.1580
19537W        W37741  11.127   1.559   0.692  0.2390  0.1847 -0.1165
19538W        W37742   5.164   1.758   1.550  0.1426 -0.0777 -0.0249
19539W        W37743   1.738   8.769   2.892 -0.0571 -0.0329 -0.0666
19540W        W37744   3.869  13.494   3.407 -0.0137 -0.2781 -0.2802
19541W        W37745   5.079   6.135   1.628  0.2480  0.0870 -0.0059
19542W        W37746  17.234   3.585   2.947 -0.0011 -0.1003 -0.0743
19543W        W37747   2.792  14.244  16.111  0.0118 -0.0060  0.0637
19544W        W37748  11.840   5.631  15.666 -0.1141  0.2673 -0.0829
19545W        W37749  13.219  14.974  12.221  0.1093  0.1241  0.0340
19546W        W37750  17.911  15.114   2.729  0.3110  0.2389 -0.0698
19547W        W37751  16.942   9.962  16.145  0.2607 -0.1462  0.1077
19548W        W37752  12.712   2.150   4.095  0.1103  0.1163  0.0191
19549W        W37753  17.308   1.327   0.058  0.1273 -0.0095 -0.1264
19550W        W37754   7.259  16.586  14.798  0.0342 -0.0653  0.0460
19551W        W37755   5.777  10.468  14.023 -0.0681 -0.0333 -0.2256
19552W        W37756   7.214  17.829  10.899 -0.2720  0.5304 -0.3007
19553W        W37757   4.999  15.971  12.359 -0.1507  0.5004  0.1798
19554W        W37758   5.459  15.344  11.603  0.3986  0.2611  0.1893
19555W        W37759   1.344  13.738  13.075 -0.0832  0.1924 -0.1291
19556W        W37760  17.122   6.410  12.724  0.0433 -0.3325 -0.1316
19557W        W37761  10.240   0.490   4.976 -0.1395  0.1459  0.2699
19558W        W37762   0.350   1.767   0.997 -0.1716  0.0043 -0.1093
19559W        W37763  16.149   6.493  16.013 -0.1385 -0.1874  0.0635
19560W        W37764   6.834   3.618   1.660  0.0112  0.2344 -0.3169
19561W        W37765   2.410   2.415  14.220 -0.0688 -0.0970  0.2314
19562W        W37766   3.882   3.449  15.075 -0.2011 -0.2701  0.0015
19563W        W37767  16.838   3.535   0.005 -0.2038  0.1704  0.0504
19564W        W37768  16.621  17.898  11.901 -0.1201  0.0827 -0.2511
19565W        W37769   4.634   8.572  15.202 -0.0962  0.1825  0.0346
19566W        W37770   1.755  12.266   4.488 -0.1274  0.3663  0.2051
19567W        W37771  13.832   9.922   2.565 -0.0944  0.0396 -0.2168
19568W        W37772  13.701   2.184  15.386 -0.2458  0.2010  0.5356
19569W        W37773   0.280   4.198   5.120  0.1917  0.1067 -0.2111
19570W        W37774  14.421   5.060   3.210 -0.1236  0.0565  0.0022
19571W        W37775  17.408  15.884   0.040  0.0246  0.1758 -0.4780
19572W        W37776  16.223  11.625  13.986 -0.2385 -0.0011 -0.2472
19573W        W37777   4.004  10.933  12.998  0.1255 -0.3860  0.0406
19574W        W37778  11.217   6.396  14.417 -0.1060  0.0485  0.2296
19575W        W37779  11.829   2.034   2.118 -0.3535 -0.1108 -0.0175
19576W        W37780   5.539  10.752   0.556  0.0912 -0.1787 -0.1277
19577W        W37781   6.959  16.944  12.952  0.1703 -0.2121  0.1577
19578W        W37782  16.479   7.940  15.266 -0.0843 -0.1627 -0.1033
19579W        W37783  17.992  10.485   3.175  0.1356 -0.0292  0.1499
19580W        W37784   1.202   3.621  11.756 -0.0414 -0.1529  0.1158
19581W        W37785   4.300   0.028  14.013 -0.3975  0.2316 -0.0409
19582W        W37786  12.030  10.401   1.192 -0.1832  0.0141 -0.1877
19583W        W37787  13.388   0.963  12.215 -0.0549 -0.0089  0.1390
19584W        W37788  13.467   4.933  11.503 -0.0386 -0.0680 -0.4894
19585W        W37789  16.014   9.871   0.175 -0.0348  0.0468  0.0123
19586W        W37790  11.773  15.188   4.043  0.0646 -0.0223 -0.0013
19587W        W37791   8.324   7.884   4.741 -0.0378  0.1760  0.3273
19588W        W37792   3.491   3.933   3.613  0.1427  0.0894  0.3720
19589W        W37793   3.402   0.092   2.318  0.1788  0.1392 -0.3030
19590W        W37794   0.341  12.995  12.171 -0.1562 -0.2067  0.1989
19591W        W37795   1.789   6.264  15.540 -0.0168  0.0171 -0.0708
19592W        W37796  10.565  11.280  13.601 -0.3715  0.1707 -0.2303
19593W        W37797  16.229   9.423  13.234  0.0813  0.0190 -0.2163
19594W        W37798   7.273  15.751   5.444  0.0862  0.0070 -0.1442
19595W        W37799  15.522   5.103  15.394  0.0758  0.0230  0.0336
19596W        W37800   5.475   9.640  11.645  0.1007  0.1622  0.1698
19597W        W37801   2.261   8.134   2.673  0.0070  0.1055  0.1226
19598W        W37802   5.388  11.550   2.768 -0.3422  0.1941 -0.1308
19599W        W37803   6.983  15.554   5.067 -0.2750  0.0947 -0.0526
19600W        W37804   2.805   7.966  15.236 -0.1903  0.2455 -0.3502
19601W        W37805   9.667   0.264  12.442 -0.0929  0.1886  0.0838
19602W        W37806  16.664  15.994   2.033  0.2026 -0.2448  0.1698
19603W        W37807   5.549  10.778   2.377  0.1854 -0.2638 -0.0306
19604W        W37808   6.744   4.763   4.523  0.2150  0.2239 -0.2057
19605W        W37809   9.028  13.886  15.005 -0.1971  0.0073  0.0442
19606W        W37810   0.122   8.955  11.115 -0.0141  0.0809  0.2613
19607W        W37811   8.484  14.762   1.421 -0.1828  0.1858  0.0441
19608W        W37812  16.219   2.868  15.211 -0.2729 -0.1718 -0.1662
19609W        W37813   2.089   6.173  14.436 -0.2133 -0.1040 -0.1024
19610W        W37814  16.373  17.096  12.111 -0.0403 -0.3132  0.3082
19611W        W37815   6.520   4.288   2.127  0.1770 -0.0005 -0.2212
19612W        W37816   0.299   4.264   2.780  0.1802  0.2948  0.0071
19613W        W37817  15.257   9.611  12.052  0.1343  0.0709  0.0012
19614W        W37818   1.303  14.963   3.658  0.0824  0.1706 -0.3566
19615W        W37819  16.373   9.547   0.694  0.1316  0.2763 -0.5462
19616W        W37820  15.796  13.202  12.561 -0.0535  0.0477  0.0891
19617W        W37821  13.264   3.841   2.629  0.0446 -0.0327 -0.1288
19618W        W37822   1.747   6.707  11.676  0.0124 -0.0789  0.1920
19619W        W37823   9.763  13.020  13.572  0.1746  0.1182 -0.0201
19620W        W37824   8.530   1.993  11.773  0.2090  0.0504 -0.4062
19621W        W37825   4.810   4.556   2.886 -0.0651  0.0172  0.2245
19622W        W37826   4.597   5.034  15.836 -0.2030  0.1072  0.1360
19623W        W37827   0.502  12.092   1.457 -0.2065  0.0556 -0.2399
19624W        W37828   3.665  15.400  10.652  0.1108 -0.1009  0.2005
19625W        W37829  11.325   7.133  13.228  0.2028 -0.0975 -0.2182
19626W        W37830  15.016   0.918   3.866 -0.2145  0.0920 -0.1529
19627W        W37831  17.098   9.273   1.126  0.2234  0.0488 -0.1273
19628W        W37832  17.856   8.744  14.243  0.1874 -0.3198 -0.1939
19629W        W37833   6.007  13.900  15.768 -0.1518  0.1057  0.2185
19630W        W37834   3.973   8.651   3.789 -0.0347 -0.2008 -0.1969
19631W        W37835  17.051   8.145   1.594 -0.3002 -0.1376  0.1288
19632W        W37836   7.524  11.648  14.024 -0.0451  0.1519  0.0487
19633W        W37837  13.324   7.726  14.408 -0.1996 -0.1185 -0.4222
19634W        W37838   2.808  13.415   1.876  0.1087  0.0476 -0.2149
19635W        W37839   8.476   7.357   3.195  0.0503  0.0811 -0.1260
19636W        W37840   0.900  12.167  16.092 -0.1245 -0.0424 -0.0163
19637W        W37841  16.300   6.156  13.077 -0.0249 -0.2232 -0.3841
19638W        W37842   2.085  13.575  12.525 -0.3378  0.0837 -0.0409
19639W        W37843  17.354  10.915   3.556  0.0189 -0.0520 -0.4804
19640W        W37844  16.987   6.691   2.080 -0.1948  0.1159  0.1092
19641W        W37845   4.250   3.807   5.050 -0.1940  0.1957 -0.6458
19642W        W37846  14.639   5.325   3.592 -0.2567 -0.1236  0.0200
19643W        W37847  11.504   3.990  14.789 -0.1706  0.0743 -0.1775
19644W        W37848  12.849   9.073  13.931  0.1002 -0.0125 -0.2327
19645W        W37849  17.416  14.663   3.942  0.1558  0.0920 -0.1896
19646W        W37850  10.749  16.253  14.581  0.4439  0.0148  0.2115
19647W        W37851  15.883   4.119  15.174  0.0381  0.1541 -0.2164
19648W        W37852  13.644   9.800  14.361 -0.2555  0.0096 -0.1527
19649W        W37853   0.305  13.886  16.116 -0.0037  0.1242  0.0763
19650W        W37854  16.428  16.393   1.158  0.0539  0.0580  0.1371
19651W        W37855  16.431  10.658   3.068  0.3117  0.0904 -0.2322
19652W        W37856   1.229   0.164   4.867 -0.0483  0.0627  0.0081
19653W        W37857  13.835  10.702   1.155 -0.0325  0.3381 -0.1395
19654W        W37858   1.182  10.104  13.973  0.0858 -0.1018  0.1974
19655W        W37859   3.000   6.107  12.904 -0.0150 -0.0260 -0.1589
19656W        W37860  10.079   6.516  11.940  0.1985 -0.0515 -0.0993
19657W        W37861  13.919  13.930  14.846  0.0189 -0.1131 -0.0591
19658W        W37862   6.493   8.682   3.542  0.2882 -0.0178 -0.2055
19659W        W37863   3.916   5.559   4.499  0.0116 -0.0945 -0.1740
19660W        W37864  16.164  15.883  12.644  0.2856 -0.2464 -0.0880
19661W        W37865   7.619  11.905   4.845  0.3841 -0.0415  0.1924
19662W        W37866  15.263   4.137   0.336 -0.3617  0.1200 -0.1913
19663W        W37867   5.705   8.351  11.617 -0.0042  0.4308  0.1677
19664W        W37868   2.633  14.636  15.113  0.1602 -0.1577 -0.1907
19665W        W37869   4.160  13.863   2.034  0.0065 -0.1168 -0.0572
19666W        W37870   9.838   9.031   1.963  0.2552  0.1740  0.1447
19667W        W37871   5.235   8.324  15.873  0.3230 -0.0040  0.2963
19668W        W37872  14.975  17.150  13.197  0.1687  0.0910 -0.0735
19669W        W37873   0.028   4.962   0.847 -0.2279  0.1266  0.2920
19670W        W37874  16.721   8.966   0.947  0.1057 -0.4046 -0.0303
19671W        W37875   3.662  14.827   0.900 -0.2679 -0.1128  0.0230
19672W        W37876   1.374   6.923  12.634 -0.1097 -0.0670  0.4041
19673W        W37877   5.625   1.689   4.119 -0.1254 -0.0820 -0.2642
19674W        W37878   2.343  11.710  13.317  0.1424 -0.0878 -0.1047
19675W        W37879   7.917   2.802  15.709 -0.2217  0.0082 -0.2110
19676W        W37880  11.429  14.255  16.164 -0.1678  0.0408  0.1419
19677W        W37881   3.953   4.628  14.207 -0.3753 -0.0385 -0.2470
19678W        W37882   2.404  13.173   1.983 -0.0634 -0.1248 -0.2601
19679W        W37883   1.679  12.566   2.825  0.1847  0.0518 -0.1423
19680W        W37884   3.136   7.427   0.346 -0.0081  0.1225 -0.0306
19681W        W37885   3.946   8.055  15.690 -0.1446  0.1044 -0.1845
19682W        W37886  15.772  14.125  12.340  0.0316 -0.2902  0.0109
19683W        W37887   0.656  12.137  12.367 -0.0200 -0.0672  0.0057
19684W        W37888   8.571   9.961   0.224  0.1469  0.1114 -0.3000
19685W        W37889   5.671  14.676  14.974  0.1133 -0.4133  0.0204
19686W        W37890   0.707  14.454  15.341 -0.1277 -0.0349 -0.0837
19687W        W37891   9.149   4.605  13.671 -0.0706 -0.2367 -0.3670
19688W        W37892   1.747   1.831  14.612  0.1111 -0.2536  0.1201
19689W        W37893  14.612   1.347   4.538  0.2277  0.3655  0.3484
19690W        W37894   0.174   6.175   0.789  0.0080  0.0013 -0.1234
19691W        W37895  12.426   0.271   4.446  0.0237  0.1313 -0.2182
19692W        W37896   2.444   3.512  13.799  0.0207  0.0485 -0.1105
19693W        W37897  15.032   2.037   0.112 -0.0363  0.2029  0.0938
19694W        W37898   9.607   5.870  14.509 -0.1871  0.4524 -0.0246
19695W        W37899   0.592  10.331   1.919 -0.3025  0.1331 -0.0397
19696W        W37900   5.041   3.782  15.836 -0.0037 -0.3244 -0.2623
19697W        W37901   1.047   8.761   3.880  0.2527  0.3553 -0.3204
19698W        W37902  16.648   7.462  14.376  0.0964  0.0604 -0.1449
19699W        W37903  14.789   2.675  10.851  0.0881  0.2123 -0.1621
19700W        W37904   1.843   0.248  12.855 -0.0864 -0.0082  0.1282
19701W        W37905  16.901  17.699   5.683 -0.1689 -0.0905 -0.3597
19702W        W37906  12.820  10.819  13.630 -0.0508  0.0097  0.1405
19703W        W37907   8.156  15.213   4.191 -0.0807 -0.2364  0.0868
19704W        W37908  14.159   5.891   1.238 -0.0520  0.0009 -0.0322
19705W        W37909  16.763  11.500   4.326  0.1744 -0.3210  0.2191
19706W        W37910   3.997   0.305  11.370 -0.1297  0.0449 -0.1701
19707W        W37911   0.428   0.761  14.942  0.2343  0.2103 -0.1628
19708W        W37912   8.525   2.504  14.126  0.0020 -0.0938 -0.3367
19709W        W37913   5.597  10.994   1.009  0.0809 -0.0417 -0.4431
19710W        W37914   7.230  12.282  15.817  0.0759 -0.1035  0.0919
19711W        W37915   0.566   0.092   3.693  0.1119  0.0406  0.0664
19712W        W37916  13.140  14.257  13.035  0.1434 -0.2746  0.3449
19713W        W37917  11.330  16.090   2.850  0.0299  0.2248  0.0313
19714W        W37918  10.300  13.396  15.654  0.0340  0.2586  0.0542
19715W        W37919  15.121   2.947  12.277 -0.0677  0.1973  0.2317
19716W        W37920  13.989  16.400   0.232  0.5059  0.1199 -0.3456
19717W        W37921  13.182   5.243   1.651  0.2415  0.1474 -0.0563
19718W        W37922   3.890  14.553  13.856  0.3315 -0.3493  0.3208
19719W        W37923   8.175   8.371  11.729 -0.0559 -0.1586 -0.3438
19720W        W37924   0.789  10.909  15.800  0.2097  0.1367  0.3485
19721W        W37925   4.296  11.229   2.594  0.1506  0.0799 -0.1161
19722W        W37926  13.038  14.285  11.732 -0.0133  0.2297  0.1876
19723W        W37927  11.741  17.378  14.728 -0.1980  0.2472  0.1826
19724W        W37928  11.564  16.359   0.558  0.0939  0.3390  0.2164
19725W        W37929   1.371   1.254  15.852 -0.0550 -0.2551 -0.1235
19726W        W37930   5.088   4.206  14.598  0.1200  0.0429 -0.4101
19727W        W37931   1.082  16.191  12.635 -0.3654  0.0348 -0.3332
19728W        W37932   2.364   8.503   1.663 -0.1920 -0.0679  0.1240
19729W        W37933  17.993  17.129   3.680  0.0884 -0.1164  0.2305
19730W        W37934  14.251  11.917  11.886  0.0302 -0.1264  0.1669
19731W        W37935  15.011   4.285  13.697 -0.0914 -0.1459 -0.0470
19732W        W37936  13.069   8.382   3.788 -0.0558  0.0715  0.0296
19733W        W37937   8.581  12.435  15.789 -0.1144  0.0727 -0.0233
19734W        W37938   3.654  11.269  15.767  0.0688 -0.3392  0.1118
19735W        W37939  12.146   4.864   1.872  0.0275 -0.1636  0.0448
19736W        W37940   3.525  16.128  12.458 -0.0691  0.1794  0.0288
19737W        W37941  15.226   3.620  13.034 -0.0707  0.0913  0.1736
19738W        W37942  11.260   5.743   4.993 -0.0645 -0.0290  0.0012
19739W        W37943  15.979  15.029  13.839  0.2051 -0.1405 -0.0232
19740W        W37944   9.265  12.619   3.040 -0.0289 -0.1918 -0.0104
19741W        W37945  16.750   5.220  13.840  0.0849  0.0389  0.2501
19742W        W37946   2.675   5.413  11.448  0.1575 -0.2005  0.1268
19743W        W37947  11.321  10.728   3.338  0.0253  0.2183 -0.1815
19744W        W37948  10.119   7.166   2.947  0.0925 -0.1649  0.3273
19745W        W37949  11.537  11.286  11.932  0.1522  0.3301  0.0250
19746W        W37950  16.805  15.219   3.294 -0.0982  0.0693  0.0623
19747W        W37951  17.873  10.644   2.287 -0.4817  0.2770 -0.2565
19748W        W37952  14.060  16.407  15.899  0.1066  0.2056  0.1459
19749W        W37953  12.142   9.504   2.027 -0.1878 -0.0103  0.2182
19750W        W37954  11.221  11.685   0.389  0.0581 -0.1538  0.0938
19751W        W37955   2.958   5.053   2.001 -0.0068 -0.0962 -0.1692
19752W        W37956   0.179  10.864  13.829  0.1677  0.0476 -0.2792
19753W        W37957  16.810   1.504  15.388 -0.2383  0.1916  0.1867
19754W        W37958  16.979   9.628  12.790 -0.0028 -0.0489 -0.0395
19755W        W37959  14.708   2.049   5.102  0.1382 -0.0063 -0.0701
19756W        W37960  16.828   7.467   1.392  0.1317  0.0622  0.0690
19757W        W37961  12.448  10.662  15.732  0.0434  0.0326  0.2335
19758W        W37962  14.064  11.529  15.983  0.0656 -0.2951  0.0225
19759W        W37963   0.584   3.543   3.153  0.1527 -0.2670 -0.0895
19760W        W37964   2.436   1.008  13.942 -0.3156  0.1426 -0.1870
19761W        W37965   4.356   8.683  11.697 -0.0802 -0.1362 -0.0636
19762W        W37966   1.940   8.445  14.995 -0.1320 -0.1161 -0.0746
19763W        W37967  14.457  11.291   1.555 -0.0640  0.0333  0.3003
19764W        W37968   7.463   0.066  13.178 -0.0076  0.4198  0.3078
19765W        W37969   6.865   3.959  11.402  0.0322  0.0029  0.2029
19766W        W37970   9.669  10.634   5.064  0.1041  0.2304  0.0731
19767W        W37971   8.197   4.453  12.440 -0.3611 -0.0780  0.3280
19768W        W37972   6.247   7.070  11.708 -0.3311  0.0450 -0.1914
19769W        W37973  16.015   0.120  14.519  0.0524 -0.0461 -0.1697
19770W        W37974   5.738   8.867  12.759 -0.2090  0.0780 -0.0087
19771W        W37975   9.074   8.963  11.761 -0.0089 -0.1366  0.2163
19772W        W37976  13.778   9.299   0.020  0.0087  0.1810  0.0585
19773W        W37977   1.849  18.000   4.045  0.1319 -0.3081 -0.1384
19774W        W37978   2.652  15.799  11.636 -0.0641 -0.1716  0.1778
19775W        W37979  17.739  12.467  15.598  0.1642 -0.0098  0.0560
19776W        W37980   7.001  14.907  12.056 -0.1077  0.2473 -0.1567
19777W        W37981  15.455   9.366   4.753  0.3050  0.0434 -0.1159
19778W        W37982  17.639  17.781  15.119  0.0907  0.0349 -0.1572
19779W        W37983   3.964   4.167   1.376  0.0736 -0.1558  0.1731
19780W        W37984  12.904  11.593  15.194  0.2674 -0.1693 -0.0749
19781W        W37985  13.653   0.143   4.349  0.6146 -0.0076  0.0445
19782W        W37986  17.519   7.504  14.484  0.0646 -0.0750 -0.1906
19783W        W37987   4.865   4.946  15.068 -0.0215  0.1360 -0.1584
19784W        W37988   1.960   9.852  15.152 -0.0072 -0.0006 -0.1483
19785W        W37989   7.954   9.373   2.131  0.1077  0.1139  0.0974
19786W        W37990  14.542   0.823   1.978 -0.0721 -0.1090 -0.1988
19787W        W37991  10.236   7.703  13.520 -0.1364 -0.1140 -0.1304
19788W        W37992   5.607  11.855  15.275 -0.0483  0.4798 -0.0983
19789W        W37993  13.405  15.704   2.176  0.3869  0.1455 -0.1657
19790W        W37994   6.004   3.198   1.834  0.0889  0.3956 -0.0125
19791W        W37995   8.876   8.720  13.998 -0.1548 -0.0328  0.0209
19792W        W37996   2.742   9.486  14.821  0.1852  0.0272  0.1049
19793W        W37997   7.638   4.267   0.278  0.3067 -0.1328  0.1226
19794W        W37998  10.785  12.509   0.245 -0.2106 -0.0613  0.1837
19795W        W37999   0.097   5.700   2.617 -0.1284 -0.2825  0.1552
19796W        W38000   6.332   0.158  11.139  0.3081  0.0698 -0.0657
19797W        W38001  17.680  13.007   4.642 -0.0674 -0.1256 -0.0268
19798W        W38002  12.700   1.767   2.204  0.3025  0.1287  0.0419
19799W        W38003  16.043   8.751  13.905 -0.2749  0.1317 -0.0714
19800W        W38004   7.755  15.439  11.600  0.0127 -0.0275  0.1264
19801W        W38005  15.766   1.619  13.380 -0.0384 -0.0558  0.1612
19802W        W38006  17.753   0.960   0.333  0.0233 -0.0084  0.1585
19803W        W38007   2.977   2.637  15.842  0.0740 -0.1353  0.0955
19804W        W38008  17.769  10.756   4.623  0.2167  0.0808  0.1138
19805W        W38009  16.869  11.435  15.762 -0.4928  0.3647 -0.0626
19806W        W38010  16.407  10.311  15.347 -0.2335  0.2598 -0.0874
19807W        W38011   5.074  13.615  14.632 -0.0118  0.2887  0.1726
19808W        W38012   0.044   3.401   0.952  0.1598 -0.0200  0.0626
19809W        W38013   9.382  10.274   2.776 -0.0266 -0.1507  0.2104
19810W        W38014   5.540   4.389  15.934  0.0360 -0.1049 -0.0686
19811W        W38015   2.187   0.790   3.271 -0.0728 -0.0063 -0.0354
19812W        W38016   0.269  15.409  11.086 -0.1872  0.2916 -0.0944
19813W        W38017  13.706  17.256   0.293  0.0425  0.0051  0.0494
19814W        W38018  11.256   8.840   1.735  0.2611 -0.4089  0.1013
19815W        W38019   0.148  17.257   0.843 -0.1577 -0.1005  0.0220
19816W        W38020  10.363   0.031   4.339  0.0195 -0.1718  0.0917
19817W        W38021  11.818   7.657  13.532 -0.4648  0.2202 -0.2244
19818W        W38022   2.882  17.207  11.187  0.0892  0.3487  0.2409
19819W        W38023  16.384  10.137  14.372 -0.1500 -0.0131 -0.0008
19820W        W38024   8.267  12.291   4.842 -0.1726  0.3058  0.0209
19821W        W38025   4.602  10.936  15.130  0.0008  0.0173 -0.2083
19822W        W38026   1.242  15.872   3.383  0.0356 -0.1073  0.1616
19823W        W38027  10.711   4.188   0.527 -0.1844 -0.2506 -0.1695
19824W        W38028   1.873   7.611   3.528 -0.1597 -0.1538 -0.1013
19825W        W38029  13.132   6.516  12.901 -0.4593  0.0578 -0.1217
19826W        W38030  13.437   9.030  14.823 -0.1985 -0.1519 -0.0626
19827W        W38031   1.783   7.921   2.696  0.1495 -0.2548 -0.1551
19828W        W38032   9.170  12.521  12.676 -0.0476  0.1883 -0.2949
19829W        W38033   4.821  14.054   2.311  0.0378 -0.1616  0.1551
19830W        W38034   5.227  17.179  11.955  0.0341  0.1864 -0.0675
19831W        W38035   0.791   6.570   4.913  0.2757 -0.0807  0.0879
19832W        W38036  13.378  11.959   0.423  0.0331 -0.1443 -0.0277
19833W        W38037  10.166   4.507   1.610 -0.1562 -0.0086  0.0873
19834W        W38038  17.746  15.394  12.631 -0.0657  0.1116 -0.2342
19835W        W38039   0.604  16.459   0.181  0.1968  0.0665 -0.2081
19836W        W38040   3.102  15.925  11.956 -0.2623 -0.0260 -0.0810
19837W        W38041   3.245  15.674  12.339 -0.3599  0.0417 -0.1717
19838W        W38042   9.548   1.018   1.593  0.2550 -0.1318 -0.1183
19839W        W38043  15.076  16.296  14.468  0.0476  0.2455 -0.2063
19840W        W38044   3.920   4.906  11.878 -0.2009 -0.1105  0.0996
19841W        W38045  17.202   3.056   0.667 -0.2858 -0.3196 -0.1278
19842W        W38046  13.960   0.533   4.274 -0.3110  0.0604  0.0512
19843W        W38047   7.088   2.213  11.899 -0.0192 -0.1380 -0.0928
19844W        W38048   9.591   8.458  12.940 -0.3112  0.0815 -0.2022
19845W        W38049   0.655  15.727   2.140 -0.2255  0.2892 -0.0941
19846W        W38050  16.795   1.393   0.186  0.2207 -0.1008  0.2175
19847W        W38051   8.566   5.146   1.406  0.1159  0.2721  0.1808
19848W        W38052   8.310   6.672   1.320  0.1009  0.0289 -0.2543
19849W        W38053  11.602   7.410  14.388 -0.1140  0.2872 -0.0718
19850W        W38054  15.678  13.855  14.911  0.2535 -0.1101 -0.0357
19851W        W38055  13.766   1.104   3.904 -0.0417 -0.2277 -0.0986
19852W        W38056   6.439   3.954  16.012  0.2516  0.2179  0.0104
19853W        W38057   7.054  16.995   0.936  0.0890 -0.1268 -0.0286
19854W        W38058   0.017  13.113  11.629  0.0810  0.0695 -0.3362
19855W        W38059  17.671   0.212  15.265  0.1612  0.1262  0.0002
19856W        W38060  13.268   7.461   4.947 -0.0013  0.0831 -0.0921
19857W        W38061  16.319  14.473   0.586 -0.4799 -0.1017  0.1240
19858W        W38062  17.345   8.812   5.373 -0.1099  0.1968 -0.2022
19859W        W38063   8.048   8.201   2.103  0.2001  0.2916  0.1731
19860W        W38064  13.670   5.824   1.378  0.1810 -0.0988  0.0422
19861W        W38065   9.730  10.331  12.631  0.0356 -0.2296  0.1587
19862W        W38066  11.871   9.408   3.789 -0.0014  0.0502 -0.0145
19863W        W38067   5.334  12.950  10.415  0.0584 -0.2447  0.0171
19864W        W38068   4.755   8.077  12.998  0.1433  0.0191 -0.2092
19865W        W38069  17.358  10.383  13.512  0.0070  0.1739 -0.2502
19866W        W38070   5.565   1.891   5.841  0.4755  0.0253  0.1212
19867W        W38071   2.598   7.786   0.237  0.0677 -0.2090  0.2183
19868W        W38072   2.828   3.930  14.468 -0.0934  0.0301 -0.0939
19869W        W38073  16.815   4.379  13.500 -0.0469 -0.0242  0.1555
19870W        W38074   1.346  10.975  12.181 -0.0201  0.1336  0.0066
19871W        W38075  16.084   2.179   0.625  0.0855  0.0166  0.2574
19872W        W38076   7.804   0.309   2.092  0.1121  0.0878  0.0877
19873W        W38077  12.730   7.670  11.912  0.0070  0.1159 -0.0570
19874W        W38078  10.237  16.768  12.181  0.0024 -0.0686  0.3474
19875W        W38079   4.449  10.267  12.850 -0.1515 -0.0522  0.2368
19876W        W38080   7.244   0.898  13.911  0.4577 -0.0718  0.1900
19877W        W38081   9.200  15.546   1.088 -0.1257  0.0082 -0.0131
19878W        W38082  17.547  12.806  12.223  0.0741  0.2189  0.0842
19879W        W38083   0.622   7.582   1.459  0.1838  0.2868 -0.1466
19880W        W38084  11.098   4.237  11.424  0.0943 -0.1275 -0.0567
19881W        W38085   2.639  10.494  13.748 -0.2808  0.0572 -0.1848
19882W        W38086   4.630   9.302   4.894  0.2372 -0.0459  0.0625
19883W        W38087   9.314  14.905  15.584 -0.1066 -0.0834  0.1331
19884W        W38088  16.114   6.265  14.565  0.0750 -0.2610  0.2281
19885W        W38089   4.008   7.902   5.230  0.1344 -0.1572 -0.1896
19886W        W38090  15.356  17.541   3.452 -0.1223 -0.0264  0.2390
19887W        W38091  12.933   5.167   3.507  0.0871 -0.3727 -0.0481
19888W        W38092   7.545   8.738   4.432 -0.2143 -0.2194  0.0968
19889W        W38093  11.964  10.461  13.566 -0.0112  0.0350  0.1366
19890W        W38094   9.228  17.334  10.057  0.1220  0.0871  0.3548
19891W        W38095  10.823  12.941   3.158  0.3113 -0.0544  0.0335
19892W        W38096   0.188  16.335   4.264  0.1319  0.0564  0.2648
19893W        W38097   4.377  17.009   2.226 -0.1301 -0.1152  0.3021
19894W        W38098   2.640   7.230   1.990  0.0394  0.1110  0.2152
19895W        W38099  12.052   1.358   1.588 -0.1308 -0.1539 -0.1931
19896W        W38100   7.653  16.301  14.016  0.1830  0.2097  0.1706
19897W        W38101  14.165  15.454   1.849  0.0334  0.1660  0.0152
19898W        W38102  13.575   9.405  15.683  0.2329 -0.1265 -0.0340
19899W        W38103   4.381   0.560  15.606 -0.0373  0.0814  0.1620
19900W        W38104  12.475  14.636   3.903  0.1341 -0.0954 -0.2104
19901W        W38105   1.088   7.464  12.748  0.0841  0.1786  0.0381
19902W        W38106  14.215   4.572  14.250  0.4014 -0.1273  0.0331
19903W        W38107  11.091   4.997   3.481  0.2784  0.0223 -0.0336
19904W        W38108  13.666   3.936  11.537  0.0514 -0.1885  0.2781
19905W        W38109  16.732  10.301  12.243  0.1608  0.0329  0.3482
19906W        W38110  12.917   5.490  12.644 -0.1199 -0.1874  0.1022
19907W        W38111  12.820   3.638  12.959  0.1312 -0.1968 -0.1155
19908W        W38112   6.142  17.800  15.178  0.0156 -0.0931  0.1706
19909W        W38113   0.402   3.487   1.294 -0.2466  0.2442  0.0201
19910W        W38114   6.732  13.914   5.035  0.1258  0.0136 -0.1590
19911W        W38115   2.079   8.509  15.550 -0.1218 -0.1540 -0.0406
19912W        W38116  15.168  13.093   4.118  0.0942  0.1181  0.2628
19913W        W38117   3.227   7.907   0.108 -0.0127  0.0649  0.1052
19914W        W38118   5.995  10.552   4.160 -0.3031 -0.0974  0.1638
19915W        W38119   9.594   5.829  15.430  0.1813  0.0675  0.3602
19916W        W38120   7.618   0.699  13.564  0.0473 -0.3665 -0.3254
19917W        W38121   3.768   1.358  13.499 -0.0657 -0.1759  0.0821
19918W        W38122  17.884   2.973   3.977  0.0584  0.2166 -0.1371
19919W        W38123  12.910   9.482   2.660 -0.0478  0.3057  0.0116
19920W        W38124  14.124  16.687   0.628  0.0812 -0.0791  0.0294
19921W        W38125   2.100   8.808   0.853  0.1598 -0.1133 -0.2128
19922W        W38126   3.997  14.751  15.311 -0.1086  0.1056 -0.1506
19923W        W38127  17.609   2.474   3.679  0.0340  0.3652 -0.1861
19924W        W38128   0.289   1.515   3.413  0.5884  0.1809  0.0599
19925W        W38129  13.777  17.260   0.785 -0.0638 -0.0431 -0.1499
19926W        W38130  13.272  14.779  13.089 -0.2243 -0.0627  0.1992
19927W        W38131  12.963   6.033  14.463  0.1785 -0.1175  0.1977
19928W        W38132   6.216  14.274  15.477 -0.0957  0.1414  0.1097
19929W        W38133   2.812  13.963   3.393  0.1260  0.0331 -0.4270
19930W        W38134   5.680   1.374   3.699  0.0329  0.0456  0.1024
19931W        W38135   1.626   5.927  14.575 -0.0696 -0.1533 -0.1181
19932W        W38136  13.086  16.782  15.009  0.1052  0.1071  0.0354
19933W        W38137   8.271   2.369   0.595  0.1973 -0.0230  0.1940
19934W        W38138  10.718  16.767  15.441  0.0662 -0.0573 -0.2923
19935W        W38139   7.784  14.913  14.928 -0.1101 -0.0173  0.0935
19936W        W38140   6.077  17.136  11.942  0.0705  0.2458  0.0230
19937W        W38141   8.453  16.221  13.116  0.4095  0.0268  0.2158
19938W        W38142  13.740  15.242  14.678  0.3543 -0.2033  0.1979
19939W        W38143   7.107  16.028   1.769 -0.0537  0.1435  0.0518
19940W        W38144  10.099  11.280   3.587  0.0537  0.0962 -0.1285
19941W        W38145   2.400  10.228   4.767  0.0136  0.1456 -0.1692
19942W        W38146  17.005  12.830   4.586 -0.1440 -0.1045  0.0730
19943W        W38147   9.542  10.767   2.790 -0.2102  0.2926  0.1705
19944W        W38148   5.643  15.615   0.215  0.2110 -0.0640  0.0083
19945W        W38149   1.388  15.164  15.145  0.1125 -0.3502  0.0073
19946W        W38150   9.485  12.454   5.005 -0.0894  0.1982  0.3944
19947W        W38151   1.132   1.552  13.005 -0.0501  0.2709  0.0072
19948W        W38152   7.925   3.626  12.554 -0.0259  0.3032 -0.3666
19949W        W38153  13.333   6.049  14.142 -0.3905  0.0187 -0.0052
19950W        W38154   8.973   9.756  13.008  0.1081  0.2942  0.0625
19951W        W38155   4.223   1.512   4.320 -0.2633 -0.0777 -0.0860
19952W        W38156   1.407  12.273  12.722 -0.1668 -0.0424  0.0040
19953W        W38157  15.913   5.899   2.509 -0.1223 -0.0074 -0.0962
19954W        W38158   5.840  13.579  15.268  0.1135  0.3221  0.0579
19955W        W38159   0.438   2.798  14.657 -0.1690  0.0776  0.0111
19956W        W38160   3.475   6.217   3.844  0.2630  0.1950  0.1740
19957W        W38161   7.737  13.078   1.401 -0.1421  0.1520  0.1826
19958W        W38162  12.943   8.667   4.865 -0.1341  0.2136 -0.1551
19959W        W38163   4.617   7.225   3.369  0.0933  0.1076  0.3686
19960W        W38164  12.286  12.429  12.548  0.3059 -0.1440  0.0471
19961W        W38165   9.829  11.496   2.112  0.0731  0.1483 -0.0337
19962W        W38166  15.961   3.153  11.581 -0.0431 -0.1580 -0.1504
19963W        W38167   1.588   7.449  12.640 -0.0727  0.0803 -0.0009
19964W        W38168  10.256  18.033   2.359  0.1045 -0.1408  0.0087
19965W        W38169  13.711   9.570  12.432  0.0805  0.0278 -0.0122
19966W        W38170  13.893   5.568   2.164  0.1174 -0.2463 -0.1757
19967W        W38171   0.316   6.507  14.824  0.2241  0.0068 -0.0077
19968W        W38172   1.359  11.116   1.258 -0.1131 -0.2462 -0.0891
19969W        W38173   2.086   1.969   1.465  0.1994  0.0334 -0.3264
19970W        W38174   0.099  10.152   2.088  0.1013  0.1277 -0.2704
19971W        W38175   0.737   5.847  14.904 -0.2226  0.1312  0.3870
19972W        W38176   4.875  16.804   4.670  0.3066  0.4688 -0.3199
19973W        W38177  17.217   7.438  11.707 -0.1573  0.2586  0.1663
19974W        W38178   7.354   2.898   0.856 -0.0934  0.3413  0.1574
19975W        W38179   8.933   5.995   4.626  0.0916 -0.0320 -0.0331
19976W        W38180   5.123   1.449   4.871  0.2532 -0.2198 -0.0968
19977W        W38181   0.710   1.298   4.872 -0.0590 -0.0502  0.4096
19978W        W38182   1.854   2.574   2.257 -0.0995 -0.1032 -0.2963
19979W        W38183   0.102   4.712  15.682  0.1534 -0.2053  0.2979
19980W        W38184   4.293  16.237  15.956 -0.1875 -0.0503  0.0636
19981W        W38185  16.665  12.882  14.104 -0.0456 -0.0697 -0.5059
19982W        W38186  13.863  11.111   2.598  0.3752  0.2177 -0.3050
19983W        W38187   6.034   4.328  15.791 -0.0507  0.1888 -0.2107
19984W        W38188  13.679  15.800   2.601 -0.2027 -0.2234  0.1672
19985W        W38189  11.443   4.635  12.488 -0.0382  0.1253  0.1670
19986W        W38190   8.385  15.166  15.852  0.0793  0.1619 -0.1038
19987W        W38191   2.233  13.017   3.561 -0.1493 -0.0296 -0.0710
19988W        W38192  10.566  14.845  14.463 -0.2218 -0.2013  0.1663
19989W        W38193  13.936  16.508  14.057 -0.1933 -0.0106  0.0450
19990W        W38194  13.532   5.287   2.779  0.0399  0.2898 -0.1776
19991W        W38195   3.839  16.709  11.555 -0.0253 -0.1722  0.0243
19992W        W38196  15.464  17.050   0.813 -0.0458  0.4474 -0.1458
19993W        W38197   4.693  13.241  12.350  0.1603  0.1775 -0.1331
19994W        W38198   7.067  16.791  14.168  0.0746 -0.0524  0.1322
19995W        W38199  17.183  12.482  12.006 -0.0543 -0.0681  0.3109
19996W        W38200   7.748   7.620  14.852  0.0877 -0.1974  0.0002
19997W        W38201  12.475  15.519  12.554 -0.2536  0.1368  0.0223
19998W        W38202  11.521  17.294   4.238  0.1947 -0.0636  0.1517
19999W        W38203   7.608   4.795   3.114 -0.2695  0.1050 -0.1520
20000W        W38204   2.121  15.107   1.107 -0.0499  0.1234  0.0645
20001W        W38205   1.638   1.565  13.119 -0.2267  0.0039  0.1106
20002W        W38206  14.754   3.887  12.258  0.0959 -0.3062 -0.0922
20003W        W38207   3.985  11.166  10.809 -0.0734  0.2516  0.2237
20004W        W38208   4.967  14.457  12.827  0.0122  0.0534 -0.0939
20005W        W38209   2.384  12.220  12.533  0.0398 -0.0614  0.1020
20006W        W38210  13.930  13.341  14.087 -0.5778 -0.0208  0.1499
20007W        W38211   6.582  17.240   1.098  0.0614 -0.3864 -0.2016
20008W        W38212   4.868   8.995  12.504 -0.0258 -0.1470  0.0765
20009W        W38213  14.864   2.146   4.302 -0.2361  0.1565  0.3328
20010W        W38214   3.632   6.011   2.072 -0.1524 -0.0377  0.1210
20011W        W38215   0.367   8.173  13.995  0.0104  0.3379  0.0470
20012W        W38216  14.573   8.048  14.120 -0.0907 -0.1564 -0.1766
20013W        W38217   1.888   3.120  11.455  0.0288  0.0125 -0.1128
20014W        W38218   7.030   0.089   4.439 -0.1462 -0.1584  0.0516
20015W        W38219  17.527   0.864   1.959  0.0281 -0.2717  0.0766
20016W        W38220   1.244  16.856   3.832 -0.0579 -0.1090 -0.1026
20017W        W38221   0.967  12.648   4.568  0.0251  0.0788  0.0963
20018W        W38222  12.570  14.412   4.467 -0.4060  0.3806  0.0615
20019W        W38223   2.691   3.097  12.969 -0.2900  0.2432  0.0752
20020W        W38224   6.612   8.757   4.136 -0.0843  0.1589  0.1401
20021W        W38225  13.616  16.683   0.035  0.1032  0.1169  0.0341
20022W        W38226  14.058   2.514  15.352  0.0579 -0.2709  0.2532
20023W        W38227   5.987   2.863   0.586  0.0760  0.1339  0.2247
20024W        W38228   4.799  15.743   2.953  0.1235  0.1962 -0.0120
20025W        W38229   1.545   1.495  12.107  0.1356  0.0311 -0.0400
20026W        W38230   6.095  14.383   9.986 -0.0765 -0.3046 -0.1178
20027W        W38231   9.958   1.931  10.651 -0.2699  0.0542  0.0010
20028W        W38232  11.768   7.161   2.467  0.1305 -0.0002 -0.0370
20029W        W38233   1.751   7.847   4.555 -0.1330 -0.1326 -0.1676
20030W        W38234   9.028  11.998   5.021  0.0604 -0.2073  0.0789
20031W        W38235   0.986  11.956  13.855 -0.2302 -0.0083 -0.0871
20032W        W38236   5.102   1.369  11.900 -0.0342  0.0365 -0.0346
20033W        W38237   8.522   1.643  12.865 -0.3270 -0.1812  0.0369
20034W        W38238  15.721  10.878   4.984 -0.2550 -0.0295 -0.1308
20035W        W38239   0.983  15.337   3.834  0.1124 -0.0444 -0.3010
20036W        W38240  15.197  15.196  14.742 -0.1703 -0.0204  0.2932
20037W        W38241  14.531   3.355  15.491 -0.0867 -0.1615  0.1335
20038W        W38242   3.674   2.560  15.127  0.4596 -0.0458  0.0551
20039W        W38243   1.681  14.966   2.252  0.0805 -0.1819  0.0852
20040W        W38244   6.096   4.950  11.929  0.0488 -0.1725  0.1984
20041W        W38245  15.341  14.323   2.215 -0.2321 -0.1258 -0.3235
20042W        W38246   4.046   9.994  12.923  0.1694  0.1629  0.1951
20043W        W38247   0.637   4.044   3.375 -0.2420 -0.1306  0.0969
20044W        W38248   6.485   1.902  15.343  0.0404 -0.0686 -0.1507
20045W        W38249   5.237   7.637   3.966  0.6231 -0.3251  0.2078
20046W        W38250   2.830   0.929   1.425  0.1243 -0.0647  0.0447
20047W        W38251  11.255   4.849   4.377  0.1851 -0.0878  0.0423
20048W        W38252  17.148  13.506   1.119 -0.0834  0.2376 -0.0084
20049W        W38253   6.991  12.852  12.097 -0.5728 -0.1808 -0.1982
20050W        W38254   3.439   4.404  11.883 -0.0908  0.1306  0.1760
20051W        W38255  16.136  11.012   4.086 -0.2270 -0.0066 -0.3057
20052W        W38256  13.022  12.030  12.995 -0.0922  0.0693  0.1184
20053W        W38257   3.211  15.657  15.884  0.1809 -0.0401 -0.0522
20054W        W38258  11.388   9.436   4.712  0.0693 -0.1548  0.3422
20055W        W38259   5.199   2.298  15.924 -0.0297  0.1584  0.0586
20056W        W38260  15.797   8.924  11.986  0.1086 -0.0818 -0.1544
20057W        W38261   9.432   5.823  11.359 -0.0964  0.0092 -0.1602
20058W        W38262  17.243   8.643  13.467 -0.2797  0.0050 -0.1973
20059W        W38263  17.978   6.408   2.235  0.1321  0.2047  0.1681
20060W        W38264   3.803   6.637  15.748 -0.2104 -0.2300  0.2373
20061W        W38265  15.750   5.860  14.575 -0.3857 -0.2179  0.0610
20062W        W38266   1.928  12.858  15.593  0.1418  0.0870  0.2961
20063W        W38267  15.272   7.269   6.102 -0.0293 -0.0905 -0.2655
20064W        W38268   3.073   9.686  13.760  0.1303  0.0466  0.1530
20065W        W38269  12.574   5.901  15.371  0.1246 -0.1676  0.0879
20066W        W38270  14.876  12.752  16.020 -0.3194 -0.1365 -0.1659
20067W        W38271   5.434   3.161   0.855  0.0509  0.0454 -0.1834
20068W        W38272  16.853  11.647  14.497 -0.3621 -0.2392 -0.1366
20069W        W38273   9.151   4.355   3.126 -0.0892  0.3133  0.3093
20070W        W38274   6.116  12.521  13.118  0.0643  0.2106  0.3986
20071W        W38275  16.792   3.888   4.683  0.0576 -0.3832 -0.0490
20072W        W38276   1.277  16.682  13.670 -0.0270  0.2484 -0.0217
20073W        W38277   3.972  12.875  14.460 -0.1731  0.0974 -0.0477
20074W        W38278   5.926   2.930  12.434  0.0196 -0.0441  0.2102
20075W        W38279   3.442   6.202  13.671  0.1383 -0.0893  0.0315
20076W        W38280   2.312  13.947   3.132 -0.0449  0.1627  0.1432
20077W        W38281   7.018  16.281  14.250  0.2379 -0.0553 -0.0631
20078W        W38282   6.120   6.568  11.876 -0.0711 -0.2592 -0.0844
20079W        W38283   4.451  13.798  15.613 -0.1282  0.1449  0.2927
20080W        W38284  16.227   2.098  14.341  0.1491  0.3296  0.2371
20081W        W38285   3.704  16.284   4.403  0.0901 -0.0100 -0.1893
20082W        W38286  14.915   7.117  12.444 -0.0206  0.0635  0.1762
20083W        W38287  17.050  11.358   0.503 -0.0944 -0.0615 -0.0901
20084W        W38288  13.116  14.375   1.337  0.1201  0.0397  0.0880
20085W        W38289  15.527   5.320  10.789  0.3929  0.0574 -0.1288
20086W        W38290  17.764  15.062   0.855  0.1159  0.0293  0.1197
20087W        W38291   4.317   0.726   2.404  0.2250  0.1210  0.4325
20088W        W38292  17.437   9.531  14.140 -0.2535  0.2298  0.2110
20089W        W38293   4.789   9.290  11.630 -0.0464  0.1852 -0.0838
20090W        W38294   9.240  13.024  15.844 -0.0331  0.1701 -0.2227
20091W        W38295   7.951  13.728   6.177 -0.1313  0.2343  0.1201
20092W        W38296  16.460  10.188   3.234 -0.2882  0.0080 -0.0399
20093W        W38297  12.063  13.078   1.734 -0.2877  0.2975 -0.0700
20094W        W38298   4.279   4.499   0.389  0.4393  0.3086  0.0415
20095W        W38299  14.432  10.863  13.022  0.0249 -0.1446  0.2463
20096W        W38300   2.080   9.069   3.761  0.0866 -0.0959  0.3672
20097W        W38301  12.028  15.989  14.105 -0.0267  0.3947 -0.3291
20098W        W38302  10.278  14.316   1.684 -0.2159 -0.3110  0.0602
20099W        W38303  16.513  13.675   4.119  0.2688 -0.2416  0.3171
20100W        W38304  14.295   5.328  14.822  0.1521 -0.1606  0.0828
20101W        W38305  10.430   7.336  13.947 -0.2452 -0.0934  0.5306
20102W        W38306  10.941  13.123  15.025  0.2432  0.4132  0.1309
20103W        W38307  11.606  10.081  13.433  0.1451  0.0939 -0.0918
20104W        W38308  11.483   5.545   0.852 -0.1671 -0.2996  0.1240
20105W        W38309  16.566  16.764   2.665 -0.3952  0.1198  0.2644
20106W        W38310   9.088   7.380   1.799  0.0283 -0.0009  0.0516
20107W        W38311   2.646  13.170  11.326  0.2245 -0.1362  0.0296
20108W        W38312  12.071   7.118   2.845  0.0083  0.1433  0.0094
20109W        W38313   7.966   8.274  15.514 -0.2160 -0.3600 -0.0286
20110W        W38314   2.177  16.844  14.966 -0.1231 -0.1184 -0.2541
20111W        W38315   4.611  11.552   3.022  0.2120  0.4685 -0.0218
20112W        W38316  11.486   4.289   3.052  0.2401 -0.0048  0.1041
20113W        W38317   3.101   4.513   4.335 -0.2908  0.1632 -0.3801
20114W        W38318  11.114   1.818  15.946 -0.0885 -0.0621  0.0932
20115W        W38319  15.745  10.052  12.924 -0.1666  0.0736  0.0053
20116W        W38320   3.321   0.972  13.637  0.1103 -0.2064  0.0834
20117W        W38321  17.469  10.914  11.687  0.0176  0.0537 -0.1467
20118W        W38322  13.555   6.413   4.539 -0.0432 -0.3159 -0.0409
20119W        W38323  17.349   9.572   2.808 -0.1486 -0.0177 -0.0558
20120W        W38324   2.055  12.599   4.713 -0.2282 -0.1862 -0.0866
20121W        W38325   4.326   5.727  13.849  0.1916 -0.1155  0.0945
20122W        W38326   4.716   1.734   1.279  0.2678 -0.2199 -0.0556
20123W        W38327  16.842   0.580  16.084 -0.0034  0.0944  0.1570
20124W        W38328  16.631  11.907  14.130  0.2571  0.3013 -0.1326
20125W        W38329   8.709   2.773  12.207 -0.2723  0.0269 -0.1454
20126W        W38330   9.426  11.094   0.668 -0.1078 -0.0575  0.2765
20127W        W38331   9.862  15.085   2.017 -0.2352 -0.0065  0.1262
20128W        W38332   7.319  13.514   0.765  0.2236  0.0649  0.2076
20129W        W38333   1.952  11.197  15.183  0.2358 -0.0368 -0.1688
20130W        W38334  13.075  15.752   1.050 -0.1363  0.1738  0.1406
20131W        W38335   6.483  12.816  13.321 -0.1205  0.2801  0.0032
20132W        W38336  14.490   4.413   2.694  0.2200 -0.2458 -0.0088
20133W        W38337   2.804  10.108   5.028  0.3382 -0.1047  0.1178
20134W        W38338  11.677  17.238  13.226 -0.0033 -0.0780  0.1697
20135W        W38339   6.288   6.534   5.738  0.0428  0.0681 -0.2846
20136W        W38340  11.668   4.094  15.255 -0.0707 -0.0333 -0.0563
20137W        W38341  15.026  15.410   0.459 -0.1509  0.1336  0.1889
20138W        W38342   1.633  15.844   1.969 -0.1910 -0.1355  0.0914
20139W        W38343   9.199   6.288  13.695  0.0771  0.1390  0.3753
20140W        W38344   9.761   2.497  11.856 -0.2566 -0.2341 -0.2587
20141W        W38345  12.151  14.695  15.646  0.0659 -0.1787 -0.0476
20142W        W38346   2.449  13.070  13.152 -0.2441 -0.0310  0.0290
20143W        W38347  12.678   1.921  15.563 -0.0437 -0.0145 -0.3644
20144W        W38348   6.855  16.018   2.744 -0.0557  0.1653 -0.0237
20145W        W38349  14.297   1.294  14.153 -0.0090 -0.0500 -0.0436
20146W        W38350   8.413  12.892   5.505  0.1840  0.1006 -0.0678
20147W        W38351   2.775   1.494  13.142 -0.0585  0.1768 -0.1587
20148W        W38352  16.178   1.610  15.362  0.1689 -0.0362  0.1641
20149W        W38353   8.682  12.339   2.997  0.1367  0.0593  0.3666
20150W        W38354   8.630   9.442   0.254 -0.2392  0.1166 -0.1596
20151W        W38355  10.013   5.566  14.396  0.0639  0.2518  0.0302
20152W        W38356   0.834  10.088  16.156  0.1690  0.0855  0.0749
20153W        W38357  14.352   2.940  11.549 -0.1074 -0.0802 -0.0367
20154W        W38358   7.020   7.568  16.090  0.0563  0.2269  0.0574
20155W        W38359   2.224  12.739  10.955  0.1742 -0.3880 -0.1841
20156W        W38360  15.529  16.725   2.680  0.0481  0.3276  0.5168
20157W        W38361  13.751   1.606   0.952  0.0627 -0.0906 -0.1390
20158W        W38362  15.527  12.062   2.875  0.1008 -0.0611  0.0440
20159W        W38363  11.118   0.002   1.245  0.4148  0.1303  0.2406
20160W        W38364   1.486  10.448  14.201 -0.0684  0.0536 -0.1492
20161W        W38365  16.876  14.145   4.147 -0.2621  0.0063 -0.1665
20162W        W38366   7.907  14.904   0.955 -0.2007 -0.1198 -0.0657
20163W        W38367  11.306  12.420  14.631 -0.3428  0.1099 -0.0131
20164W        W38368  14.424   4.115  11.957  0.2002 -0.1085  0.1042
20165W        W38369  12.269   6.664  12.717 -0.2556 -0.0963 -0.1581
20166W        W38370  14.898   6.633   0.258  0.2857  0.1649 -0.1819
20167W        W38371  14.293   7.727   3.610  0.3923 -0.2192 -0.1819
20168W        W38372   6.262   8.577   2.039 -0.0664  0.2516  0.0957
20169W        W38373   7.730  17.605   4.429  0.1931 -0.2437 -0.2207
20170W        W38374   8.180   9.704   1.015 -0.0890 -0.0347  0.0729
20171W        W38375  15.956  11.565   2.252  0.0068 -0.0221 -0.1639
20172W        W38376  16.224   2.242  12.979  0.2601  0.0166 -0.0800
20173W        W38377  11.136  17.536  16.007  0.3723 -0.0623  0.2138
20174W        W38378   4.574  14.737   0.348 -0.0696  0.0918  0.1437
20175W        W38379   3.769  15.313  13.125  0.1460  0.0281 -0.0610
20176W        W38380   7.150  13.395   4.360  0.0880 -0.0946 -0.2730
20177W        W38381   5.391  15.091   3.551 -0.0885 -0.0178  0.1293
20178W        W38382  17.344   6.370   6.550 -0.0607  0.1530 -0.1695
20179W        W38383  14.568  10.901  15.890  0.2546 -0.0260 -0.2242
20180W        W38384   5.148   8.532   3.916  0.0548  0.2323 -0.1317
20181W        W38385  16.310  17.978  12.488  0.2601  0.0872  0.0014
20182W        W38386   7.147   7.708   0.362  0.0080  0.2255  0.1027
20183W        W38387   7.511  11.006  11.972 -0.0607  0.1814 -0.0104
20184W        W38388   9.193  15.030   1.392  0.1271 -0.2071 -0.4377
20185W        W38389   5.500  13.832   0.800 -0.3970  0.0929 -0.1255
20186W        W38390  14.552  10.021  12.584  0.1199  0.1180 -0.0501
20187W        W38391   5.220   1.088  15.955  0.0434 -0.0499  0.2673
20188W        W38392  16.874   9.720   4.437  0.2317  0.2102 -0.1863
20189W        W38393   5.019  17.730   4.649 -0.0113 -0.1154 -0.3948
20190W        W38394  14.635   0.382   2.814 -0.0229 -0.5198 -0.0589
20191W        W38395  17.030  16.336   2.102  0.0426 -0.0013  0.3010
20192W        W38396   7.764   5.526   1.913  0.2809  0.0986  0.4230
20193W        W38397   3.025  13.526  15.509 -0.1369  0.2959 -0.2382
20194W        W38398   6.861  10.618  15.933 -0.4006  0.0785  0.1821
20195W        W38399  14.900   9.433  11.767 -0.3168  0.3973 -0.0231
20196W        W38400  17.318   7.729   5.216  0.2031 -0.1327 -0.3085
20197W        W38401  15.231  14.682   1.852  0.0614 -0.1049 -0.1474
20198W        W38402   1.828   8.637   1.476 -0.1575 -0.0714  0.1446
20199W        W38403  14.463   3.932   5.170  0.2615 -0.1601 -0.2099
20200W        W38404  16.378  14.629   2.876 -0.2392 -0.0931  0.0021
20201W        W38405   1.465   8.062   3.217  0.1613 -0.0042 -0.4520
20202W        W38406  13.236   9.576  13.530 -0.0493 -0.2470 -0.2888
20203W        W38407   8.390  10.582   0.737 -0.0065  0.0756  0.2963
20204W        W38408  15.589   5.978   1.793  0.2703  0.0255  0.0386
20205W        W38409  14.986   3.426  15.836  0.0418 -0.0567 -0.0705
20206W        W38410   6.628  16.520   4.818  0.1067  0.0725  0.0062
20207W        W38411  17.579  14.986  11.960  0.3564  0.1578  0.3993
20208W        W38412  14.871  11.114   4.657 -0.1933  0.4224  0.1009
20209W        W38413  14.036  12.549   0.945  0.1950 -0.0598  0.2048
20210W        W38414  16.708   4.767   4.267 -0.0988 -0.0031 -0.0723
20211W        W38415   9.568  13.750   4.577  0.1309 -0.0163  0.0798
20212W        W38416   1.861   2.792   4.606 -0.0430  0.0088 -0.3125
20213W        W38417  13.281  11.245   2.309  0.0890 -0.1856 -0.1990
20214W        W38418   5.769  17.771   3.357  0.1397 -0.2864 -0.1994
20215W        W38419  10.953  12.147   1.315  0.0655 -0.0052  0.2144
20216W        W38420  16.976   0.576   3.273 -0.1989  0.2113 -0.3607
20217W        W38421   5.667   3.028   2.915  0.0797  0.1887  0.0647
20218W        W38422   4.778  15.481   4.247  0.2027  0.2257  0.0091
20219W        W38423   5.844   1.462   2.136  0.1177 -0.0955 -0.1133
20220W        W38424   2.748   9.967  14.578  0.3473 -0.0046 -0.3869
20221W        W38425   9.192   7.835   2.258 -0.2765  0.2252 -0.1037
20222W        W38426  11.091  13.619  14.766  0.1019 -0.1092  0.1329
20223W        W38427   6.941   6.823  15.513 -0.1294  0.1254 -0.0041
20224W        W38428  17.191   3.829  13.842  0.1891  0.1734 -0.1733
20225W        W38429   7.656   3.207  12.076  0.1150  0.1119 -0.0550
20226W        W38430  16.519  15.748  15.593 -0.3782  0.1337  0.1635
20227W        W38431  11.375  10.420  11.075 -0.1795  0.1724 -0.0110
20228W        W38432   1.963   5.043  11.170 -0.0228 -0.0153  0.0333
20229W        W38433   0.838   1.202   1.278  0.3934  0.1559  0.0493
20230W        W38434  15.336  11.782  15.015  0.2415  0.2021 -0.0253
20231W        W38435  11.670  17.535  11.401 -0.3354  0.0154  0.1918
20232W        W38436   8.121  11.616  11.609  0.3022  0.0013 -0.0326
20233W        W38437  13.799   5.684  13.862  0.1218  0.2005 -0.0731
20234W        W38438  16.589  16.663  12.312  0.0672  0.1183  0.0406
20235W        W38439  14.720  17.051  15.625 -0.0513  0.3254  0.0227
20236W        W38440   9.810  10.495  15.887  0.1192  0.1155 -0.1360
20237W        W38441   7.791   4.555  14.644  0.0069 -0.0636 -0.2931
20238W        W38442  14.325   5.094  14.361  0.1591  0.2326 -0.1172
20239W        W38443  15.419   6.157   3.451  0.1129  0.0629  0.0079
20240W        W38444   6.352  17.817   0.231  0.0866 -0.2641  0.0198
20241W        W38445   3.678   4.907   3.179 -0.1792  0.0692  0.0400
20242W        W38446   8.738   7.390   4.625 -0.0200  0.1102  0.0957
20243W        W38447   2.479   1.410   1.668  0.2299 -0.0469  0.0339
20244W        W38448  16.316  17.210   1.060  0.2199  0.0162  0.0457
20245W        W38449  14.825  16.981  15.008 -0.0857  0.3288 -0.0435
20246W        W38450   1.624  14.911  11.402  0.1904 -0.0869 -0.3863
20247W        W38451  16.129   7.890  14.854 -0.0735  0.0184 -0.0734
20248W        W38452   8.035  16.724  16.010 -0.1621  0.2354  0.0549
20249W        W38453   8.143   7.995  12.340  0.4101 -0.1171  0.2877
20250W        W38454   5.489  14.795  12.625 -0.2578  0.1867 -0.0421
20251W        W38455  14.312   6.041  14.358  0.0981  0.0529 -0.1952
20252W        W38456   7.077  10.488   5.249  0.0939 -0.2256 -0.0542
20253W        W38457  12.226   8.518  12.129 -0.1836  0.3978  0.0112
20254W        W38458   5.211  12.829   2.570 -0.1085 -0.1089 -0.1237
20255W        W38459   9.332  14.538   3.046  0.1760  0.0977  0.2414
20256W        W38460  12.663   0.067  13.330  0.3989 -0.0184 -0.0018
20257W        W38461  14.786   7.843  16.095 -0.3050 -0.1617  0.1371
20258W        W38462  18.006  10.218   2.610  0.0847 -0.2642 -0.0511
20259W        W38463  14.897   6.275  11.812  0.3232 -0.1029  0.0233
20260W        W38464   8.435   4.602   2.532 -0.2308  0.2093 -0.1075
20261W        W38465   5.809  11.395   3.155 -0.0898 -0.0633  0.1468
20262W        W38466  15.569   0.079   0.487  0.0518  0.0530 -0.1008
20263W        W38467   2.831   2.440  14.644  0.1157  0.0076  0.0286
20264W        W38468   9.302   0.938  14.939  0.1714 -0.0821  0.1302
20265W        W38469   9.642   9.391   4.103 -0.1648 -0.2506  0.1613
20266W        W38470   8.744   7.008  15.627 -0.1503  0.3464  0.1709
20267W        W38471   5.833   4.785   2.672  0.0673  0.1906  0.0299
20268W        W38472   6.143   4.446  11.690 -0.2224 -0.0983 -0.0585
20269W        W38473  16.073   5.250  15.382 -0.0854  0.0196 -0.1192
20270W        W38474   3.457   8.237  13.277 -0.0230 -0.2675 -0.0378
20271W        W38475   0.447   3.522   2.690 -0.0950  0.0873 -0.1215
20272W        W38476   8.754   1.613   2.414 -0.1427 -0.2163 -0.1137
20273W        W38477  17.041  13.344   2.811  0.0323 -0.1327  0.2120
20274W        W38478  16.449  10.403  14.795  0.0612 -0.0003 -0.1779
20275W        W38479  14.111   0.946  16.165 -0.0029  0.4609  0.2614
20276W        W38480  16.789  17.722  13.585 -0.0244  0.2726  0.2046
20277W        W38481   9.841   7.483  11.464 -0.1321 -0.2446 -0.0464
20278W        W38482   9.654  12.315   2.936  0.1596  0.0423 -0.1753
20279W        W38483   9.693  15.377   1.085  0.3213 -0.2144  0.1045
20280W        W38484   5.587  15.355  12.534 -0.0285 -0.0060 -0.1242
20281W        W38485   7.012   8.816  16.172  0.1369 -0.0109 -0.0880
20282W        W38486   2.024  16.491   3.244 -0.4359  0.0553 -0.0043
20283W        W38487  16.768   5.482  11.562 -0.0741  0.0794 -0.0734
20284W        W38488   2.798  11.773   3.415  0.1306  0.0197 -0.0164
20285W        W38489   7.695   0.288   3.202  0.1196 -0.0986 -0.1952
20286W        W38490   3.060   5.653  12.426  0.0685 -0.1902  0.2573
20287W        W38491   6.012   2.744  11.610  0.0967  0.0385  0.0771
20288W        W38492  11.229   7.847  14.910  0.1863  0.3944  0.2724
20289W        W38493   2.666   0.003  13.278  0.1247  0.0611 -0.0726
20290W        W38494   7.555  17.018   3.723 -0.3741 -0.0810  0.3651
20291W        W38495   9.334  10.143  12.977 -0.1277 -0.0745  0.0531
20292W        W38496   9.466  11.598  15.566  0.2442  0.0723 -0.0830
20293W        W38497  16.713   1.739   2.710  0.0891  0.2673 -0.0234
20294W        W38498  11.922   0.920   1.040  0.1167 -0.1953  0.1308
20295W        W38499  12.915  10.853  12.585  0.1985  0.0937  0.1479
20296W        W38500  13.857   3.383  13.530  0.1138 -0.2723  0.0229
20297W        W38501   7.462   6.763  15.794 -0.0161 -0.1007 -0.0050
20298W        W38502   3.438   0.202   2.953 -0.1371  0.0205  0.0157
20299W        W38503  13.570   2.883   5.511  0.2151  0.0960 -0.1457
20300W        W38504  11.449   4.028   4.508 -0.1806 -0.1058 -0.0559
20301W        W38505   2.510  16.012   0.058  0.0741 -0.1688 -0.0480
20302W        W38506  13.102   2.644  14.175  0.0146  0.2661  0.2499
20303W        W38507   4.320   0.185   2.247 -0.0640 -0.1498 -0.1043
20304W        W38508  11.348   0.241  16.040  0.0405 -0.1184  0.0641
20305W        W38509   3.725  14.250   2.865  0.0103  0.5051  0.2022
20306W        W38510   0.971  12.355   3.482 -0.0071  0.0165 -0.0633
20307W        W38511  10.158  15.901   1.831  0.0871 -0.0703 -0.2475
20308W        W38512   9.143   1.663  14.784 -0.1218 -0.0675  0.4240
20309W        W38513   9.201   9.158  13.857 -0.1025 -0.3038 -0.0936
20310W        W38514   6.229   3.836  12.855  0.1145  0.0597  0.0949
20311W        W38515   0.784   7.651  12.256 -0.2983  0.0677  0.0618
20312W        W38516   6.633  12.871   4.151  0.0010  0.1349 -0.0517
20313W        W38517   8.147   0.160   3.629  0.1343 -0.0580 -0.0427
20314W        W38518   0.777   2.192  14.552  0.1129 -0.1209  0.0649
20315W        W38519  14.427   9.829   1.954 -0.1620  0.0952  0.2292
20316W        W38520   4.740   1.201   4.133  0.0695  0.1223 -0.3057
20317W        W38521   2.990   7.135   0.717  0.0914  0.0740  0.1631
20318W        W38522   5.591  13.818   3.471 -0.0679 -0.1457 -0.0290
20319W        W38523   2.070  15.634   0.557  0.0173  0.2142  0.0154
20320W        W38524  12.839  16.271   2.819 -0.0246 -0.1903  0.0980
20321W        W38525  15.816   6.174   0.621  0.0750  0.1169 -0.1206
20322W        W38526  12.350   6.611  11.094 -0.0548 -0.6024  0.1835
20323W        W38527  11.573  15.744  15.394  0.1082 -0.1153  0.0748
20324W        W38528   5.525  10.438  15.560 -0.2510  0.2192 -0.0730
20325W        W38529   6.049  13.971   3.653  0.1637 -0.2147  0.2168
20326W        W38530   7.465   6.528   1.780 -0.1829 -0.1348  0.2889
20327W        W38531   9.016  11.854   1.756 -0.1235  0.0654 -0.1464
20328W        W38532  14.715  12.370  14.334 -0.1997 -0.0581  0.0611
20329W        W38533  14.671  11.387   1.018 -0.1987  0.0384  0.1447
20330W        W38534  12.261  13.430   3.231 -0.0118 -0.1763  0.1754
20331W        W38535   9.473   3.219  14.903  0.0422 -0.0545  0.1026
20332W        W38536  17.658  13.172  12.581 -0.1984  0.2030 -0.1070
20333W        W38537  12.075   2.437  14.371  0.0675 -0.0944  0.3718
20334W        W38538   2.756  17.378   4.369  0.1279 -0.1228  0.0196
20335W        W38539  17.343   7.295  15.173  0.4241 -0.0818 -0.1708
20336W        W38540   1.819   6.167  15.038 -0.1687  0.1870  0.2153
20337W        W38541  15.031  15.757  14.561  0.1718 -0.4365  0.2682
20338W        W38542   3.355   9.270  14.790 -0.1142  0.1263  0.0614
20339W        W38543  16.314   1.597  16.167  0.4271  0.3009 -0.0517
20340W        W38544  16.156   8.539   5.387 -0.0020  0.0753  0.0189
20341W        W38545  10.446  14.102  13.827  0.1656 -0.1560 -0.1603
20342W        W38546   2.083   7.103   1.236  0.3123 -0.3310 -0.2304
20343W        W38547   4.304   5.043   2.741  0.1882 -0.2300 -0.0454
20344W        W38548   5.318  15.094  13.957 -0.1078  0.1032  0.1493
20345W        W38549   6.959  12.414  14.599 -0.3346 -0.2082  0.1100
20346W        W38550  15.376  10.574   3.636 -0.0323 -0.0995  0.0630
20347W        W38551   5.086   4.518   1.922  0.1480 -0.0683 -0.0674
20348W        W38552  11.831   0.675   3.717 -0.0843 -0.0006 -0.2415
20349W        W38553  11.887  13.546  15.427 -0.1268  0.2257 -0.2908
20350W        W38554   9.696   1.489   1.916  0.0739 -0.1683 -0.0483
20351W        W38555   1.180   6.051   1.984 -0.1394  0.4373  0.0339
20352W        W38556  12.796   4.026   1.625  0.3198 -0.2132 -0.0110
20353W        W38557  11.133  12.909   1.546  0.2575 -0.1957  0.1670
20354W        W38558   8.632  11.492  11.416 -0.1887  0.1708  0.0583
20355W        W38559   9.319   4.608  11.479 -0.2061  0.0161 -0.1056
20356W        W38560   1.246   8.522  14.320  0.2729 -0.1782 -0.0381
20357W        W38561  10.579   9.450   2.372 -0.2298  0.0015  0.0847
20358W        W38562   8.714  13.037  14.995  0.2379 -0.0951  0.4080
20359W        W38563   8.968   2.083   2.235  0.0035 -0.2556  0.0216
20360W        W38564   0.708   3.085  15.032  0.0829 -0.0409  0.1899
20361W        W38565  10.411  12.208  13.441 -0.0690 -0.0703 -0.1818
20362W        W38566  15.836   4.251   0.334 -0.1402  0.0684  0.2839
20363W        W38567  10.482  12.937  14.606 -0.0377 -0.0680  0.1543
20364W        W38568   4.354  15.175   1.574 -0.1863 -0.2377 -0.2232
20365W        W38569  11.778  13.071   4.032 -0.0678 -0.3022  0.0533
20366W        W38570   8.501   5.291   0.358 -0.1144 -0.2207 -0.0494
20367W        W38571  12.422  17.939   1.487 -0.0985  0.1822  0.0026
20368W        W38572   2.720  12.543  16.017  0.0445 -0.0293  0.0228
20369W        W38573   2.876   7.929   1.679  0.2059  0.0458  0.0507
20370W        W38574   6.678   8.392   1.660  0.0551 -0.1066 -0.2060
20371W        W38575  10.652  13.103   1.486  0.1600 -0.2438  0.1046
20372W        W38576   6.573  12.541  12.090  0.1140  0.1329 -0.1563
20373W        W38577  13.412   2.917   1.109 -0.0089  0.2003  0.2350
20374W        W38578   5.308  11.367   3.309 -0.0137 -0.1797  0.1994
20375W        W38579   3.031  14.719  13.103  0.2460  0.0865  0.0812
20376W        W38580   7.933   5.109  13.212 -0.0572  0.3152  0.1505
20377W        W38581  10.333  15.970   0.947  0.0409 -0.0319  0.2026
20378W        W38582  14.632   1.968  13.683  0.0538  0.0248  0.0287
20379W        W38583  15.828   3.475  12.667 -0.0117 -0.1354 -0.0484
20380W        W38584   9.663   7.469  15.850 -0.1138 -0.2584  0.1674
20381W        W38585   3.112  12.592  12.060  0.2347 -0.1190 -0.0047
20382W        W38586   6.851   9.095  14.956 -0.4375  0.1458 -0.2041
20383W        W38587   7.141  17.717  13.005  0.0026  0.1784 -0.1812
20384W        W38588  16.618  15.660   3.518  0.0995  0.1850 -0.2237
20385W        W38589   8.516   6.377  12.982  0.3851  0.0636  0.1677
20386W        W38590  10.713   4.655   3.586  0.0279  0.1741  0.1546
20387W        W38591  17.724  10.439  15.687  0.0418 -0.2410 -0.0340
20388W        W38592   9.521   6.062   0.240  0.2013 -0.3086 -0.1073
20389W        W38593  17.659  14.451   4.567  0.3730  0.0739 -0.1528
20390W        W38594  16.664   5.228   0.358 -0.0458 -0.1124 -0.1796
20391W        W38595   6.063  12.820  15.893  0.1387  0.0117 -0.0510
20392W        W38596   8.178   8.543   4.280  0.0788 -0.0834 -0.0218
20393W        W38597  10.319  13.516   6.120 -0.1678 -0.2445 -0.1331
20394W        W38598  12.111  14.821   1.433 -0.1294 -0.0342 -0.0594
20395W        W38599  17.192   1.538   2.793  0.2666 -0.1464  0.0382
20396W        W38600   9.993   9.988  15.940 -0.0653 -0.0152 -0.1908
20397W        W38601  10.994   3.271   1.190 -0.0848 -0.1666  0.0962
20398W        W38602   3.792  16.254   3.234  0.1847 -0.0839  0.1536
20399W        W38603   8.916   6.096   0.379 -0.2045 -0.0109 -0.3980
20400W        W38604   1.421   8.500   1.720  0.0349 -0.3649 -0.0031
20401W        W38605   8.229   3.345   1.916  0.0928 -0.1672  0.1311
20402W        W38606  13.813   1.532   1.501 -0.1516  0.0251  0.0519
20403W        W38607  16.747  16.816  16.172  0.0410 -0.0895  0.0650
20404W        W38608  13.396   9.835   3.680 -0.0448  0.1275 -0.1274
20405W        W38609  15.122   0.434  14.433  0.1505  0.0781 -0.0219
20406W        W38610   9.057   4.571   2.594  0.0179  0.4117  0.1948
20407W        W38611   6.940  17.235  14.855 -0.3428  0.0930  0.2965
20408W        W38612   6.197   1.440   3.638 -0.1858  0.2488 -0.1476
20409W        W38613   0.022  15.139  15.194  0.3019  0.2760 -0.2201
20410W        W38614   7.221  16.188  13.781 -0.1095  0.1353 -0.2028
20411W        W38615   4.324   6.805   1.365 -0.2028  0.0854 -0.2920
20412W        W38616   6.435  10.376   4.351  0.0215 -0.1692 -0.0333
20413W        W38617  16.310  17.256   2.798  0.1046 -0.1326  0.2203
20414W        W38618  12.334   5.751   3.296 -0.1257  0.1331 -0.2219
20415W        W38619  16.026   7.427   1.577  0.2290 -0.2959  0.1561
20416W        W38620   0.111  17.729   5.336  0.0095  0.2864 -0.3209
20417W        W38621  10.087  17.373   0.831 -0.2259  0.1225 -0.0325
20418W        W38622   8.165  14.707  15.757 -0.0837  0.1503 -0.0626
20419W        W38623  10.124   7.652  16.034 -0.0810  0.1072 -0.0883
20420W        W38624   8.772   5.539   3.373 -0.0650 -0.0674  0.1945
20421W        W38625  17.746  15.695   2.055  0.2965  0.1390  0.2062
20422W        W38626   5.474   7.658  12.861 -0.0568  0.1530 -0.3095
20423W        W38627   1.482   0.836   5.425  0.4077  0.1864  0.0551
20424W        W38628   7.313  15.572  14.917  0.0152  0.2574 -0.0043
20425W        W38629   4.240   5.663   1.257  0.0745 -0.0585 -0.0153
20426W        W38630   3.962   7.506   4.404 -0.2057  0.1039  0.1822
20427W        W38631   6.395   3.954  12.384  0.0484 -0.1114  0.1287
20428W        W38632   1.755   5.263   1.881  0.3366  0.2793 -0.0134
20429W        W38633   1.086   5.470  15.268  0.1941  0.1128  0.2011
20430W        W38634   2.902   5.882   5.616  0.0832 -0.3141 -0.0607
20431W        W38635  11.404   5.006   4.853 -0.2202 -0.2496  0.1328
20432W        W38636   6.124   0.152   1.487 -0.1160  0.2170 -0.0136
20433W        W38637   7.385   6.417   1.269  0.1774 -0.1873  0.1055
20434W        W38638  10.553   1.485   4.797 -0.0482 -0.2105 -0.3090
20435W        W38639   3.233  16.231  12.861 -0.1976  0.0032  0.1525
20436W        W38640  15.326  16.818   5.788 -0.0791  0.1307 -0.2719
20437W        W38641   8.080   3.499   4.694 -0.3721 -0.4518  0.1209
20438W        W38642   0.700   8.980   0.113  0.0897 -0.0431 -0.1455
20439W        W38643  16.321  16.201   0.721 -0.2095  0.1132 -0.0694
20440W        W38644   8.799   5.964   0.887  0.1844 -0.1563 -0.2368
20441W        W38645  11.062  15.988  14.802  0.0932  0.1049  0.2163
20442W        W38646   3.477  15.156  13.472  0.0573 -0.2053 -0.0208
20443W        W38647  17.069  11.906   1.073  0.0485  0.0283 -0.0350
20444W        W38648   8.507  16.093  14.504 -0.1575 -0.2353  0.0927
20445W        W38649   2.620  13.441   2.853  0.3469  0.2375 -0.3280
20446W        W38650  17.973   8.595  15.581 -0.0323 -0.0505  0.2602
20447W        W38651   3.610   7.988   1.066  0.2083  0.3150 -0.2172
20448W        W38652   9.018  14.188   1.985  0.0327 -0.0696  0.0646
20449W        W38653   4.879   2.361   2.734 -0.0765 -0.0231  0.0394
20450W        W38654   3.648   0.167   0.928  0.1305  0.1722  0.0407
20451W        W38655   1.083  15.615  11.397  0.0828 -0.3392 -0.2767
20452W        W38656   1.645   9.201  14.779  0.3206  0.2860  0.0735
20453W        W38657  14.840   6.056  13.626 -0.1693 -0.1083  0.1823
20454W        W38658   7.689   0.883   1.488 -0.0877 -0.1492  0.2161
20455W        W38659   1.283   4.379   2.446 -0.1598  0.0066 -0.0905
20456W        W38660  15.092  13.571  15.642 -0.0638 -0.2182 -0.0832
20457W        W38661  17.311   3.204  11.269 -0.1488 -0.0186  0.3036
20458W        W38662  12.971  12.641  11.810 -0.1343  0.1152 -0.0329
20459W        W38663   7.644  12.640   2.522 -0.1238  0.2879 -0.1940
20460W        W38664  14.693   2.906   3.838  0.0880  0.0808  0.1319
20461W        W38665   6.219   1.580  11.707 -0.0844 -0.3545 -0.0009
20462W        W38666   2.822  12.446   1.374  0.1661  0.3937  0.1236
20463W        W38667  12.674   5.007  13.769  0.0876 -0.0367 -0.0396
20464W        W38668   3.081  11.151  13.135  0.1287  0.0469  0.3324
20465W        W38669   8.281   4.859  12.065 -0.1424 -0.1667 -0.1942
20466W        W38670   6.674   2.014  11.548  0.1744  0.6116  0.0876
20467W        W38671  14.304  10.817   2.396 -0.0262 -0.0739  0.1143
20468W        W38672   2.592  15.265   3.938 -0.1782  0.1078  0.3908
20469W        W38673   2.290  17.145   4.467 -0.5835 -0.0602 -0.1223
20470W        W38674  12.971   8.129  16.036 -0.0122 -0.0468 -0.0851
20471W        W38675   3.392  16.343   0.833 -0.0508  0.1191  0.1843
20472W        W38676   4.731  15.511  14.397  0.0304  0.0688  0.0778
20473W        W38677   9.347   9.856  14.796 -0.4839 -0.2370  0.2752
20474W        W38678   0.282   6.317   4.151  0.0540  0.4634 -0.1658
20475W        W38679   4.203  12.529  15.090 -0.0443 -0.2581 -0.0399
20476W        W38680   7.106  17.073  12.502 -0.0612 -0.1656  0.1065
20477W        W38681   3.781   3.829   2.967  0.1898 -0.0216  0.0174
20478W        W38682   5.246   0.958  12.293 -0.1543  0.2176  0.1305
20479W        W38683   9.359  13.027   3.318 -0.2788 -0.1092  0.1963
20480W        W38684   5.960  17.754   3.912  0.0550 -0.0973 -0.4269
20481W        W38685   8.528   1.043  11.223 -0.0164 -0.1857 -0.1801
20482W        W38686   3.496  17.143   0.079  0.1388 -0.2084  0.1714
20483W        W38687   2.560  12.043   3.919 -0.2984 -0.0336  0.3436
20484W        W38688   3.873   7.560   3.011 -0.0111 -0.1674  0.1667
20485W        W38689  15.983   4.495  12.403  0.0549  0.2128 -0.2332
20486W        W38690  16.712   0.119  12.723  0.0578  0.0004  0.1189
20487W        W38691   9.911   4.592  12.453  0.3999  0.3431 -0.4427
20488W        W38692  15.969  12.916   2.898 -0.0126  0.1541  0.2690
20489W        W38693  16.928   8.532   1.935 -0.0599  0.2566 -0.0021
20490W        W38694  17.706  15.271  13.101  0.0904 -0.2337  0.0211
20491W        W38695   3.746  13.229   1.682  0.0170  0.3014 -0.1155
20492W        W38696   6.010   9.190   4.554 -0.0713  0.0585  0.4659
20493W        W38697   0.191   7.513   3.867 -0.0680  0.3588 -0.0496
20494W        W38698   4.267  14.614  14.487  0.1343  0.1021 -0.0835
20495W        W38699   1.012  15.622  12.469 -0.2903  0.1224 -0.2205
20496W        W38700   7.756  11.146   2.754 -0.2696 -0.0933  0.2051
20497W        W38701   5.645   4.000   2.070 -0.1235 -0.3008  0.0552
20498W        W38702   5.435  16.090  10.314 -0.0852 -0.1496  0.1861
20499W        W38703   2.803  11.963  14.757 -0.1179  0.1313 -0.0634
20500W        W38704  16.646   8.405   4.672  0.2367 -0.0316 -0.0393
20501W        W38705   6.288  10.396  15.698 -0.3020  0.0540 -0.2323
20502W        W38706   5.506   6.008   1.964  0.1313 -0.2234 -0.2831
20503W        W38707  12.546  14.552  13.634  0.0213  0.0843  0.2081
20504W        W38708  13.973  15.181   3.317 -0.0413  0.1030 -0.4047
20505W        W38709  14.161  13.323   3.581 -0.1269 -0.0599 -0.0925
20506W        W38710  14.260  17.892  11.866  0.2180 -0.2076 -0.0352
20507W        W38711  16.532   2.525   4.429 -0.1065  0.0543 -0.1157
20508W        W38712   8.471   1.557  13.937  0.1228  0.0349  0.0332
20509W        W38713   9.715   8.376   0.338 -0.0047 -0.2036 -0.1196
20510W        W38714   3.842   1.173  16.001  0.1113 -0.0735 -0.0514
20511W        W38715  16.083   6.119   4.289 -0.1103 -0.2331 -0.3204
20512W        W38716   2.905  13.432   0.135 -0.0658 -0.2122 -0.8140
20513W        W38717   1.602   0.622  12.990  0.0643 -0.0237  0.0931
20514W        W38718  15.050   3.438   2.908  0.1574 -0.3582 -0.0833
20515W        W38719   4.992   2.755  11.909  0.2336 -0.3219  0.1437
20516W        W38720  12.264  11.081  13.804 -0.1481 -0.0009 -0.0100
20517W        W38721  18.034   5.954   3.676 -0.2288 -0.0292  0.1905
20518W        W38722  10.871   6.430  15.222 -0.0323 -0.0646  0.0312
20519W        W38723   2.702  17.418  12.584 -0.2003 -0.0097 -0.0339
20520W        W38724  12.245   2.261  15.431  0.1721  0.1054 -0.0381
20521W        W38725   1.823   6.056  12.013  0.1478  0.1877 -0.0792
20522W        W38726   8.967  16.493   0.693  0.0103 -0.2930  0.2015
20523W        W38727  10.561  14.971   0.457 -0.2078  0.2433  0.0612
20524W        W38728   6.305   9.481   2.439  0.0373 -0.0831  0.3074
20525W        W38729   9.844  13.919   3.731  0.0616 -0.2286 -0.1287
20526W        W38730  14.490   6.643   2.949  0.2166  0.0813 -0.0365
20527W        W38731   0.912  14.760  11.833 -0.3363  0.2118 -0.0128
20528W        W38732  11.514   3.412   0.306  0.1477 -0.0634  0.4792
20529W        W38733  10.235   9.937   3.826  0.4388 -0.1179 -0.0686
20530W        W38734   8.240  11.124   3.337  0.0094  0.0561  0.4744
20531W        W38735  12.751  16.757   0.170 -0.1388 -0.2107 -0.2316
20532W        W38736   8.208  16.532   3.453 -0.0415  0.3843  0.0536
20533W        W38737  17.347  10.732   2.525 -0.2660  0.0649 -0.3496
20534W        W38738  11.029   6.893  12.905 -0.0704 -0.2760 -0.0494
20535W        W38739  17.123   5.620  11.886  0.1460  0.1026 -0.1089
20536W        W38740  14.380   3.940   0.045  0.1658  0.0236 -0.3887
20537W        W38741   7.667  14.848  13.581  0.2383  0.0875 -0.0931
20538W        W38742   2.977  14.981  13.985  0.0060 -0.0657  0.0056
20539W        W38743  16.325  11.500   4.773 -0.1030 -0.0536  0.1856
20540W        W38744  10.919   7.656   4.534  0.0087  0.0538 -0.1204
20541W        W38745   9.834   1.973  13.921  0.0601 -0.1586  0.1705
20542W        W38746   3.912  11.910   4.697 -0.2674  0.0754  0.0878
20543W        W38747   7.379  11.111  13.766  0.0060  0.3800 -0.1153
20544W        W38748   6.452   9.463  15.895 -0.0016  0.1988 -0.1023
20545W        W38749   8.884   5.541  14.858  0.0392 -0.2016  0.1021
20546W        W38750   8.446   6.410   0.448  0.0971 -0.2362 -0.0023
20547W        W38751   0.116  13.439  15.886 -0.1951  0.1527  0.0144
20548W        W38752  17.179   0.119   0.969 -0.0157  0.4041 -0.0453
20549W        W38753  15.014  13.933   0.475 -0.1955 -0.0606 -0.3574
20550W        W38754   5.587  13.441  12.388  0.2064 -0.0085 -0.3140
20551W        W38755  15.536   9.337  14.536 -0.3677 -0.1716  0.0089
20552W        W38756  11.269   6.917  11.251 -0.1367  0.0284  0.2109
20553W        W38757   9.050  14.116   0.095 -0.1980  0.5234  0.2207
20554W        W38758   5.975  10.861   3.236  0.0614 -0.1421  0.3283
20555W        W38759  12.117   4.552   4.225  0.0432 -0.0536 -0.1585
20556W        W38760  11.906   6.811   1.386 -0.0144 -0.1673 -0.2123
20557W        W38761  10.836  15.156   1.376 -0.0209  0.0108 -0.0733
20558W        W38762  16.489  11.279   3.859 -0.1197 -0.1369 -0.1878
20559W        W38763   3.710   4.570  11.492  0.2572  0.0602  0.0750
20560W        W38764  14.527  12.254   4.752  0.2981  0.1560 -0.0540
20561W        W38765   9.449  11.682   4.886 -0.0139 -0.1104 -0.1753
20562W        W38766   5.940  18.030  15.618  0.0712 -0.0089  0.0956
20563W        W38767   6.732  16.325   5.336  0.0597 -0.2221 -0.0176
20564W        W38768   8.205  12.296  16.142 -0.1574 -0.1567 -0.5344
20565W        W38769  17.158   4.952   3.796 -0.0223 -0.3829 -0.0436
20566W        W38770   2.237   1.810   4.476  0.1523 -0.2175  0.1447
20567W        W38771   9.328  17.184   0.272 -0.0674  0.0939  0.2092
20568W        W38772  17.868  17.810   1.969 -0.2610  0.2529  0.1512
20569W        W38773  15.388  10.858  13.175  0.2016 -0.0836 -0.2094
20570W        W38774   8.072   9.018   1.646  0.0905  0.2345  0.0908
20571W        W38775  11.205  12.497  16.035 -0.0677 -0.0877  0.0877
20572W        W38776   0.290   2.962   1.284  0.1833  0.1493  0.1611
20573W        W38777   1.747   8.643   0.252 -0.1106 -0.1593 -0.2315
20574W        W38778  14.883   6.547  13.840 -0.0045 -0.1802 -0.2140
20575W        W38779   5.351  17.996   1.328  0.0109  0.0358  0.0069
20576W        W38780   8.116  15.123  14.559  0.0481 -0.1789  0.0521
20577W        W38781   2.999  15.082  13.508  0.0649  0.2526  0.4207
20578W        W38782  16.481  15.504   3.931 -0.0051  0.0573 -0.0258
20579W        W38783  10.486  17.481  14.053  0.1123  0.1393 -0.1194
20580W        W38784   5.971   4.018   3.477 -0.2187 -0.1494  0.0236
20581W        W38785   6.032   9.459  16.152  0.0285  0.1650  0.0177
20582W        W38786   0.789   0.034  11.506 -0.2357 -0.0724 -0.1699
20583W        W38787  10.549   2.507   4.023 -0.0532  0.0701  0.0445
20584W        W38788   5.553   3.144  15.673 -0.3229 -0.1353 -0.0616
20585W        W38789   4.249   7.356  13.267  0.1166 -0.0449 -0.2013
20586W        W38790   9.921   5.775   3.630 -0.1164 -0.1849 -0.1294
20587W        W38791  16.970  15.226  11.687 -0.0186  0.2702  0.1001
20588W        W38792  15.105   6.499  14.382  0.0938 -0.1832  0.3285
20589W        W38793   0.983   1.366   2.660  0.0125 -0.2352 -0.1806
20590W        W38794   2.623   7.089  11.950 -0.1274 -0.0764 -0.0652
20591W        W38795  16.884  14.745   0.506  0.0936 -0.1394  0.4591
20592W        W38796  11.907   1.929   3.110 -0.2522  0.0238 -0.1009
20593W        W38797  14.146   8.821  15.018 -0.1790  0.2137 -0.1481
20594W        W38798   5.373  12.322   0.184  0.2760 -0.1334 -0.1176
20595W        W38799  14.434  10.332  14.524 -0.0962 -0.0697  0.1908
20596W        W38800   4.211   3.238  13.712  0.0756 -0.0937 -0.0584
20597W        W38801   4.700   0.892   3.420  0.3246  0.2022  0.0385
20598W        W38802  16.176   0.857   4.790  0.2354 -0.1872 -0.0554
20599W        W38803   1.848  17.001  14.586  0.1071  0.0832  0.1737
20600W        W38804   0.579   3.254   1.653 -0.2150  0.4099 -0.1516
20601W        W38805   3.839  12.405   5.632 -0.2054  0.0385  0.1125
20602W        W38806   4.683  15.126  12.878  0.0491 -0.1152 -0.0839
20603W        W38807   1.450   2.569   0.319  0.2461 -0.0629  0.2152
20604W        W38808   2.295  13.572  11.431 -0.2514 -0.2008 -0.1995
20605W        W38809  16.219  17.628  12.018 -0.3546  0.4645 -0.1021
20606W        W38810  13.743   0.708  11.555  0.0028 -0.0948  0.0112
20607W        W38811   7.654  11.316   3.295  0.1302 -0.2698 -0.0927
20608W        W38812   4.387  14.734  11.552  0.1135 -0.0816  0.2295
20609W        W38813   1.350  10.483   0.592  0.1432 -0.1534 -0.3163
20610W        W38814   4.987  16.377   3.778  0.1166  0.3512  0.0715
20611W        W38815   1.945   4.694  11.553 -0.0108  0.1052  0.0601
20612W        W38816  16.061  10.067   4.400  0.0662 -0.0716 -0.2198
20613W        W38817   6.743   1.829  12.035  0.2370  0.0971  0.0490
20614W        W38818   1.292   9.493  14.439  0.2146 -0.0514  0.0388
20615W        W38819  10.565  14.377   3.477 -0.0529  0.1117 -0.0222
20616W        W38820   8.934  15.308   3.047 -0.4141  0.0863  0.0448
20617W        W38821  10.060  16.393   4.445 -0.0336 -0.0677 -0.0403
20618W        W38822  13.663   4.428   4.609  0.0503  0.0877  0.1973
20619W        W38823  13.070   9.727   4.040  0.0188  0.1808 -0.0563
20620W        W38824  11.685   0.023   0.150 -0.0341  0.0667  0.0934
20621W        W38825   1.088  16.298   3.785 -0.3053  0.2903 -0.0540
20622W        W38826  12.414   2.517   0.142 -0.1656  0.1165 -0.0505
20623W        W38827  14.200  11.111   3.340  0.0962  0.5937  0.4026
20624W        W38828  15.760   3.853   4.191 -0.1801  0.4113  0.2331
20625W        W38829   0.024   9.526   0.675 -0.0175  0.0120  0.1817
20626W        W38830  16.015   0.063   2.264  0.1995 -0.0052 -0.1528
20627W        W38831   9.013   0.460  11.884  0.0483 -0.2118 -0.1186
20628W        W38832  11.244  12.419   1.667  0.0404  0.1261  0.2020
20629W        W38833   7.549   4.789  13.331  0.1873  0.2408 -0.0152
20630W        W38834  14.754   1.663  11.923 -0.1046  0.0096 -0.1044
20631W        W38835  12.831  11.767   0.829 -0.4661 -0.1682 -0.0881
20632W        W38836   1.644   9.805  14.720  0.0333 -0.0356  0.0996
20633W        W38837  11.306  13.624  14.228 -0.0893 -0.1047  0.2040
20634W        W38838   7.162   1.530  11.274 -0.1562 -0.2226  0.1229
20635W        W38839  10.497   7.186  16.104  0.0608  0.0716  0.0113
20636W        W38840  14.520  16.306   1.654 -0.0538 -0.0129  0.0928
20637W        W38841   6.976  11.575   0.091 -0.3155 -0.3077  0.0488
20638W        W38842   9.944  11.190   1.260  0.0360 -0.2927  0.0598
20639W        W38843   6.324   7.736   0.979  0.4576 -0.0361 -0.0951
20640W        W38844   3.119   5.503   2.697  0.1062  0.0007 -0.0566
20641W        W38845   5.255   0.895   0.251 -0.2748  0.1071 -0.1374
20642W        W38846  17.495  13.977   0.200  0.1233 -0.1177 -0.1718
20643W        W38847  15.902  10.348   5.083 -0.2114 -0.0182 -0.1534
20644W        W38848   9.683  10.843  12.829  0.0466  0.0196  0.1702
20645W        W38849  10.670   7.646   0.891  0.0768 -0.0640  0.1359
20646W        W38850  13.201   2.447   1.036 -0.0840  0.0748  0.2695
20647W        W38851  11.574   1.379   4.726 -0.0682 -0.2484 -0.0278
20648W        W38852   0.979  11.623   5.762  0.0116 -0.0448  0.1310
20649W        W38853   2.332   2.647  12.475 -0.1284  0.2823  0.0890
20650W        W38854   8.769  14.497  11.664 -0.0696  0.0296 -0.4060
20651W        W38855  17.420  16.336  11.895  0.0197 -0.1154 -0.1382
20652W        W38856   2.845  15.111  12.683 -0.0911  0.1619 -0.1279
20653W        W38857   4.687   4.001  13.353  0.2177  0.0938 -0.0724
20654W        W38858   4.619  13.347  14.455 -0.0071  0.0271  0.0318
20655W        W38859   8.905   2.524   0.222 -0.1891 -0.1466 -0.1359
20656W        W38860   6.169   2.257   4.055  0.0676  0.2576  0.0715
20657W        W38861   0.186  15.828   3.520  0.0000 -0.1141  0.0603
20658W        W38862  15.259  17.816  14.932 -0.1944  0.2951  0.1006
20659W        W38863   9.549   7.592  14.381  0.0711  0.0340  0.2057
20660W        W38864   2.884   7.345   3.687 -0.1726  0.1228 -0.1142
20661W        W38865  15.438  12.067  16.064 -0.4240  0.2252  0.0106
20662W        W38866   1.892  13.030   2.878 -0.1466 -0.2401  0.2612
20663W        W38867  14.860   2.444  13.973  0.0444 -0.1633  0.2308
20664W        W38868  13.184   3.454   1.063  0.4152 -0.2286  0.0684
20665W        W38869   8.076   7.628  14.457  0.3637 -0.1554  0.0328
20666W        W38870  14.371   5.438   3.986 -0.0786  0.0948 -0.0635
20667W        W38871  12.699   0.914  15.597 -0.1195  0.1474  0.2345
20668W        W38872  13.599   3.563  12.914 -0.0014  0.4604  0.3880
20669W        W38873   7.129  13.088  13.680  0.2103  0.0764  0.1348
20670W        W38874  17.388  17.429  15.413  0.1382 -0.1890  0.0342
20671W        W38875   3.699   4.916   3.703  0.1130 -0.1013 -0.0974
20672W        W38876  11.641  10.899   2.488  0.2520  0.2289  0.1406
20673W        W38877  16.487   7.296  15.146 -0.0190 -0.2261 -0.0374
20674W        W38878  12.553   4.209  14.287 -0.1271  0.0733  0.1025
20675W        W38879  13.526   8.777   2.572 -0.0048 -0.0017  0.1291
20676W        W38880  13.185   8.989   0.662  0.0398  0.3637  0.0550
20677W        W38881   8.799   1.362   3.299  0.1150 -0.2180 -0.2762
20678W        W38882  12.262  17.113  14.387  0.3878 -0.1293 -0.0464
20679W        W38883   2.534   9.370   1.566 -0.1054  0.1090  0.0971
20680W        W38884   6.999   3.025   0.532 -0.1469 -0.2065  0.1647
20681W        W38885  12.558   8.070   0.697 -0.0595  0.0821  0.0684
20682W        W38886   6.971  14.735   0.535 -0.0011  0.1034  0.1714
20683W        W38887   3.834   4.013  16.032  0.3078  0.1528 -0.0927
20684W        W38888   5.572   5.189   4.533  0.0070  0.0559 -0.1037
20685W        W38889   0.607   4.804  12.588  0.3498 -0.3360 -0.1881
20686W        W38890   2.015   8.074  12.586  0.1142 -0.1039  0.0100
20687W        W38891  16.232  10.526   4.211 -0.0667 -0.1919  0.0906
20688W        W38892  17.668  12.703  16.171 -0.0309 -0.2248 -0.1183
20689W        W38893   3.245   8.585  11.164  0.0526  0.2127  0.1010
20690W        W38894  11.910  13.156  14.420 -0.3852  0.0684  0.2820
20691W        W38895   0.286   9.276   0.324  0.1002 -0.2145  0.1420
20692W        W38896   3.769  11.601   0.639 -0.1228  0.1483  0.0105
20693W        W38897  16.342  17.410  12.489 -0.0548  0.0305  0.0194
20694W        W38898  14.365  10.807  14.334 -0.0405 -0.0278  0.1374
20695W        W38899   9.626   9.386   4.899 -0.1341 -0.0861 -0.3863
20696W        W38900   1.145   6.408   3.927  0.1244  0.3021 -0.0730
20697W        W38901   2.984   6.204  11.741 -0.1964 -0.0559  0.0733
20698W        W38902   0.519  16.897   0.449  0.2065  0.1288 -0.0595
20699W        W38903   5.642  12.800  14.950  0.0221 -0.0683  0.0833
20700W        W38904  14.306   0.645   2.373  0.0293 -0.0968  0.0374
20701W        W38905  13.385  15.112  15.981  0.0971 -0.1167  0.0141
20702W        W38906  11.416   9.172  14.648  0.1540 -0.0629 -0.0600
20703W        W38907  16.008   0.094   0.189 -0.2247 -0.1194  0.0513
20704W        W38908   6.073  11.092   1.268  0.1579 -0.1836  0.0841
20705W        W38909   9.961   0.338  10.255 -0.2696  0.3429 -0.0886
20706W        W38910   4.221   0.129  10.866 -0.0538  0.0780 -0.2618
20707W        W38911  13.240  16.859   4.711 -0.0248  0.0503  0.0768
20708W        W38912   7.215  11.278   4.132  0.0429  0.2190 -0.1174
20709W        W38913   3.252   8.647   3.418  0.0414 -0.0682 -0.1949
20710W        W38914   0.416  12.561  13.804  0.0503 -0.1012  0.3175
20711W        W38915  17.959   1.814  12.879  0.2589  0.1568 -0.0291
20712W        W38916  15.548   3.425  14.539 -0.0892 -0.0985  0.1464
20713W        W38917  10.602  11.263   3.562  0.0747  0.1192  0.2036
20714W        W38918   7.776   9.208  12.916 -0.0817  0.2546 -0.0319
20715W        W38919  14.835   4.063   4.872  0.2543 -0.2043  0.1482
20716W        W38920  12.004   4.133   0.767  0.0752 -0.2379  0.3055
20717W        W38921   8.792  15.035   1.837 -0.0659 -0.0699 -0.0027
20718W        W38922  16.067   0.754  12.847 -0.2964 -0.0858  0.0139
20719W        W38923  12.111   1.529   4.918  0.1098  0.0902 -0.1512
20720W        W38924  11.750  10.175   1.889  0.2412  0.0789 -0.1044
20721W        W38925  13.781  11.929   4.295 -0.1790 -0.1520 -0.0963
20722W        W38926   7.370   7.261  16.007 -0.3003 -0.1577  0.2965
20723W        W38927  17.336   6.777   4.344 -0.0495 -0.0643  0.3498
20724W        W38928  10.616  10.270  12.365  0.0336 -0.1180  0.0307
20725W        W38929  17.257  14.033  12.759 -0.1055  0.0185  0.0971
20726W        W38930   2.440   0.742  15.748  0.2296 -0.0139 -0.0130
20727W        W38931  14.961  16.365   0.782  0.1298 -0.1548  0.2413
20728W        W38932   7.638   0.425   5.101  0.0784 -0.3067  0.0470
20729W        W38933  15.136   3.888   4.431 -0.0306  0.2246  0.1211
20730W        W38934   9.089  17.435   1.043 -0.0523 -0.0344  0.1208
20731W        W38935  14.552   6.303   0.491  0.1683  0.0781  0.1479
20732W        W38936  17.478  14.659   0.691 -0.1383 -0.0328  0.1960
20733W        W38937  14.572   1.973   2.882  0.2364 -0.2284 -0.3461
20734W        W38938   9.099  17.932   2.266  0.0590 -0.2127  0.1268
20735W        W38939   2.668  17.949   4.525 -0.3606  0.0247 -0.3071
20736W        W38940  17.513  10.383  11.697 -0.1041 -0.0283 -0.2614
20737W        W38941   7.656   9.153   0.758 -0.0046  0.1550  0.0131
20738W        W38942  13.342   7.662   4.434 -0.1758  0.0626 -0.2098
20739W        W38943   3.707  14.644   4.368 -0.0166  0.1380  0.0198
20740W        W38944   5.703   1.232  15.106 -0.0732  0.0739 -0.3548
20741W        W38945  13.667  15.157  14.093  0.0556  0.2435 -0.0360
20742W        W38946  14.957   5.231  14.460 -0.1725 -0.2984 -0.3578
20743W        W38947  13.409   8.535   0.541 -0.1952  0.0814 -0.1581
20744W        W38948   5.964  10.492  15.315  0.2143 -0.0586  0.1569
20745W        W38949   3.460   3.556  15.960 -0.2575  0.0918 -0.1599
20746W        W38950   1.244   4.740  12.854  0.0471 -0.1110 -0.0673
20747W        W38951   4.997  16.671  15.238 -0.4804 -0.0376 -0.2036
20748W        W38952   7.470  14.475   1.054 -0.0983 -0.1179  0.0119
20749W        W38953  15.770  15.994  11.706  0.1765 -0.1238  0.2772
20750W        W38954   0.929  11.701  15.392 -0.0232  0.2085  0.0917
20751W        W38955   5.698   3.192   4.410  0.0017 -0.1172  0.3356
20752W        W38956  17.768   1.112   0.895 -0.1017  0.1520 -0.2705
20753W        W38957  15.720   4.725   2.455 -0.1865  0.3138  0.2401
20754W        W38958  15.363   3.868   0.916 -0.2408  0.1318 -0.3551
20755W        W38959   9.672  16.050   2.154  0.0814  0.1788  0.0375
20756W        W38960   1.119   1.671  13.741  0.0666 -0.1763  0.0071
20757W        W38961   8.187  12.908   1.231  0.1167 -0.3074  0.1488
20758W        W38962  16.672   3.998  12.639  0.1212 -0.5146  0.0842
20759W        W38963   9.737  17.438  11.607  0.1564  0.0791 -0.0103
20760W        W38964   5.207   4.707  12.204  0.1641 -0.1137 -0.1334
20761W        W38965  10.386   9.191  13.128 -0.1661  0.0859 -0.1167
20762W        W38966   4.494  15.895  12.260  0.0344  0.3800 -0.1470
20763W        W38967   5.225  13.107  12.277 -0.0910  0.0752 -0.0821
20764W        W38968   3.341  13.382  11.574  0.1268 -0.1439  0.2483
20765W        W38969   1.720   4.667   3.797  0.0957 -0.0807  0.1941
20766W        W38970  14.466   6.187   6.354 -0.1159  0.1440  0.0906
20767W        W38971   2.672  10.966  12.879  0.0111  0.0470 -0.1751
20768W        W38972   3.185   0.654  13.149  0.2452  0.0525 -0.0647
20769W        W38973  14.520  15.621   0.492  0.0037 -0.4025 -0.2564
20770W        W38974  12.803   8.688  16.057  0.0440  0.1646 -0.1697
20771W        W38975   5.137  11.202   0.423  0.0490  0.1340  0.2565
20772W        W38976   6.384  12.961  11.208 -0.1256 -0.0418 -0.0828
20773W        W38977   1.943  18.023   1.173  0.1787  0.0693 -0.0836
20774W        W38978  14.609  15.912  12.971  0.0202 -0.0441  0.0647
20775W        W38979   8.975  15.320  11.764  0.1151 -0.0545  0.1147
20776W        W38980  10.828   9.799   0.015  0.0291  0.1642  0.0422
20777W        W38981   1.656  13.795  12.616  0.0133  0.1850  0.3086
20778W        W38982   3.359   6.399   2.809  0.2180 -0.4110  0.0060
20779W        W38983   7.037   8.584   3.989  0.0047  0.0585 -0.2025
20780W        W38984  12.682   0.360  15.417 -0.2144  0.2390  0.2101
20781W        W38985  12.992   9.200  13.277  0.0823  0.2497  0.1968
20782W        W38986  15.852  14.268   0.343 -0.1763 -0.3017  0.2880
20783W        W38987   5.881   2.714   2.059 -0.0399  0.0228  0.0369
20784W        W38988   2.357   1.847  13.704 -0.2742  0.1362  0.1811
20785W        W38989   4.176   9.825  13.372 -0.0830  0.1534 -0.0906
20786W        W38990   9.491  16.155  13.776 -0.0080  0.1048 -0.3387
20787W        W38991  11.985  11.514  12.658 -0.1562  0.2946  0.2018
20788W        W38992   0.014  17.867   0.926 -0.0552  0.1657  0.0767
20789W        W38993   8.892   4.649  15.148 -0.2418 -0.0308  0.1466
20790W        W38994   9.224   1.116   3.569 -0.1401 -0.1021  0.0563
20791W        W38995  11.658   2.121  12.115 -0.0181 -0.0130 -0.1963
20792W        W38996   0.571   2.920   4.701  0.0286  0.3130  0.2932
20793W        W38997  12.111  12.172  12.933 -0.1039  0.2201 -0.0967
20794W        W38998  13.144   4.294   4.478 -0.1617 -0.1609  0.1555
20795W        W38999   7.713   7.078  14.808  0.2913  0.0336 -0.2140
20796W        W39000   5.155  14.972  11.448 -0.3304 -0.2158  0.0014
20797W        W39001   7.049   2.008  14.551  0.3792  0.0957 -0.1535
20798W        W39002  15.315   0.734   4.721 -0.0690 -0.2257  0.1831
20799W        W39003  17.592  16.339  16.052  0.1446  0.1783  0.0927
20800W        W39004   3.047   3.481   2.267 -0.1575  0.5067  0.0858
20801W        W39005   4.975   5.773   0.637  0.4641 -0.1371  0.0634
20802W        W39006   7.565   8.044   2.008 -0.1501  0.3642 -0.2438
20803W        W39007   4.758   0.135  13.264  0.2021 -0.3355  0.0042
20804W        W39008   7.273  13.832   2.459 -0.2996 -0.1179 -0.5436
20805W        W39009   4.013  16.834   3.852 -0.0973  0.1381  0.1073
20806W        W39010   2.230   0.329  15.921 -0.1260 -0.2262 -0.1936
20807W        W39011   0.556   1.903   3.132 -0.1017  0.4122 -0.1845
20808W        W39012  15.486   0.787   3.862 -0.2332 -0.1111 -0.0465
20809W        W39013   7.796  14.967  11.299 -0.1182  0.0455 -0.1138
20810W        W39014  10.565   4.443  11.333 -0.1578 -0.1646  0.0493
20811W        W39015   8.727  17.817  15.350  0.0373 -0.3124  0.1829
20812W        W39016  17.768  12.927   3.611 -0.0642 -0.2712 -0.0370
20813W        W39017   4.582   1.527  15.684 -0.0278 -0.1148 -0.1034
20814W        W39018   9.968  13.535   0.292 -0.1133  0.1289  0.1221
20815W        W39019   1.526   8.811   0.787  0.1023  0.0786 -0.3240
20816W        W39020   3.314  11.105  14.593 -0.0183  0.2663 -0.1026
20817W        W39021  10.457   0.811   1.845 -0.1299 -0.0583  0.0645
20818W        W39022   7.316  14.993  12.651  0.3284  0.0922 -0.1128
20819W        W39023  13.411  13.008   3.673  0.0788  0.0141 -0.0173
20820W        W39024   7.511   7.786   0.767 -0.0550  0.2642  0.0593
20821W        W39025   5.142   3.959   2.146 -0.0766 -0.1217  0.0326
20822W        W39026   1.622   4.157  14.635  0.0675 -0.0146 -0.0880
20823W        W39027  11.824   0.014   2.461 -0.1844 -0.0103 -0.0380
20824W        W39028   5.092  17.436  16.050  0.1939 -0.0504  0.1158
20825W        W39029  17.485  16.276   4.689  0.0704  0.1802 -0.0651
20826W        W39030   6.050   9.962  15.389  0.0358 -0.1852  0.2802
20827W        W39031   5.317  11.393   3.834 -0.1873 -0.0911  0.0624
20828W        W39032   8.216   7.417  15.538  0.2920 -0.0424  0.1107
20829W        W39033   0.553  12.981   4.581  0.0273  0.1046 -0.1046
20830W        W39034  15.732   6.459   1.159 -0.2314 -0.0453  0.0002
20831W        W39035   0.464   1.391  13.189 -0.3352 -0.3655  0.2819
20832W        W39036   1.865   8.887  15.189 -0.0431  0.1751  0.2645
20833W        W39037  15.159   7.438  13.385  0.0174 -0.0973  0.2064
20834W        W39038  11.186   4.218   3.951  0.1024 -0.0151 -0.0594
20835W        W39039   0.407   9.275   2.104 -0.2239 -0.1957 -0.2425
20836W        W39040   8.482   2.270  15.041  0.0379  0.1018 -0.1538
20837W        W39041   8.472   2.828   5.976  0.0068  0.1877 -0.0909
20838W        W39042  11.414  11.853  11.844 -0.0046  0.0727  0.0231
20839W        W39043  14.939   9.570  13.369 -0.0598  0.0729  0.0085
20840W        W39044   0.079  17.163   0.347  0.1244 -0.0535 -0.3015
20841W        W39045   4.793   8.427  15.727  0.1711  0.2465  0.2538
20842W        W39046   8.731   1.965   0.324  0.1001  0.0036 -0.0623
20843W        W39047  16.885  11.894  14.975 -0.1043  0.1687 -0.5423
20844W        W39048  10.438   8.731   4.063 -0.1930  0.0971  0.0342
20845W        W39049  15.395   9.316   1.446 -0.2179 -0.2366  0.2146
20846W        W39050   9.910   2.111   2.700  0.0571  0.0096 -0.0330
20847W        W39051   3.964   7.218  15.436 -0.0443  0.2357  0.1385
20848W        W39052   1.506   2.173  14.333 -0.2586 -0.1080  0.1136
20849W        W39053   7.043  10.916  15.085  0.1670  0.1748 -0.1859
20850W        W39054   2.096   8.747   3.252  0.1433  0.0758 -0.3735
20851W        W39055   6.478   6.975  13.645  0.0394 -0.0447 -0.0597
20852W        W39056  10.003  16.458   3.864 -0.1457 -0.2014 -0.2055
20853W        W39057  15.305   7.780  14.748  0.0866  0.3284  0.0519
20854W        W39058  12.230   6.225   0.887  0.2053  0.0573  0.2788
20855W        W39059  13.455  10.732  11.811  0.1694 -0.1047 -0.1007
20856W        W39060   5.428  14.642  13.105 -0.1022 -0.0780 -0.1679
20857W        W39061   2.389  13.988  12.336  0.0808  0.3319 -0.1923
20858W        W39062  14.140  16.871  12.911  0.2336  0.0224 -0.0901
20859W        W39063   1.005  14.724  13.659  0.0216  0.0353  0.1059
20860W        W39064   0.066   2.851  13.613 -0.2343 -0.0759  0.3644
20861W        W39065   5.393  11.529   0.089  0.1057  0.1950 -0.0928
20862W        W39066   5.347   9.666   4.265 -0.0457 -0.2121 -0.0412
20863W        W39067   4.138   1.923   5.393 -0.0542  0.0086 -0.1056
20864W        W39068  10.934   0.335  15.700 -0.2165 -0.1556 -0.0429
20865W        W39069  13.379  13.318   1.146 -0.1679  0.3466  0.0471
20866W        W39070   3.274  10.057   5.318 -0.2273  0.1780 -0.0472
20867W        W39071  11.727  10.366   3.374 -0.2361 -0.1001  0.0674
20868W        W39072   2.762   9.460  13.376 -0.0862 -0.1362 -0.3178
20869W        W39073  17.718   8.110  12.723  0.1068  0.0387 -0.0365
20870W        W39074   3.741   2.787   3.250  0.0053 -0.0340  0.0942
20871W        W39075  13.919   4.015  15.314 -0.1024  0.2209  0.0447
20872W        W39076  12.089   4.973   0.852 -0.0687  0.0039  0.1123
20873W        W39077   5.002  14.675   0.573 -0.2238 -0.0462 -0.0301
20874W        W39078  11.746   8.120  15.633 -0.2168  0.4074 -0.0487
20875W        W39079   5.990  10.833   2.666 -0.2258 -0.3371 -0.1941
20876W        W39080  16.731  13.349  14.221  0.0546 -0.1828  0.0097
20877W        W39081   9.075   1.976   2.722 -0.2934  0.0774 -0.0150
20878W        W39082  14.499   8.447  13.773  0.3208 -0.1877 -0.2280
20879W        W39083  10.737   6.068  13.883  0.2413  0.1083 -0.0304
20880W        W39084   0.445   0.554   1.910 -0.0335 -0.0883 -0.2518
20881W        W39085   0.228   3.761   4.597  0.0026  0.2558 -0.3184
20882W        W39086  17.452  10.075  15.001  0.0851  0.0922  0.1407
20883W        W39087   1.865  13.789  13.433  0.2512 -0.1792  0.0819
20884W        W39088   8.980  11.589  13.033  0.0517 -0.0404 -0.0877
20885W        W39089   8.347   6.635   4.872 -0.2156  0.1301  0.1231
20886W        W39090   3.502  16.359   1.582 -0.0234  0.0568  0.0536
20887W        W39091   7.897  13.511  11.804  0.2778 -0.0188 -0.3224
20888W        W39092  10.871   2.087   4.108 -0.1985 -0.0886 -0.2300
20889W        W39093   5.236  17.862  14.268  0.1333  0.2629  0.0546
20890W        W39094  13.833  16.278  12.442  0.1566  0.0323 -0.0479
20891W        W39095  15.982  17.502  15.393  0.0415 -0.0424 -0.1340
20892W        W39096  16.577  12.507   4.353  0.4989  0.0684  0.0595
20893W        W39097   0.697  17.982   0.662 -0.0565 -0.1339 -0.3241
20894W        W39098   2.234   3.992  11.016 -0.2500 -0.2473 -0.2278
20895W        W39099   1.173  15.152   5.097 -0.1628  0.2888 -0.1381
20896W        W39100   1.602   2.385  13.090 -0.1199 -0.0330  0.0115
20897W        W39101   0.674   0.066   3.131 -0.0749  0.0447 -0.0750
20898W        W39102   6.166   9.418   3.021 -0.0964 -0.0793 -0.0453
20899W        W39103   8.757   6.395  11.822 -0.0268  0.2045  0.1782
20900W        W39104   0.740   8.073   1.532 -0.1360  0.1477  0.1627
20901W        W39105   5.034   7.291   3.140  0.1580 -0.2706 -0.2134
20902W        W39106   8.099   8.155  13.575 -0.4103 -0.0192  0.1236
20903W        W39107   7.339  12.276   5.166 -0.1963  0.2356  0.0637
20904W        W39108   3.421  13.007  13.118  0.1631 -0.0610 -0.4110
20905W        W39109   7.042   4.453   1.913 -0.0656 -0.1394  0.0299
20906W        W39110   4.139  12.695   4.553 -0.4949  0.0241  0.0330
20907W        W39111   2.297   7.248  12.870 -0.0720  0.3326 -0.0071
20908W        W39112   6.075   7.962  11.595  0.1335 -0.0210 -0.2421
20909W        W39113   2.158   1.413  14.473  0.0426  0.2223 -0.2275
20910W        W39114   7.801  10.753   1.885  0.0764  0.0372  0.2142
20911W        W39115  10.168  13.955  13.440  0.2364 -0.0057  0.4577
20912W        W39116   7.108  13.093   3.962  0.1107 -0.1012 -0.0752
20913W        W39117   7.943   4.503   2.323  0.0673 -0.0116  0.1358
20914W        W39118   6.218   3.126   4.381  0.0895  0.4524  0.0945
20915W        W39119   9.964   0.872   1.234  0.0833 -0.0359  0.1459
20916W        W39120  14.248  16.668   4.146  0.0670  0.3267 -0.2283
20917W        W39121   5.996   0.965   0.664 -0.0281  0.2011 -0.0012
20918W        W39122   3.353  13.201   1.993 -0.1285  0.0287 -0.3064
20919W        W39123  14.008   3.131  13.072  0.0025  0.1129  0.0614
20920W        W39124  11.970   0.544  11.158 -0.0963  0.2834 -0.1267
20921W        W39125  14.609   8.600  12.730 -0.0042  0.4347 -0.1241
20922W        W39126   9.383   7.472  13.918 -0.1018  0.1063 -0.0065
20923W        W39127  12.799   2.461   1.490  0.0051 -0.1165 -0.0311
20924W        W39128  11.243   9.874  11.768  0.3602 -0.3486 -0.2618
20925W        W39129   2.843   6.779   0.021  0.1209 -0.0105 -0.2986
20926W        W39130   8.136   5.594  14.376 -0.2236 -0.0717  0.0710
20927W        W39131   9.855  10.364   2.585  0.0510 -0.2635  0.4637
20928W        W39132   6.725  16.001   4.917 -0.0161 -0.2559  0.1667
20929W        W39133   8.756   9.239  14.190 -0.0185  0.2252 -0.1031
20930W        W39134   5.964   2.624   4.384  0.3463  0.2004  0.2011
20931W        W39135  12.006   5.943   0.388  0.0544  0.3500  0.0185
20932W        W39136   0.535   4.981   0.321 -0.0762 -0.3462 -0.0461
20933W        W39137  13.839  17.171  12.197 -0.3597  0.2463 -0.0344
20934W        W39138   9.804  13.067   3.654 -0.1133  0.0430 -0.0771
20935W        W39139  14.334  17.968  12.371 -0.0036  0.2191 -0.1001
20936W        W39140  13.910   3.109   0.807 -0.0716  0.2949  0.2029
20937W        W39141  15.939   1.196  15.107  0.0645 -0.1035 -0.2833
20938W        W39142   7.378  12.363   0.467  0.0569 -0.0494  0.0860
20939W        W39143  17.084   3.516   0.903 -0.1588 -0.0899  0.2991
20940W        W39144   3.164  15.512   3.998  0.0223  0.0419 -0.0963
20941W        W39145   0.693   4.441   5.896  0.1028  0.2197  0.0871
20942W        W39146  15.297   1.506   0.089  0.1507 -0.2061  0.1950
20943W        W39147  16.585   7.220   3.929  0.5142 -0.2165  0.1244
20944W        W39148  12.177   8.287  15.392 -0.0271  0.3260 -0.1376
20945W        W39149   1.821   6.642   1.932 -0.2775 -0.2773 -0.0799
20946W        W39150  15.056  10.755  15.708 -0.0729  0.0111  0.0434
20947W        W39151   2.391   5.583  11.902  0.0467  0.1989  0.1697
20948W        W39152   9.285  13.542  13.000 -0.0809 -0.0865 -0.0602
20949W        W39153  12.389   2.021  11.373  0.1670 -0.0350 -0.1653
20950W        W39154   0.614   6.848   0.833  0.1688  0.0244 -0.1884
20951W        W39155  17.780   8.399  11.894  0.3429  0.2129 -0.2296
20952W        W39156  11.069   2.810   0.129  0.1583 -0.2869  0.2680
20953W        W39157   5.145  11.921   0.440 -0.0039 -0.0916  0.1644
20954W        W39158   5.794  17.148  16.119  0.0284 -0.0915  0.4884
20955W        W39159   5.821  11.476  14.668  0.1444 -0.0730 -0.2494
20956W        W39160   2.834   5.102   0.001 -0.2505 -0.0558  0.1720
20957W        W39161   7.442  15.030  10.665  0.1157  0.2338 -0.0790
20958W        W39162  14.375  14.553   2.990 -0.1878  0.2012 -0.2637
20959W        W39163  15.281  12.795   1.098 -0.1287 -0.1693 -0.2132
20960W        W39164  16.642   4.048   0.069  0.0735 -0.2667 -0.0723
20961W        W39165   2.685  17.325  14.132  0.0034  0.1229  0.1992
20962W        W39166   9.387  15.603   2.413 -0.0004  0.0499 -0.2146
20963W        W39167  17.231  17.465   1.416 -0.3726 -0.0706 -0.0326
20964W        W39168  16.734   8.465  14.442  0.0553  0.2422  0.1453
20965W        W39169  13.681  11.154   0.871  0.1138 -0.1898  0.0724
20966W        W39170  11.748   1.507   1.202 -0.1358 -0.0849 -0.0029
20967W        W39171   7.694  18.031  11.021  0.0272 -0.0492  0.4177
20968W        W39172  13.234  13.039   0.490  0.0689  0.1693  0.0562
20969W        W39173  13.233   3.380  14.692 -0.4368  0.0959  0.0730
20970W        W39174   1.966  12.803  11.432  0.0770 -0.2116 -0.1973
20971W        W39175  17.971   3.325  13.469 -0.1238 -0.3083 -0.0811
20972W        W39176   0.112  17.641  13.471  0.2648 -0.0086  0.0896
20973W        W39177   7.629  17.707  13.870 -0.0702  0.2026 -0.4091
20974W        W39178  10.710  15.302   2.442 -0.0140 -0.1781  0.0581
20975W        W39179   0.634  15.347   0.290 -0.1585  0.0846 -0.2478
20976W        W39180  16.737   8.637  13.523 -0.0713  0.2312  0.1665
20977W        W39181  15.150   8.056  11.840  0.3559 -0.1313  0.4028
20978W        W39182   6.469   2.341   1.124 -0.0630 -0.1800 -0.1455
20979W        W39183  15.669  11.632   1.150 -0.0380  0.0634 -0.0547
20980W        W39184  12.436   1.225   3.600  0.3344 -0.1927  0.1923
20981W        W39185   7.298   5.126  11.837 -0.2522  0.4104 -0.1560
20982W        W39186  15.466  11.668   4.145  0.1185  0.3498 -0.2352
20983W        W39187   1.116   2.302   3.807  0.1311 -0.1144 -0.0699
20984W        W39188  11.332   7.720   0.341 -0.1108  0.0159 -0.0615
20985W        W39189   9.885  17.331   2.229  0.0046 -0.0373 -0.0565
20986W        W39190  17.912  11.232   1.895  0.2172  0.3503 -0.0549
20987W        W39191   1.807  16.482   0.851 -0.0772 -0.0245  0.2551
20988W        W39192  14.492  10.026   0.286  0.0929  0.1706  0.0402
20989W        W39193   0.681  15.941   0.061  0.1995  0.0010 -0.1537
20990W        W39194  11.508   7.101   2.848  0.0675  0.2120  0.0789
20991W        W39195   1.744  15.964  13.799  0.1000  0.0122 -0.0194
20992W        W39196  15.719   9.783  14.806 -0.0996  0.2367 -0.0523
20993W        W39197  12.251  12.169  14.275  0.1985  0.2075  0.2674
20994W        W39198  15.154   8.992  15.174  0.2225 -0.0806  0.2003
20995W        W39199  10.572  12.467   4.437 -0.0673  0.0293 -0.4197
20996W        W39200   7.543   3.739  13.827  0.0022 -0.0541  0.0683
20997W        W39201  13.086  13.239  15.510 -0.1731  0.1405  0.5423
20998W        W39202   8.629   7.700   2.855 -0.1247  0.3266  0.0236
20999W        W39203  17.333   4.968   1.277 -0.0093  0.0458 -0.2719
21000W        W39204   5.392   9.360   3.766 -0.2026 -0.2166  0.0684
21001W        W39205   9.511   6.816   0.599 -0.2313 -0.1158  0.1826
21002W        W39206  12.445   9.114  14.904  0.0553  0.1569 -0.1903
21003W        W39207   4.508   8.949   0.409 -0.1504  0.0622 -0.0884
21004W        W39208  15.884  11.616  14.811  0.2104 -0.1492  0.1833
21005W        W39209   3.937   3.720  15.516 -0.2887 -0.2425  0.0250
21006W        W39210   1.802  14.211  14.661  0.2236  0.0826  0.2903
21007W        W39211   8.459  14.615  12.160  0.2386  0.0842  0.2052
21008W        W39212   5.108  16.061  14.008 -0.0982 -0.0717 -0.2410
21009W        W39213  13.781  11.230   3.620 -0.2944  0.0431  0.0390
21010W        W39214   2.009   5.525  16.091 -0.2825  0.1323  0.3109
21011W        W39215  10.288   0.844   0.701  0.0255  0.1108  0.0048
21012W        W39216   9.238  13.374   4.798  0.2773  0.0601  0.0449
21013W        W39217  16.104  14.276  14.950 -0.1086  0.0891  0.1392
21014W        W39218   4.626  14.927  15.159 -0.1916  0.2261 -0.3105
21015W        W39219   7.389   7.703   3.772 -0.0830  0.3634  0.1178
21016W        W39220   8.285   4.839   4.738 -0.0813 -0.1936 -0.1601
21017W        W39221  14.800  10.056   4.397  0.1277 -0.2018 -0.2385
21018W        W39222   5.448   1.422   1.316  0.3051  0.1610 -0.0142
21019W        W39223   7.956   8.042   4.211 -0.1045 -0.1561 -0.4208
21020W        W39224   3.380   8.406  14.498  0.0144  0.1113 -0.0095
21021W        W39225   1.458   8.488   4.234 -0.1878  0.1313  0.2253
21022W        W39226   8.981   6.410   0.782 -0.0527  0.0498  0.2696
21023W        W39227  16.479   2.008   0.964 -0.0447 -0.2789 -0.1248
21024W        W39228   6.889  12.526   3.005 -0.0619  0.2236  0.0666
21025W        W39229   9.656   6.386   4.256  0.4305 -0.0145  0.1263
21026W        W39230  14.609  13.516   0.656 -0.0632  0.2030  0.2114
21027W        W39231  10.337  16.889   0.708  0.0011 -0.0660  0.0545
21028W        W39232   2.330  17.011   2.189 -0.0157 -0.1921  0.1510
21029W        W39233   9.350   5.365  15.681 -0.0745  0.0494  0.3339
21030W        W39234  11.755  17.117  15.272 -0.1208  0.0086 -0.0208
21031W        W39235  15.026  11.299  12.547 -0.1057  0.1608  0.0323
21032W        W39236   5.053  10.381   0.339 -0.1261 -0.2357 -0.2393
21033W        W39237  16.017   5.805   3.860 -0.1462  0.1422  0.0022
21034W        W39238   9.329  10.576  11.744 -0.0428  0.0551 -0.0494
21035W        W39239  10.382   3.879   3.243  0.2361 -0.0205 -0.1878
21036W        W39240   1.439   6.497   1.308  0.1560 -0.2065 -0.2287
21037W        W39241   0.566  11.605  14.579 -0.0769  0.0062 -0.1003
21038W        W39242   2.482  17.845  12.822 -0.2030 -0.2140  0.0306
21039W        W39243  11.320  14.544   0.472  0.1069 -0.4062 -0.0923
21040W        W39244  14.018  15.898  15.813 -0.2006 -0.0212 -0.0540
21041W        W39245   1.771   0.553  11.245 -0.1996  0.1795  0.1042
21042W        W39246  12.738   8.194   5.030 -0.0977 -0.4296  0.0328
21043W        W39247  12.511   8.225  16.082 -0.0666  0.2084  0.2983
21044W        W39248  10.970   8.440  14.155 -0.2656 -0.0861  0.0405
21045W        W39249   5.345  14.637  11.185 -0.1809  0.2358 -0.0157
21046W        W39250  17.578  14.936  12.759 -0.2020  0.0097  0.1682
21047W        W39251  11.373   7.111   1.087  0.0741 -0.2659 -0.3513
21048W        W39252   0.786   9.405  12.631  0.0688 -0.0699  0.1772
21049W        W39253   5.199  15.360  15.386 -0.1609  0.2798  0.0963
21050W        W39254  14.962   2.953  16.085 -0.1544  0.0071 -0.1637
21051W        W39255  14.506  12.455  16.033 -0.1483 -0.1802 -0.3080
21052W        W39256   3.714   1.066  12.025 -0.1064 -0.1452  0.1522
21053W        W39257   8.158   9.001  10.724 -0.0894  0.0952 -0.1920
21054W        W39258   6.303  10.667  12.244 -0.0287 -0.2403  0.1439
21055W        W39259   5.594   8.353   3.608  0.0431  0.1185  0.4366
21056W        W39260  11.400  12.033   0.028  0.0088 -0.1902  0.0197
21057W        W39261   1.289   8.364   3.748 -0.0394  0.1193  0.1166
21058W        W39262  17.337  13.813   4.149  0.0874  0.1762 -0.2138
21059W        W39263  10.219   1.305   0.979 -0.1562  0.1424  0.1249
21060W        W39264   5.449  12.079   2.951  0.1863  0.1983 -0.1600
21061W        W39265   6.708  12.125  12.555 -0.0488  0.0569  0.2394
21062W        W39266  17.926   7.430   0.952 -0.1224  0.0190 -0.0039
21063W        W39267  13.373  11.550  13.330  0.1037 -0.2976 -0.0553
21064W        W39268   2.548  13.875  11.813 -0.4145  0.0786  0.0528
21065W        W39269  12.078   4.286   5.098 -0.1517 -0.0696 -0.0303
21066W        W39270  11.195   0.515  13.519 -0.0937 -0.1027 -0.0300
21067W        W39271  15.287   8.741   0.687  0.3148  0.2313 -0.1793
21068W        W39272  17.551   3.043   4.382  0.1567  0.0756 -0.2967
21069W        W39273  10.748   3.533  14.748  0.2749 -0.1603 -0.0083
21070W        W39274   7.693   8.907   1.363 -0.1207 -0.0636  0.2385
21071W        W39275  17.632   1.971  12.119  0.2378  0.2582 -0.0593
21072W        W39276   3.382   4.309   1.177  0.2717 -0.1085  0.3570
21073W        W39277   4.859   6.666   0.152  0.3036 -0.2054 -0.0878
21074W        W39278   5.493  17.650  15.967 -0.0754  0.0956 -0.3538
21075W        W39279  13.584   4.747  13.413 -0.0791 -0.1711  0.0897
21076W        W39280  10.086   5.249  13.626 -0.2054 -0.0431  0.0932
21077W        W39281   6.835   6.455  11.209 -0.1726 -0.0243 -0.2567
21078W        W39282   7.627   4.761  15.134 -0.3654  0.1572 -0.2299
21079W        W39283   2.500  17.406  15.765  0.2491 -0.0098  0.0219
21080W        W39284   1.243  11.400  11.245 -0.1101  0.4560  0.0392
21081W        W39285  15.228   5.928  11.823 -0.1553  0.2659 -0.1861
21082W        W39286  17.219  17.315   2.238 -0.0800  0.0669  0.2442
21083W        W39287   4.001   3.852  13.211 -0.0554 -0.1320 -0.2638
21084W        W39288  12.955   4.312  12.158 -0.0620  0.0102 -0.0870
21085W        W39289  16.842   8.504   0.873  0.3578  0.1911  0.0464
21086W        W39290  17.971   4.928   4.677  0.0639  0.0951 -0.0558
21087W        W39291  13.414  11.149  12.610 -0.1683  0.2873  0.1784
21088W        W39292  13.343  13.167   4.245 -0.1830 -0.0093 -0.1000
21089W        W39293  17.949  11.545  12.114 -0.1718  0.0997 -0.0596
21090W        W39294  16.293  12.443  14.296  0.0250 -0.1522  0.0097
21091W        W39295   2.190  17.455  12.531 -0.1187 -0.2851 -0.0203
21092W        W39296   4.045   6.371  12.241  0.3309 -0.1928  0.1512
21093W        W39297   3.225  13.321  13.490  0.0029 -0.0012  0.0102
21094W        W39298  17.524  10.350  13.962  0.3552  0.2731 -0.3378
21095W        W39299   0.878   7.688  11.768  0.1314  0.0843  0.0215
21096W        W39300  12.388  13.443  15.297 -0.0452  0.1193 -0.2545
21097W        W39301   3.669   3.381   0.243 -0.2888 -0.1866  0.0181
21098W        W39302   1.652   5.897  12.868 -0.0704 -0.1253  0.1072
21099W        W39303  12.511   2.981   2.704 -0.0873  0.1558  0.3507
21100W        W39304   9.308   0.836   0.685  0.3108 -0.0074 -0.0472
21101W        W39305   8.297  15.205   1.957  0.3696  0.1047  0.0837
21102W        W39306  13.726   7.619   3.236 -0.1217 -0.1052 -0.0079
21103W        W39307   6.360  15.336  12.804 -0.0244 -0.0981  0.1471
21104W        W39308   3.354   3.526  13.219 -0.0842  0.0527 -0.0463
21105W        W39309  16.431   3.675   3.090  0.1108 -0.5616  0.1359
21106W        W39310   7.959   5.748  11.885 -0.2550 -0.1602 -0.0738
21107W        W39311   9.003   0.375  10.984 -0.0502 -0.1833  0.0921
21108W        W39312  10.803   5.658   3.937  0.0255  0.1540  0.0843
21109W        W39313   1.142  12.397   2.899 -0.1433 -0.1421  0.2075
21110W        W39314  11.608   7.508   0.726  0.0548 -0.1416 -0.2371
21111W        W39315  12.284   8.548  15.803  0.1355  0.1915 -0.0951
21112W        W39316  11.479  10.605  14.252  0.0948  0.0182 -0.4624
21113W        W39317   5.498  13.896  14.919 -0.1107 -0.1988 -0.0021
21114W        W39318  14.585  10.095  14.029  0.0987 -0.0171  0.0762
21115W        W39319   2.919   8.553   0.402  0.1774  0.0273  0.1646
21116W        W39320   0.020   8.448  15.006 -0.3125  0.0395 -0.0420
21117W        W39321   2.509   0.901   4.255  0.1773 -0.1466  0.0515
21118W        W39322  12.570  15.155   0.062 -0.2939 -0.0454 -0.3694
21119W        W39323  12.177  15.006  13.246  0.0129 -0.3587 -0.2474
21120W        W39324   1.516  13.076  15.853 -0.2497  0.0159  0.0810
21121W        W39325  13.741   8.052   2.554  0.1111 -0.1593  0.0946
21122W        W39326  15.714   2.099   3.427  0.0400 -0.1852  0.1431
21123W        W39327  10.993  16.454   2.859 -0.3325  0.1000  0.0089
21124W        W39328  13.485  10.320  15.764 -0.1151  0.0930 -0.0948
21125W        W39329  17.448   5.023  13.299  0.1577  0.1153  0.0335
21126W        W39330   3.116  12.382   0.987 -0.0329  0.4462  0.0691
21127W        W39331  15.645   0.795   4.345 -0.0574  0.1084  0.1479
21128W        W39332  16.647   3.327  13.746  0.0814  0.0366  0.2737
21129W        W39333   5.136   5.014  14.630 -0.3007  0.0543 -0.1138
21130W        W39334  15.110   7.389   1.862 -0.1119 -0.0861 -0.0893
21131W        W39335   8.091   7.697   2.020 -0.3935  0.0193 -0.0235
21132W        W39336  12.644   6.354   4.359  0.0653 -0.0680 -0.1046
21133W        W39337  16.768  12.461  13.365  0.0583  0.1152  0.2088
21134W        W39338   0.592   4.698  14.449  0.0439 -0.0130  0.0721
21135W        W39339   0.524   1.888  12.444  0.0574 -0.1697  0.0432
21136W        W39340   3.391  17.574   1.583  0.2350  0.0556 -0.0613
21137W        W39341   1.766  13.931  12.147  0.2431 -0.1093 -0.0929
21138W        W39342  13.589  14.208  11.675  0.0881 -0.0987 -0.3237
21139W        W39343   8.324   9.977  10.828 -0.0682  0.3772 -0.2237
21140W        W39344   8.740   6.090   3.333  0.1618  0.1415 -0.0215
21141W        W39345   6.416   6.524   2.733  0.0644 -0.0122  0.1981
21142W        W39346  15.440   8.525  15.109 -0.1778 -0.1443 -0.3382
21143W        W39347   6.073  15.354  15.286 -0.2748 -0.2454 -0.5728
21144W        W39348  15.081   0.263  11.309  0.1423  0.1641 -0.3032
21145W        W39349  17.356  11.168  13.085 -0.0253  0.2382  0.1040
21146W        W39350  17.912   6.461   0.570  0.0438 -0.0498 -0.2481
21147W        W39351   8.619   4.157  11.938 -0.0694 -0.0792 -0.1924
21148W        W39352  13.228  17.056  12.904 -0.0223  0.0062  0.0842
21149W        W39353  10.071  12.031  14.441 -0.0946  0.2100  0.1576
21150W        W39354   6.371   5.017  15.205 -0.1689 -0.0009 -0.3144
21151W        W39355  15.889   2.594  12.790  0.2594  0.1354  0.4429
21152W        W39356  13.386   2.180  11.499 -0.0258  0.1082  0.0823
21153W        W39357   9.647   7.035  14.118  0.0085 -0.1184  0.4315
21154W        W39358  17.740   5.684   4.364  0.1749  0.0663  0.1004
21155W        W39359   7.220   2.417  12.336 -0.0108 -0.1501 -0.1227
21156W        W39360   4.651   3.209  13.179  0.0739 -0.0513  0.2147
21157W        W39361   4.540   7.147  11.621  0.3667  0.0603 -0.1637
21158W        W39362  14.714  14.456   4.445  0.2076 -0.0229  0.0004
21159W        W39363  15.332  17.979  14.079  0.1373 -0.3517 -0.2816
21160W        W39364  13.553  16.154  16.149  0.0073 -0.0614 -0.1049
21161W        W39365   2.923   1.674  13.679  0.2740  0.3826  0.0787
21162W        W39366  13.930   1.569  11.939 -0.1240 -0.3097  0.0356
21163W        W39367   6.700   2.642  12.639 -0.1457  0.3378  0.1431
21164W        W39368  13.930   3.067   2.153  0.1465  0.0304  0.0185
21165W        W39369   5.145  15.121   4.122  0.4622 -0.1062 -0.2051
21166W        W39370   6.617  11.436  13.663 -0.0889 -0.0394 -0.2863
21167W        W39371   2.717   4.170   2.319  0.0248 -0.1929 -0.3360
21168W        W39372   1.512   5.460   2.766  0.1953 -0.0429 -0.0586
21169W        W39373   7.618   6.127   4.173 -0.0233  0.0276 -0.0147
21170W        W39374  12.341   1.990  14.395 -0.0982  0.0197  0.1083
21171W        W39375   3.108  13.125   0.548  0.0888  0.1270 -0.1656
21172W        W39376   4.641   3.245   0.348  0.1611  0.1480  0.1799
21173W        W39377   8.341  16.401  15.582 -0.0815  0.1949  0.2125
21174W        W39378   0.406  12.743  11.760 -0.0501  0.1520 -0.1475
21175W        W39379  14.377  11.816  14.136 -0.1057  0.1191 -0.0705
21176W        W39380   8.835   0.826  13.024  0.2089  0.1167 -0.1368
21177W        W39381   3.817   6.128  15.440  0.0098 -0.1427 -0.2084
21178W        W39382  11.718   7.837   4.035  0.2566  0.0901  0.0447
21179W        W39383  14.261   7.002  12.017 -0.0240 -0.0877  0.2195
21180W        W39384   2.987   9.810   0.037 -0.1080 -0.3164  0.1249
21181W        W39385  13.407   7.048  13.356 -0.2677  0.1598 -0.1197
21182W        W39386   3.132  10.107   1.619 -0.3441  0.3085 -0.2420
21183W        W39387   2.896   1.089   3.110  0.0041  0.0668 -0.2128
21184W        W39388  14.926  11.520   4.970  0.0281  0.0538  0.1917
21185W        W39389   9.954   6.380  14.963  0.0092  0.0664 -0.0542
21186W        W39390  12.331   2.533   3.867  0.0606 -0.0477 -0.1954
21187W        W39391  16.758   7.710  16.004 -0.2744 -0.0169 -0.0005
21188W        W39392  16.719  11.975  13.619  0.1315 -0.1664  0.1398
21189W        W39393   3.926   7.202  13.705  0.0760 -0.1492  0.4692
21190W        W39394  17.227  15.892   2.080 -0.1687 -0.2292  0.3810
21191W        W39395   1.328   5.472  14.474 -0.0992  0.0509 -0.2066
21192W        W39396   3.685  15.620  15.875  0.1203  0.3449  0.2272
21193W        W39397  17.226   3.254  12.324  0.1005  0.0007 -0.1515
21194W        W39398   1.919   5.231  11.737 -0.0464  0.1995  0.0711
21195W        W39399   2.625   9.248   4.365  0.0525  0.1903 -0.0623
21196W        W39400   6.624  10.369  14.437 -0.2104 -0.2023 -0.2046
21197W        W39401  11.452  16.112   0.005 -0.2682 -0.0257 -0.1270
21198W        W39402   5.020   7.375  13.672 -0.3162  0.2858 -0.1462
21199W        W39403  10.527   0.184  15.095 -0.2648  0.0194  0.0088
21200W        W39404  15.105   4.182   1.200  0.0471 -0.2779 -0.0016
21201W        W39405  14.320   2.689  14.712 -0.0265  0.1798  0.3037
21202W        W39406  12.890   1.622  16.024 -0.1744 -0.0216 -0.0523
21203W        W39407   2.645   9.425  15.737 -0.0613 -0.0408 -0.2379
21204W        W39408  13.774   9.885   5.033 -0.0775  0.1006 -0.1930
21205W        W39409   2.229   1.103  12.563 -0.2196  0.1390  0.1903
21206W        W39410  11.830  11.056  13.466  0.3343 -0.0269  0.0479
21207W        W39411  10.800   3.836  14.004 -0.2241  0.1514  0.3356
21208W        W39412   0.154  11.872   3.855 -0.4067  0.2201 -0.0974
21209W        W39413  11.182   0.038   3.279 -0.4015  0.0038  0.2699
21210W        W39414  11.678  12.677  14.482  0.1176  0.0108  0.3489
21211W        W39415  15.019  14.583   1.396 -0.1675 -0.1595 -0.0355
21212W        W39416   5.118   4.671  13.744 -0.0647 -0.1266 -0.0757
21213W        W39417   5.149   6.437   3.137  0.1876  0.0731  0.2457
21214W        W39418   6.014  14.061   2.536 -0.0056 -0.1653  0.1326
21215W        W39419   1.584  17.261  14.229  0.0727 -0.0493  0.1375
21216W        W39420   4.643   3.158  11.626 -0.1922  0.0548  0.0691
21217W        W39421  12.204  12.583  15.764  0.2549 -0.2425 -0.3231
21218W        W39422   7.513   8.008  15.119  0.1287 -0.1654  0.1267
21219W        W39423   1.961  10.642   1.446 -0.0501  0.0200  0.1326
21220W        W39424   1.818   2.755   3.425  0.0657  0.0285  0.1266
21221W        W39425  12.535   0.212   1.847 -0.2088  0.0063 -0.3455
21222W        W39426  16.458   5.385   5.449 -0.0358  0.3504  0.1557
21223W        W39427   2.986  16.533   0.554  0.1716 -0.1223  0.0824
21224W        W39428  16.329   1.144  15.405 -0.1594  0.2019 -0.0736
21225W        W39429   9.835   9.683  11.498  0.0449  0.3617 -0.0360
21226W        W39430  13.832  16.512  12.978  0.1663  0.0160 -0.1231
21227W        W39431  15.330   3.164   2.639 -0.0885  0.1762 -0.2536
21228W        W39432   6.998  11.464  12.710  0.0278  0.0443  0.1662
21229W        W39433   5.823  17.139  14.234  0.0052 -0.3275 -0.1902
21230W        W39434   8.172  17.695  14.033 -0.0020  0.1963 -0.0696
21231W        W39435   0.427   7.914  11.649  0.0085  0.0221 -0.1856
21232W        W39436  14.618   6.646  14.315  0.0741 -0.1556 -0.1092
21233W        W39437   5.721   9.971  13.125 -0.1526 -0.3304 -0.1065
21234W        W39438   7.250   2.272   0.023  0.0610 -0.0262  0.0360
21235W        W39439   1.715  17.451  12.663  0.2384 -0.2343  0.1268
21236W        W39440  15.832  17.413   0.917  0.0916 -0.0136 -0.0424
21237W        W39441  10.881   2.854  14.285 -0.3298  0.0371 -0.2256
21238W        W39442  10.980  10.369   1.192  0.0186 -0.1323 -0.0887
21239W        W39443   8.869  17.368  14.591  0.1518  0.0221 -0.0369
21240W        W39444  11.357   1.771  12.363  0.0761 -0.1385  0.0639
21241W        W39445  10.811   6.509   3.913  0.0432 -0.2503 -0.1301
21242W        W39446  11.244   5.615  13.485 -0.2763  0.1980  0.0647
21243W        W39447   6.654   0.726   0.528  0.1783  0.0913 -0.0095
21244W        W39448   4.146  13.730   1.188  0.0339 -0.0419 -0.2849
21245W        W39449  16.779  15.346  12.610  0.1195 -0.3026  0.3481
21246W        W39450   9.798  15.354  13.285  0.0385 -0.0147  0.0527
21247W        W39451  13.971  13.373  15.075  0.1623  0.1861 -0.1601
21248W        W39452   8.034   3.525  12.121  0.1304 -0.2793 -0.2164
21249W        W39453   5.327  10.803  15.818  0.1236 -0.0388 -0.2546
21250W        W39454   9.586  13.701  11.604 -0.1382  0.1548 -0.2133
21251W        W39455   6.878   5.749   0.374  0.2809 -0.0174 -0.2221
21252W        W39456  12.132  14.137  15.701 -0.0065 -0.0634 -0.0520
21253W        W39457   2.179  11.305  13.025 -0.0107 -0.0450 -0.0140
21254W        W39458   4.330  12.651   2.172 -0.2071 -0.0537 -0.0898
21255W        W39459  12.019  17.286   4.280  0.1134 -0.2168 -0.0519
21256W        W39460   2.670   7.233  13.765  0.1636  0.2535 -0.2646
21257W        W39461   2.735  17.762   4.029 -0.2942  0.0848  0.5082
21258W        W39462  11.910  12.247  16.170 -0.0448  0.0951  0.0305
21259W        W39463   7.126   4.576  10.850 -0.1517  0.4931 -0.1940
21260W        W39464  16.539   6.268   4.154  0.1181  0.0427 -0.2803
21261W        W39465  16.746   6.819  13.281 -0.1134  0.0071 -0.0320
21262W        W39466   4.478  15.079  14.357  0.1227  0.0734 -0.0600
21263W        W39467  13.235   8.617   3.289 -0.0452 -0.1128 -0.1461
21264W        W39468   8.447   7.021  13.734  0.1148  0.0488 -0.1014
21265W        W39469  14.986  17.245   3.214  0.1185  0.2203  0.1356
21266W        W39470  15.439   0.999  15.061 -0.1002  0.2267 -0.2054
21267W        W39471   1.807   5.199   2.435  0.1851  0.0079  0.0144
21268W        W39472  13.259   9.539  14.642  0.1533  0.1541 -0.1369
21269W        W39473   9.069   0.914   4.584 -0.3421  0.0076  0.1374
21270W        W39474  11.997   4.806  15.621  0.0081  0.0628 -0.3042
21271W        W39475  16.010   0.290  11.609 -0.1358 -0.3171  0.2238
21272W        W39476   8.773  13.540  13.775 -0.1788 -0.1536  0.2110
21273W        W39477   1.136   0.302   1.408 -0.0225  0.2104 -0.0706
21274W        W39478  10.118  14.408  11.237 -0.0110  0.1379  0.0098
21275W        W39479   6.637  12.771  13.787  0.0931 -0.3122  0.1075
21276W        W39480  16.269   6.004   2.980 -0.3548 -0.0274  0.0359
21277W        W39481  13.095   4.765  12.476  0.2098  0.0459  0.0063
21278W        W39482   4.771  10.264   2.664  0.0691 -0.2763  0.0743
21279W        W39483  12.857  11.003   2.042  0.1240 -0.0736 -0.2747
21280W        W39484  10.426  16.233   1.353  0.1000 -0.2602  0.0586
21281W        W39485   8.443  15.835  13.489 -0.2467 -0.1279 -0.4098
21282W        W39486   3.975   6.068   4.628 -0.1691  0.0849 -0.0938
21283W        W39487  14.183   8.086  14.519  0.2078  0.0943 -0.0417
21284W        W39488  13.358   0.101   1.558  0.0630  0.3086 -0.0061
21285W        W39489   1.633  17.702   3.584 -0.0626  0.1131 -0.0325
21286W        W39490   1.835  17.584   1.534  0.3200  0.1111 -0.0433
21287W        W39491   5.010  12.777   5.178  0.1841 -0.1688  0.1557
21288W        W39492   5.795  15.175  14.935  0.2541 -0.1797  0.0123
21289W        W39493   7.371   5.237   1.997 -0.0159  0.0392  0.0700
21290W        W39494  17.531  16.070  14.769 -0.1792  0.0795  0.2204
21291W        W39495  11.740   5.222  15.453 -0.0027  0.3090  0.0588
21292W        W39496  16.977   7.937  11.751  0.1242  0.0781 -0.1241
21293W        W39497   7.828  10.746   3.320  0.1431 -0.1143  0.0459
21294W        W39498   2.393  17.913  15.794 -0.0463 -0.1132 -0.6207
21295W        W39499   6.601  12.715  12.550  0.0531 -0.0285 -0.1024
21296W        W39500  12.152   0.272  15.545 -0.0453  0.1772  0.3880
21297W        W39501  13.359  12.536   0.374  0.1749 -0.0044  0.2210
21298W        W39502   0.642   1.138   3.409 -0.0716 -0.0541  0.2598
21299W        W39503   2.694  12.974  12.722  0.1320 -0.1527 -0.1089
21300W        W39504  16.095   9.100   2.478  0.2500  0.1007  0.0375
21301W        W39505   4.325   4.673   1.032  0.0774 -0.0752  0.0757
21302W        W39506   8.038  11.641   4.294  0.0940 -0.0254  0.0135
21303W        W39507   2.262  15.012   4.308  0.1662 -0.3272 -0.1336
21304W        W39508  15.496  15.466   2.455 -0.1607  0.0302 -0.1945
21305W        W39509   1.891  10.092   2.318  0.3424 -0.1197 -0.0940
21306W        W39510  13.052  12.342  13.668 -0.2465 -0.1958 -0.1380
21307W        W39511   2.035  13.761   0.137  0.1907  0.4720  0.2744
21308W        W39512   8.762  14.691   0.736 -0.1113 -0.0932 -0.4920
21309W        W39513  17.556   9.658   5.221 -0.3415  0.0842  0.0239
21310W        W39514  14.995   3.989  12.704 -0.0922  0.1537  0.2324
21311W        W39515  17.291   4.911  11.167  0.1167 -0.0775  0.0494
21312W        W39516   7.616   9.548  15.116  0.0765 -0.1960  0.3082
21313W        W39517   9.735   6.327   4.735  0.2414 -0.2904 -0.0041
21314W        W39518   2.738   6.381  12.542  0.2829 -0.1492  0.3111
21315W        W39519  13.564   5.278   1.313  0.3028 -0.0608  0.3280
21316W        W39520  16.656  17.715  16.150 -0.4313  0.1643  0.1218
21317W        W39521   9.513   3.135   4.875 -0.0746 -0.0756  0.0334
21318W        W39522  13.470   5.658  13.320  0.0856  0.1853 -0.0883
21319W        W39523  12.973   8.061   2.008 -0.0877 -0.3305  0.0082
21320W        W39524  13.054   1.652   4.163  0.1813 -0.1142  0.0937
21321W        W39525   4.004  13.923  12.601  0.2340 -0.1495  0.2278
21322W        W39526  12.404  14.822   5.244 -0.1864  0.2398  0.2506
21323W        W39527  16.038   6.455   2.829 -0.0707  0.1812 -0.0607
21324W        W39528  13.732   1.591  13.657  0.1555  0.0684  0.0377
21325W        W39529  17.503  14.170   3.860  0.0107 -0.3005  0.1845
21326W        W39530  16.715   9.606  15.780  0.1041  0.2494 -0.1268
21327W        W39531   7.612  13.564  13.131 -0.1700  0.1633  0.1780
21328W        W39532   3.867  16.832   2.217 -0.0083 -0.0694  0.2306
21329W        W39533   1.530   9.294  13.096 -0.1671 -0.2185  0.0636
21330W        W39534  17.556   8.680  12.665 -0.1473  0.0256  0.5036
21331W        W39535  11.301   6.794  13.652 -0.1318 -0.1837 -0.2392
21332W        W39536   7.335  14.668  15.164  0.1125  0.0364 -0.0816
21333W        W39537   4.272  14.995   3.330  0.2087  0.0202  0.2001
21334W        W39538  13.889  15.090   5.402  0.2281 -0.0552 -0.1462
21335W        W39539  12.305  17.601  13.091  0.2373 -0.2454 -0.0715
21336W        W39540  12.714  11.187  12.040  0.0395  0.0871  0.1230
21337W        W39541  16.967   6.417   5.130 -0.2035  0.1406  0.0833
21338W        W39542   1.403   6.736   4.150 -0.0080 -0.0480 -0.0103
21339W        W39543   1.625   3.075   0.572 -0.0993 -0.4690  0.4605
21340W        W39544   2.787   2.058  12.027  0.0662  0.1002  0.1569
21341W        W39545  16.367  16.605  11.840 -0.1085  0.3474 -0.0759
21342W        W39546  10.882  11.306  15.438  0.2421 -0.0698  0.2007
21343W        W39547  16.988   4.561   1.591  0.0873  0.0246  0.1369
21344W        W39548   7.813  10.931  15.817  0.1319 -0.3065  0.1914
21345W        W39549   8.724   4.437   3.944  0.1894  0.0524 -0.3691
21346W        W39550   2.375   4.431   1.387  0.0104 -0.2476  0.1080
21347W        W39551  12.374   9.671   0.052 -0.0644 -0.0795  0.0050
21348W        W39552   5.749  11.692  13.281 -0.1814 -0.0607 -0.0212
21349W        W39553  14.764  16.088  12.542 -0.0646  0.0398 -0.0628
21350W        W39554  11.932   8.366  12.536 -0.0100 -0.1204 -0.0825
21351W        W39555  15.389   9.415   0.918 -0.0151  0.1459  0.1299
21352W        W39556   8.380  14.117  11.987 -0.0838 -0.2505  0.1599
21353W        W39557   1.407  14.485   0.405 -0.0528  0.0345 -0.1246
21354W        W39558  17.647  16.138  15.283 -0.0458 -0.0685 -0.2864
21355W        W39559   0.371  13.179  14.600 -0.1143 -0.1647 -0.2091
21356W        W39560  10.807   6.378   3.341 -0.1021 -0.1737 -0.0003
21357W        W39561   9.142   9.336   0.078  0.0372  0.0781  0.0268
21358W        W39562   0.242  15.448  14.608  0.0485  0.0937  0.0480
21359W        W39563  12.731   3.269   2.346  0.2654 -0.0706 -0.1078
21360W        W39564  14.603   2.384   1.776  0.1421  0.5110  0.4315
21361W        W39565  15.930   9.405  16.021 -0.0312  0.0084 -0.2669
21362W        W39566   3.623  10.658   0.960 -0.2697 -0.1912 -0.0067
21363W        W39567   8.187   3.619   2.311 -0.0507 -0.0847 -0.1405
21364W        W39568   0.514  14.580  15.880  0.0544  0.1117 -0.1003
21365W        W39569  16.724   2.903   0.765 -0.0940 -0.0070 -0.0366
21366W        W39570  13.454   4.298   0.872 -0.0719 -0.1667  0.2309
21367W        W39571  13.873   6.356  12.287  0.1657  0.1323 -0.0044
21368W        W39572  10.132  10.026  12.457  0.0270 -0.3904  0.2419
21369W        W39573  14.558  10.239  13.520  0.3581  0.1566 -0.1360
21370W        W39574   7.793   2.671   4.410  0.1082 -0.0815 -0.1755
21371W        W39575   8.545  14.467   1.856 -0.0961 -0.2357 -0.0709
21372W        W39576   2.090  16.807  11.438 -0.1350 -0.3197  0.0374
21373W        W39577  17.018   6.665  14.489  0.0415  0.0104 -0.0307
21374W        W39578   8.075   2.325  13.420 -0.1405 -0.0500  0.1530
21375W        W39579   8.568  17.988   2.308  0.2131 -0.0962 -0.3520
21376W        W39580   8.702   8.297  13.304 -0.2571 -0.0636  0.2582
21377W        W39581   6.113   7.179  11.223 -0.1318 -0.0450  0.0117
21378W        W39582  14.292   3.212   5.888  0.1343 -0.0813  0.1431
21379W        W39583  17.075   6.379   1.030 -0.1196  0.1161 -0.0374
21380W        W39584   0.636   2.938   2.162  0.3798  0.1654 -0.0545
21381W        W39585   1.891   3.196   3.208 -0.2304  0.0471 -0.0684
21382W        W39586   3.706   4.577  13.539  0.2222 -0.0929  0.0861
21383W        W39587   2.123  11.514  14.101  0.1698 -0.3441  0.0495
21384W        W39588   9.323  13.933  12.425 -0.0249  0.0702  0.0692
21385W        W39589  15.564   1.561   4.515  0.0808  0.1179 -0.2222
21386W        W39590   5.018  13.605   2.597 -0.5697  0.0815  0.2721
21387W        W39591   4.642  17.141  15.953 -0.2822  0.0169  0.0570
21388W        W39592   4.827   5.579   0.219 -0.0472 -0.0186 -0.1289
21389W        W39593   6.756  10.054  14.782 -0.1037 -0.1544 -0.1883
21390W        W39594   7.592   8.431  11.775  0.1665 -0.1406 -0.0513
21391W        W39595   9.949   9.703  13.623 -0.1031  0.2742 -0.1789
21392W        W39596   9.753  14.869   3.622  0.0001  0.4258 -0.0558
21393W        W39597   1.443  13.390   1.043  0.2727  0.0430 -0.3399
21394W        W39598  14.861  17.562  13.492  0.0568  0.1220  0.3026
21395W        W39599   4.349   3.833  15.869  0.1573 -0.1321 -0.1872
21396W        W39600  16.274   8.638   4.936 -0.2374  0.0204 -0.0838
21397W        W39601  10.872  12.335  12.510  0.0604  0.1610 -0.1932
21398W        W39602   6.670   3.169   2.651 -0.1816 -0.1380 -0.1627
21399W        W39603   4.769   6.918   3.810  0.2529 -0.3866 -0.1508
21400W        W39604   6.007   4.307  12.849 -0.2224  0.1220 -0.2413
21401W        W39605  13.478   7.297  11.633 -0.1269  0.1009  0.0822
21402W        W39606  10.582   8.106   0.521 -0.1772 -0.3615 -0.0221
21403W        W39607  17.967  16.076   3.884 -0.0319 -0.1496 -0.0059
21404W        W39608  13.171  17.788  14.261 -0.4018  0.0774  0.0290
21405W        W39609  12.778   3.705   2.610  0.1957 -0.2689 -0.1594
21406W        W39610  15.140  15.695  15.591  0.0006  0.1560  0.0509
21407W        W39611  11.635  15.710   2.813 -0.0887 -0.0792 -0.0582
21408W        W39612  17.088  17.026   0.312  0.2552 -0.1187 -0.2414
21409W        W39613  13.173  10.343   3.645 -0.0475 -0.0764  0.1112
21410W        W39614  14.594   9.936   2.435 -0.1495  0.2099  0.2500
21411W        W39615   1.691  12.619   2.346 -0.1375 -0.2238  0.3105
21412W        W39616   5.059   5.786  13.403  0.3757  0.1740  0.1387
21413W        W39617   3.068   2.169   1.712  0.1858  0.0373  0.3640
21414W        W39618  10.080  17.764   3.794  0.2051 -0.2872 -0.0912
21415W        W39619  15.150   8.981   2.528  0.1377  0.3842  0.2609
21416W        W39620   8.153   6.597   4.369  0.3300  0.2578 -0.0651
21417W        W39621  14.816  17.654   2.196  0.2662 -0.0659 -0.1364
21418W        W39622   6.453  14.300  13.201 -0.0171  0.1135  0.3073
21419W        W39623   3.630   4.993  13.848 -0.1194 -0.2791  0.2820
21420W        W39624   4.150   1.879   2.078  0.1107  0.2241 -0.0612
21421W        W39625  13.444   3.276   0.691  0.1368  0.3228 -0.1311
21422W        W39626   6.770   1.624   4.183 -0.0988 -0.0589 -0.1069
21423W        W39627  13.445  16.148   1.764  0.2153  0.0772 -0.1644
21424W        W39628   2.128   4.290   0.101 -0.1674  0.2042  0.0050
21425W        W39629   9.220   6.624  14.186  0.1223 -0.1264  0.0236
21426W        W39630  16.193  13.290  13.387  0.4254 -0.2594 -0.0535
21427W        W39631  13.515  13.296  14.744 -0.2324 -0.0543 -0.1192
21428W        W39632  12.422  10.684  12.925 -0.1727 -0.0117  0.3495
21429W        W39633   5.587  17.078   4.807 -0.0694  0.3936  0.0449
21430W        W39634  10.413   3.114   3.769 -0.0126 -0.3550  0.1839
21431W        W39635   7.649  12.464  15.026 -0.0991  0.1068  0.1578
21432W        W39636   5.198   4.886   1.584  0.4485 -0.1100  0.0122
21433W        W39637   0.365   8.733  15.929  0.0562  0.4526  0.2025
21434W        W39638   5.230  10.349  15.988  0.3098  0.1775 -0.3391
21435W        W39639   6.874  13.272  15.759 -0.0203  0.0468  0.0162
21436W        W39640   5.097  14.121   1.618 -0.3676  0.0037 -0.0818
21437W        W39641  11.721   1.549   2.126 -0.0131 -0.2553  0.0304
21438W        W39642   5.482   4.306  13.788 -0.2317 -0.1507 -0.3500
21439W        W39643   7.000  11.708   1.373  0.0342 -0.0771  0.0600
21440W        W39644  14.397   0.115   2.495  0.3016 -0.0575  0.1694
21441W        W39645   9.722   9.941  13.231 -0.4136  0.0081 -0.1596
21442W        W39646   4.159  13.388  13.681 -0.2479 -0.0190  0.3302
21443W        W39647   9.708  13.734   1.291  0.1926  0.0152  0.3377
21444W        W39648   8.576  14.152   2.799  0.1060  0.0346  0.2315
21445W        W39649   5.250  11.877  12.466  0.2341  0.1735 -0.0023
21446W        W39650  16.508   6.762   1.675 -0.0952 -0.0367 -0.1443
21447W        W39651   1.075  15.098   1.480  0.2230  0.2376 -0.0487
21448W        W39652   1.954   4.084   4.872 -0.1082 -0.1682  0.0936
21449W        W39653   8.965  13.628   0.244  0.0059  0.4056 -0.1799
21450W        W39654  17.072   9.333   2.394 -0.1919 -0.2929  0.3245
21451W        W39655  15.600   9.879  11.671 -0.0772 -0.1484 -0.0893
21452W        W39656  15.586   8.978   1.013  0.1441 -0.0543  0.0137
21453W        W39657   2.420  14.099  15.849 -0.0023  0.1712  0.1195
21454W        W39658   4.995   8.183   0.343 -0.0003 -0.0367 -0.0761
21455W        W39659  12.887  11.486   4.444  0.1182 -0.0756  0.2955
21456W        W39660   9.659   2.577  12.815  0.0370  0.1269  0.1170
21457W        W39661   5.496   5.921   0.782 -0.0666  0.0265  0.2403
21458W        W39662   1.187   9.334   3.946 -0.0362 -0.0872 -0.0800
21459W        W39663  12.810   7.005   3.372  0.3976 -0.1249  0.0384
21460W        W39664   4.328  10.975  14.320  0.1225  0.0369 -0.2097
21461W        W39665   5.328   2.097  14.743  0.1170 -0.3639 -0.0638
21462W        W39666   9.304   8.783  14.250  0.0682  0.1775 -0.0807
21463W        W39667  12.990  15.128   4.518  0.3575  0.0034  0.0065
21464W        W39668  12.298   5.548  15.681  0.0233 -0.1014  0.1131
21465W        W39669   7.688  11.430   5.075  0.1428  0.0993 -0.0464
21466W        W39670  13.621   6.269  10.849 -0.0318 -0.3636 -0.2741
21467W        W39671   4.689   4.653   3.950 -0.1652  0.0752  0.2396
21468W        W39672  17.090  14.957   5.051  0.0871 -0.2739  0.2158
21469W        W39673  13.685   7.157   2.415 -0.1402  0.2651  0.0769
21470W        W39674   3.262   1.283   1.303 -0.1449 -0.2320  0.0530
21471W        W39675   1.770   5.625   3.202 -0.1012 -0.3288  0.0040
21472W        W39676   5.426  10.915  14.831  0.2176 -0.2549  0.0356
21473W        W39677   8.275  17.363  14.479 -0.0211 -0.1049  0.0976
21474W        W39678  14.323   7.837   2.491  0.0026 -0.1805 -0.1323
21475W        W39679  13.694   6.487  15.891 -0.5223  0.0764 -0.1530
21476W        W39680   0.792   9.044   4.651  0.1848 -0.1745  0.0455
21477W        W39681  14.316  11.888   2.730 -0.1664  0.1231  0.0817
21478W        W39682   4.579  14.429   2.597  0.2571 -0.1142  0.2576
21479W        W39683   6.795   4.273  12.242 -0.1020 -0.0850  0.0351
21480W        W39684  16.424  16.904  14.708 -0.0589  0.1030 -0.3331
21481W        W39685   0.187  15.370  12.962 -0.3366  0.1416  0.0024
21482W        W39686  11.173  10.195   3.343  0.0076  0.0211  0.1684
21483W        W39687   9.379   3.007   0.674  0.2621  0.1061  0.1804
21484W        W39688   0.907  15.013  15.492 -0.1220  0.3519  0.0780
21485W        W39689   4.805   1.973  15.751  0.0582  0.1175  0.0260
21486W        W39690  11.099  10.494   3.725 -0.2497  0.0402 -0.2255
21487W        W39691   1.980   5.081  13.211 -0.3978  0.0221 -0.1620
21488W        W39692  11.010  17.729  12.862  0.1021  0.1376 -0.0012
21489W        W39693   9.519  12.780   1.595 -0.0223  0.1878 -0.2530
21490W        W39694   0.272  14.553  11.488  0.1961  0.1331  0.1624
21491W        W39695   9.442   3.909  15.373  0.0347  0.2808 -0.2452
21492W        W39696  17.901  17.107  15.976  0.0421  0.0989 -0.1468
21493W        W39697   6.270  16.325  15.691  0.0834  0.1291 -0.1280
21494W        W39698   3.884   6.072  15.961 -0.1596 -0.0291  0.1277
21495W        W39699   1.249  14.465   3.914  0.1197 -0.0835  0.0993
21496W        W39700   8.495  14.360  13.925 -0.0194 -0.2097  0.1329
21497W        W39701  11.250  13.599   2.070  0.0122  0.3361 -0.1592
21498W        W39702   6.393  15.457  15.705 -0.1963  0.0690  0.2725
21499W        W39703  16.827  11.024  13.259  0.4032 -0.2160 -0.1176
21500W        W39704   2.279  13.753   2.674  0.1118 -0.0674 -0.1560
21501W        W39705  14.826   3.379   4.022 -0.2159 -0.1085  0.1700
21502W        W39706  10.236   7.727  14.613 -0.0494 -0.1602 -0.2601
21503W        W39707  14.718  10.416   0.134  0.2449  0.0102  0.1236
21504W        W39708   7.526   6.568  11.628  0.0171  0.0292 -0.0709
21505W        W39709   2.050  11.659  15.083 -0.0106  0.0502 -0.1040
21506W        W39710  14.448   9.509  12.696  0.2127  0.0010 -0.1144
21507W        W39711   8.907   3.352   2.080  0.0339  0.0013  0.0544
21508W        W39712   8.533  17.824  14.376  0.1960 -0.4054 -0.0333
21509W        W39713  11.528   2.695  13.548  0.0357 -0.2170  0.1963
21510W        W39714   3.111  13.674  12.956  0.2519  0.2870  0.3802
21511W        W39715  15.673   6.794   2.749 -0.0886  0.0170  0.1344
21512W        W39716   2.910  15.206   3.434 -0.0088 -0.0909  0.0515
21513W        W39717   4.287   9.982   4.287  0.0230 -0.2227 -0.3703
21514W        W39718   8.593  16.700   1.111  0.0955  0.1526  0.3631
21515W        W39719  11.736   0.344  11.676  0.2146  0.0835  0.0272
21516W        W39720   2.648   4.725   0.490 -0.0365  0.0395 -0.3266
21517W        W39721  12.775  15.033  14.752  0.1744  0.1062  0.3021
21518W        W39722   0.357   3.222   3.983 -0.3387 -0.1067  0.2278
21519W        W39723  10.432  12.974  12.878 -0.0515 -0.3285 -0.4188
21520W        W39724   1.033  13.485  14.024 -0.0106  0.2178 -0.1890
21521W        W39725  13.090   8.536  12.072 -0.0741 -0.0707 -0.3110
21522W        W39726   3.348  11.613   0.851  0.0342 -0.1809  0.0669
21523W        W39727  13.392   8.099  11.315  0.0072  0.1156  0.0285
21524W        W39728   1.259  11.432  12.517 -0.5190 -0.1221  0.2039
21525W        W39729   6.201   6.073  12.021 -0.1970 -0.1897  0.5515
21526W        W39730   4.716   4.580   0.060 -0.1910  0.2627 -0.0236
21527W        W39731  13.158   3.073   2.018 -0.2935 -0.1488  0.3276
21528W        W39732   8.247  13.184  12.577  0.4523 -0.1095 -0.2007
21529W        W39733   0.910  17.347  15.356 -0.0126  0.1023  0.1879
21530W        W39734   0.705   0.561  13.391  0.2311 -0.0030  0.1636
21531W        W39735  17.076  12.700  10.971  0.1753 -0.2942  0.2939
21532W        W39736   8.322   4.886   3.045 -0.3794 -0.2508  0.2652
21533W        W39737   5.337   2.992   2.323  0.0025 -0.0872  0.0347
21534W        W39738   2.421   7.655   2.450  0.0276  0.1638 -0.1452
21535W        W39739   5.590   0.043  12.858  0.1843 -0.3806  0.0191
21536W        W39740   2.002   2.424   3.090 -0.1404 -0.0533  0.0381
21537W        W39741   4.422   9.813  15.267 -0.3410 -0.1606 -0.0906
21538W        W39742  14.785   5.156   4.185 -0.1031  0.0836 -0.1933
21539W        W39743  17.262   5.361  10.899 -0.2329 -0.0651  0.0010
21540W        W39744   0.207   8.021  12.639 -0.1614 -0.0453 -0.0499
21541W        W39745   2.089  13.676  15.793  0.1675  0.0136  0.2823
21542W        W39746   8.952   4.083   2.202 -0.1134  0.0291  0.0471
21543W        W39747   4.488   5.973   1.826 -0.1201  0.0481 -0.0510
21544W        W39748  13.559   3.802  14.342 -0.2153 -0.1269 -0.0761
21545W        W39749   6.276   0.972   1.467 -0.0098  0.1718 -0.0410
21546W        W39750   4.576   8.089   4.581  0.1201 -0.2248  0.2836
21547W        W39751  17.531   4.257   5.044 -0.4153 -0.0980  0.3089
21548W        W39752   7.270  10.427   2.436 -0.2445  0.0932 -0.1118
21549W        W39753   5.824  11.565   3.703  0.0670 -0.1254  0.1443
21550W        W39754   2.031   9.372  15.489  0.2209  0.1566 -0.2844
21551W        W39755  11.928  11.389  14.913 -0.3576 -0.1436  0.3283
21552W        W39756   1.482   3.760  13.636  0.0899  0.0825 -0.0005
21553W        W39757   7.187  15.654   3.731  0.0402 -0.2254  0.0089
21554W        W39758  11.207   9.996  13.142  0.0013 -0.0417 -0.1432
21555W        W39759  15.540  17.676  12.911 -0.1066 -0.1900 -0.0057
21556W        W39760  16.832  16.728  13.885  0.1506  0.0084  0.1683
21557W        W39761   8.893   1.337   1.453 -0.2060  0.2769 -0.2050
21558W        W39762   3.007  11.262  13.639  0.2757  0.0415  0.0918
21559W        W39763  11.575   1.837  11.663 -0.2096  0.0470 -0.0288
21560W        W39764   1.313  18.015   3.980  0.0917 -0.8461  0.1480
21561W        W39765   2.158   4.630   0.498 -0.2873 -0.1098 -0.1547
21562W        W39766  14.723   9.710  14.981  0.1213  0.2766 -0.0383
21563W        W39767   4.002   0.610  15.986 -0.2663 -0.4558  0.6334
21564W        W39768  13.067   1.431   2.407 -0.2301 -0.5960  0.2444
21565W        W39769   5.833   9.701  12.018 -0.0908 -0.4081 -0.0794
21566W        W39770   9.511   4.842  14.447 -0.1986 -0.0994 -0.4215
21567W        W39771   0.875  11.690   1.768 -0.1606  0.0411  0.1870
21568W        W39772   8.719  11.036  11.703 -0.1346 -0.0824  0.2787
21569W        W39773   6.825   6.567   3.724  0.2767 -0.1653  0.2249
21570W        W39774  10.600  12.817   0.576  0.1658 -0.2390 -0.2233
21571W        W39775  14.819  11.642  14.471 -0.1806 -0.0510 -0.0145
21572W        W39776   6.770  12.297   5.230 -0.0783  0.1270 -0.0081
21573W        W39777  15.403   3.298   0.211 -0.1196 -0.0305  0.5310
21574W        W39778  11.905   5.108   3.314  0.2834  0.0190  0.2068
21575W        W39779   1.628   6.734  12.992 -0.4027  0.1262  0.2318
21576W        W39780  16.201   4.674   2.093 -0.0454 -0.2647 -0.0776
21577W        W39781   4.784  10.867   1.740 -0.0940 -0.3031 -0.0127
21578W        W39782   0.817   8.174  11.356 -0.1275 -0.1244 -0.1331
21579W        W39783   2.762   3.815   0.374  0.2264  0.0018 -0.2379
21580W        W39784  14.194  12.291   4.314  0.1088  0.1298  0.2608
21581W        W39785   4.374  16.223  11.923  0.3291 -0.0859 -0.0970
21582W        W39786  11.192  16.259  14.075  0.2754  0.2151 -0.3007
21583W        W39787  13.370   5.497   4.737  0.2732 -0.0953  0.2755
21584W        W39788   9.303   1.642   1.611  0.0075  0.1956  0.1076
21585W        W39789   0.137   8.742   0.389 -0.1032 -0.0080 -0.1423
21586W        W39790  14.964   4.574   0.454 -0.1338  0.1165 -0.3678
21587W        W39791  11.680   7.596   2.117 -0.0932 -0.3647 -0.0618
21588W        W39792   4.861  11.262   3.969  0.1588  0.2819 -0.1654
21589W        W39793   2.589  13.046  10.854  0.0645 -0.0510 -0.1609
21590W        W39794  15.087   4.025  10.838 -0.1737  0.0922 -0.1788
21591W        W39795  17.156   0.597   2.074  0.2402 -0.2851 -0.0210
21592W        W39796   6.303  15.932  16.002 -0.0409 -0.2263 -0.0276
21593W        W39797  16.261  12.672  13.851  0.0802  0.3356 -0.0331
21594W        W39798   5.107   9.184   4.620  0.0117 -0.0532 -0.1052
21595W        W39799   0.934   9.360   0.340 -0.1006  0.1773 -0.1768
21596W        W39800   3.821  14.321   0.069 -0.0953  0.1075 -0.0246
21597W        W39801   2.443  14.383   1.700 -0.0314 -0.1124  0.0826
21598W        W39802   7.778  14.401   4.981 -0.2359 -0.0823  0.0875
21599W        W39803   3.750   8.176  13.651 -0.0207  0.0080 -0.0020
21600W        W39804  15.422   9.789  13.173 -0.1159  0.0485 -0.3673
21601W        W39805   3.523  17.608   1.021 -0.2446  0.1072  0.4273
21602W        W39806   9.355   7.850   4.263 -0.0650 -0.1104  0.1370
21603W        W39807  11.674   6.517   1.741  0.3319 -0.1749 -0.0250
21604W        W39808   7.093  16.116  12.834 -0.0730  0.0322  0.1167
21605W        W39809   8.317  14.543   5.147 -0.2426 -0.3670 -0.2810
21606W        W39810  12.743  17.753  15.418  0.1941 -0.3050  0.0011
21607W        W39811  13.955   7.173  12.528 -0.2193 -0.1071  0.0313
21608W        W39812  12.940   5.160   4.037 -0.2292  0.1862 -0.0490
21609W        W39813  16.430  15.733   2.493 -0.0671  0.2134  0.0770
21610W        W39814   1.980   9.301  12.348 -0.2179  0.2274 -0.0938
21611W        W39815  14.476   7.319  13.330 -0.2453  0.5016 -0.2236
21612W        W39816  11.287   3.534  14.703  0.3213  0.0087  0.0079
21613W        W39817  10.765   1.033   4.649 -0.1322  0.1174 -0.2541
21614W        W39818   0.698  16.510  12.542 -0.2807 -0.2592  0.1838
21615W        W39819   0.451   6.975   2.016  0.0470  0.0761 -0.2090
21616W        W39820   2.730   6.461   3.223  0.2683 -0.1187 -0.1639
21617W        W39821   7.227   1.298  12.703  0.0633 -0.2690 -0.0837
21618W        W39822  16.536   1.425   2.016  0.0747 -0.2396  0.0825
21619W        W39823  16.935   6.641  11.889 -0.1768 -0.0346  0.1551
21620W        W39824   4.772  13.827   3.787  0.2093 -0.0708 -0.0540
21621W        W39825  11.247  17.708  10.223  0.0405  0.0178 -0.0019
21622W        W39826   1.085  15.325  13.767  0.1250  0.0682 -0.0925
21623W        W39827  16.488   0.915   2.233 -0.1064  0.3358 -0.0165
21624W        W39828   5.912  12.985   0.580 -0.3522  0.0690  0.1206
21625W        W39829   6.867   4.244  16.053  0.1582  0.1366 -0.0543
21626W        W39830  12.321   3.501   1.697 -0.1663  0.0207  0.0262
21627W        W39831  15.473  10.135   5.894  0.1309 -0.1118  0.2944
21628W        W39832  11.212   3.399   3.118 -0.1914 -0.0458 -0.1464
21629W        W39833   8.467  17.633   1.398 -0.0821 -0.1310  0.1775
21630W        W39834  11.657   6.910  11.602 -0.3641  0.1446  0.0161
21631W        W39835  14.385  13.227   3.022  0.0453  0.0062 -0.0832
21632W        W39836   3.318  15.247   4.393 -0.1340  0.1913  0.1456
21633W        W39837   2.639  17.633   0.046  0.2102  0.1394  0.0860
21634W        W39838  10.380   2.220   1.940  0.1309  0.1693  0.0378
21635W        W39839   9.783   9.082  11.507  0.0964 -0.1162  0.0351
21636W        W39840   9.127   5.005  11.080 -0.0713  0.2655 -0.1396
21637W        W39841  17.541   3.199   2.818 -0.1485  0.3207 -0.1407
21638W        W39842  17.877   1.737  13.897  0.4838 -0.0455 -0.3305
21639W        W39843  14.230   3.539   0.298 -0.0271  0.0332 -0.2558
21640W        W39844   2.766   8.560   0.945 -0.3793  0.0468  0.0105
21641W        W39845   3.197  11.112   1.062  0.1501  0.3030  0.0203
21642W        W39846   8.064   2.474  13.903  0.2304 -0.0990 -0.2787
21643W        W39847  14.615   5.207  15.739 -0.1966 -0.2574 -0.1214
21644W        W39848   7.221  16.062  14.687 -0.2756  0.2314 -0.1760
21645W        W39849  11.939   0.644  13.079 -0.3421 -0.0478  0.1723
21646W        W39850   0.552   8.758   2.035  0.1552 -0.0639  0.0477
21647W        W39851  16.185  10.467   1.417 -0.2775  0.2913  0.0139
21648W        W39852   5.705  17.647  13.154  0.2053 -0.0792 -0.2823
21649W        W39853  17.147   3.511  13.448 -0.1553 -0.2497  0.0190
21650W        W39854  11.361  11.398   5.309 -0.0390 -0.1778  0.0218
21651W        W39855  17.008  11.527   1.496  0.3642  0.2672 -0.0897
21652W        W39856  11.186  11.644  15.192  0.0678  0.2152 -0.3793
21653W        W39857  17.214   7.581   0.608 -0.1468 -0.0544 -0.1073
21654W        W39858   6.392   0.581  15.273  0.1228 -0.0321 -0.0750
21655W        W39859   4.214  17.124   3.528  0.2850  0.1060  0.0595
21656W        W39860  13.843  17.767   0.507  0.0543  0.1405 -0.0125
21657W        W39861   2.721  12.277  15.193  0.0922  0.0754 -0.0854
21658W        W39862  14.682   4.157   4.369 -0.1649  0.1608  0.0745
21659W        W39863   6.678  17.995   1.458  0.0393 -0.0894  0.2777
21660W        W39864   1.261   3.042   1.660 -0.0988 -0.2236  0.1678
21661W        W39865   3.435   3.457   1.308  0.0657  0.4098 -0.1648
21662W        W39866  15.175   0.574   4.264  0.1489  0.0075  0.0042
21663W        W39867   9.484  12.368  15.186 -0.1158 -0.0338  0.0372
21664W        W39868  12.828   8.274  14.521 -0.0048  0.1714 -0.1225
21665W        W39869   0.670  13.157  11.708  0.0943  0.2379  0.1391
21666W        W39870  10.785  17.179   0.099 -0.1766 -0.0957 -0.0501
21667W        W39871   7.464  10.048   3.311  0.0802  0.0292  0.3865
21668W        W39872  10.027   8.740  12.983  0.2472 -0.0235  0.0515
21669W        W39873   6.643  11.576   0.540 -0.6242  0.0488 -0.3081
21670W        W39874  11.384   2.873   3.819  0.0139 -0.1351  0.1175
21671W        W39875  11.924   6.941  15.967  0.4040 -0.0273 -0.0751
21672W        W39876   5.713  16.808   3.710 -0.1463 -0.1434  0.1929
21673W        W39877   3.818  14.950   3.556 -0.2105  0.0589  0.0614
21674W        W39878  13.479   9.738   2.146  0.0735  0.1689 -0.0861
21675W        W39879   7.147   5.913  13.237  0.2261 -0.3212 -0.4897
21676W        W39880   9.858   0.499   3.705  0.2576 -0.1313  0.1753
21677W        W39881  13.987  13.463   1.235 -0.2148  0.0378 -0.0464
21678W        W39882  10.381  12.191   1.397 -0.2804  0.1062 -0.0340
21679W        W39883   4.014  17.056   0.542  0.1238  0.4892 -0.2980
21680W        W39884   8.691   9.963  11.647 -0.2966  0.1347 -0.0137
21681W        W39885   6.964  15.185  12.978  0.0595 -0.2906 -0.1423
21682W        W39886  17.134   1.958  14.031  0.1292 -0.0693 -0.0019
21683W        W39887  10.722   5.048  12.855  0.1437 -0.2964  0.1402
21684W        W39888   4.261   4.245   3.130 -0.1848 -0.3501  0.1072
21685W        W39889   3.010   2.734  15.065  0.0545  0.3557  0.1371
21686W        W39890  12.192   6.450  13.969 -0.0179  0.2149  0.0112
21687W        W39891  17.509   5.001  10.664 -0.0486  0.3083  0.1321
21688W        W39892  12.520  12.012   3.734  0.1522 -0.0751 -0.1544
21689W        W39893   3.111   8.966  15.098 -0.1747 -0.2014  0.0380
21690W        W39894   7.395   1.664   3.396 -0.0817 -0.1503  0.3249
21691W        W39895   4.480   4.228   1.257 -0.1749 -0.0623 -0.1633
21692W        W39896  15.121  16.299   2.236 -0.0159  0.1005  0.3228
21693W        W39897  11.099   9.873   2.971 -0.0359 -0.0290 -0.3510
21694W        W39898   4.343  17.633  13.249  0.1238  0.1637 -0.1904
21695W        W39899  11.921   7.443  12.082 -0.1186  0.2145 -0.1917
21696W        W39900  11.017   5.508  12.007  0.1049  0.3218 -0.2471
21697W        W39901  16.714   9.214   0.482  0.0179  0.0095 -0.2310
21698W        W39902  12.143  15.006   2.555 -0.0466 -0.1431 -0.0606
21699W        W39903  13.134   8.466   1.825  0.0305 -0.2347 -0.2703
21700W        W39904   5.886   3.023   3.941 -0.0448 -0.0405 -0.0833
21701W        W39905  17.221   0.212  12.733  0.2290 -0.3613 -0.1734
21702W        W39906  14.490   2.111   3.936  0.0889 -0.0283  0.1161
21703W        W39907   3.155  16.091   2.503 -0.0724 -0.1977  0.1989
21704W        W39908  16.784  14.189  12.671 -0.5494  0.1999  0.0812
21705W        W39909   6.904   8.999  12.655 -0.1303 -0.0598 -0.0123
21706W        W39910  12.120  15.617  10.031  0.0219 -0.2712  0.1287
21707W        W39911  16.448   4.314  10.328  0.4307 -0.2319 -0.0325
21708W        W39912  10.480   3.177  14.538  0.1336 -0.2978  0.1126
21709W        W39913  10.240   8.736   1.770  0.1957 -0.1830  0.1712
21710W        W39914  11.533  10.237  12.043  0.1243 -0.5096  0.2872
21711W        W39915  12.303  11.791  14.578  0.0655  0.1474  0.2135
21712W        W39916  16.117   1.821  13.907 -0.1107 -0.0354  0.0379
21713W        W39917   0.985  12.794   3.223  0.0265 -0.0666  0.2270
21714W        W39918   4.216  14.628   5.203 -0.1361  0.0600 -0.1728
21715W        W39919   6.224  12.025  14.744  0.0495  0.0573 -0.4136
21716W        W39920  15.507   5.129  11.220 -0.3545 -0.1707 -0.3393
21717W        W39921   1.863   1.210  15.952 -0.1506 -0.2667 -0.0603
21718W        W39922   8.200  12.220  14.141 -0.0045 -0.0125  0.2830
21719W        W39923  11.866  10.413  11.106 -0.1204  0.1713  0.0567
21720W        W39924   8.896   6.095  14.915 -0.0391 -0.0356 -0.1328
21721W        W39925   3.261   2.700  13.812  0.0458  0.0062 -0.3219
21722W        W39926  14.155  14.852  14.115  0.1909  0.2388  0.1735
21723W        W39927  17.780   3.420   4.779  0.1366  0.2069 -0.1852
21724W        W39928   8.630   4.497   4.796  0.0645 -0.0496 -0.0875
21725W        W39929  13.793   1.923   2.071 -0.2949 -0.1452  0.0371
21726W        W39930  11.341  11.157   0.068  0.1522  0.1245 -0.0473
21727W        W39931   9.806   6.240   3.368  0.1787  0.0524  0.1283
21728W        W39932  11.122  15.741  14.344  0.3585 -0.1628 -0.3404
21729W        W39933   3.551  10.727   2.428  0.2532 -0.0160 -0.2156
21730W        W39934  11.878   2.660  11.906  0.1641  0.0417  0.1498
21731W        W39935   6.845   4.830  15.490  0.0573  0.1454 -0.0664
21732W        W39936  10.864  11.549   2.972  0.1305 -0.2073 -0.0772
21733W        W39937   3.575   8.885   0.966 -0.2109 -0.2120 -0.0920
21734W        W39938   6.545  16.991   4.618  0.0268  0.2035 -0.4060
21735W        W39939   9.917   3.734   3.009 -0.3071 -0.1219  0.4108
21736W        W39940   5.669  12.106   4.862 -0.0035 -0.3248  0.0705
21737W        W39941   4.759   8.455   4.261 -0.0561 -0.0216 -0.0889
21738W        W39942   7.562  10.049   2.530  0.2314  0.3987  0.2391
21739W        W39943   0.900  17.173  13.630  0.0355  0.0525  0.0904
21740W        W39944   1.138  11.753  11.572  0.0450  0.0203 -0.1790
21741W        W39945   9.316   5.031  14.856  0.2475 -0.1999  0.0582
21742W        W39946   7.052   2.232  15.723 -0.0208  0.1908  0.1662
21743W        W39947  13.900   7.009  13.592  0.2781 -0.0087  0.1562
21744W        W39948   4.730   2.055   3.165 -0.0020  0.1151  0.2110
21745W        W39949   6.703   7.919  14.491  0.0403  0.3085 -0.1980
21746W        W39950  13.743   6.749   1.573 -0.0084 -0.1483  0.1013
21747W        W39951   8.747   3.391  14.388 -0.1046 -0.0590  0.1277
21748W        W39952  13.703   8.112   0.761  0.0930 -0.0732  0.2919
21749W        W39953   4.101  15.352  10.425 -0.0980 -0.1497 -0.2303
21750W        W39954  17.982   9.049  15.919 -0.2899 -0.1047  0.2409
21751W        W39955  16.790   1.957   3.825 -0.0209 -0.0805  0.0007
21752W        W39956   3.143  16.003   0.471  0.2085 -0.0564  0.0103
21753W        W39957  15.775   2.414  16.036 -0.0712 -0.1996  0.0744
21754W        W39958   0.193  11.364  12.526  0.1310 -0.0383 -0.1373
21755W        W39959  14.607   3.345  11.409  0.0742 -0.0154 -0.5097
21756W        W39960   5.519   4.819   1.172  0.5255 -0.0300 -0.1114
21757W        W39961  12.048   8.181   0.896  0.1029  0.1836 -0.0480
21758W        W39962   0.677   0.969  14.209 -0.0215 -0.1239 -0.0096
21759W        W39963   4.900  12.696   3.945 -0.2489  0.0553  0.1031
21760W        W39964   9.898  13.755  14.252  0.2653 -0.0816 -0.3603
21761W        W39965   9.459   9.496  15.657  0.2698 -0.0385  0.0660
21762W        W39966   5.768  14.860  13.381  0.2855  0.1943  0.0475
21763W        W39967  14.074   9.004   2.708 -0.1593  0.6098 -0.1367
21764W        W39968  15.399  11.544   1.889  0.0064  0.0653  0.0150
21765W        W39969   1.917   7.436   0.791 -0.0464  0.1615  0.1232
21766W        W39970   5.545  17.568   4.699 -0.2909 -0.0424 -0.3716
21767W        W39971   0.327  15.694   0.485 -0.3171 -0.2382 -0.0710
21768W        W39972   8.229  15.702   2.877  0.1708  0.0699  0.1325
21769W        W39973   5.744   0.695   0.362  0.1040  0.0605  0.0615
21770W        W39974   2.042  13.198  15.952 -0.1272  0.0145  0.5559
21771W        W39975   7.838   8.503   3.358  0.2061  0.0732  0.0767
21772W        W39976   4.272   9.534  13.783 -0.0938  0.3856 -0.0403
21773W        W39977   6.016  11.927  15.632 -0.0038 -0.1576 -0.3662
21774W        W39978  11.776  17.206   4.707 -0.0030 -0.0540  0.1887
21775W        W39979  11.598  15.602  13.538  0.1209 -0.2071  0.0376
21776W        W39980   5.679   1.001  11.316  0.2901  0.0581  0.0510
21777W        W39981   0.598   3.893   1.082 -0.3071  0.2178  0.1436
21778W        W39982  13.390  10.698   1.372 -0.0351  0.1288  0.0610
21779W        W39983  10.364  13.858  14.452 -0.1766 -0.1070 -0.0266
21780W        W39984  11.993   8.969  15.861  0.0980  0.0721 -0.1178
21781W        W39985   5.545   3.431  14.064  0.1516  0.1098 -0.1329
21782W        W39986   1.062  11.824   3.591  0.1353  0.1355  0.1200
21783W        W39987  17.093   6.165  16.087 -0.0008 -0.0836  0.0900
21784W        W39988  13.507   8.347   1.350  0.2611  0.0238 -0.0609
21785W        W39989  11.822  14.933  14.349  0.0132  0.2463  0.0397
21786W        W39990   9.570  16.344   1.313  0.1267  0.1000 -0.0909
21787W        W39991   3.859  15.155  12.102 -0.0491 -0.1238  0.4206
21788W        W39992  15.390   4.861   1.435 -0.0982  0.2289  0.3169
21789W        W39993   5.278  17.661   0.515  0.1591  0.3119 -0.1184
21790W        W39994  18.004  16.387  14.099 -0.2857 -0.0252 -0.0877
21791W        W39995   3.447  16.019  11.559 -0.1057  0.0294 -0.0923
21792W        W39996  12.478   3.361   4.797  0.3929  0.3127  0.0236
21793W        W39997  13.142   3.543  14.030 -0.3406 -0.1491 -0.0164
21794W        W39998  15.714   8.185   4.112  0.1674  0.2212  0.0684
21795W        W39999  15.107   0.727   1.413  0.0790 -0.3208  0.1745
21796W        W40000   5.988   5.426   1.975  0.1746  0.0493  0.1610
21797W        W40001  13.617   9.993  14.865 -0.0206 -0.1192 -0.0010
21798W        W40002  15.139   8.110  15.216  0.1594 -0.2350 -0.1547
21799W        W40003   5.542  10.812  13.611 -0.2487 -0.1776  0.1362
21800W        W40004  17.556   1.729   3.027 -0.1804 -0.1096 -0.3557
21801W        W40005   7.289   3.865  11.609 -0.3174  0.0854 -0.0279
21802W        W40006  10.786  15.758  11.150  0.3063 -0.1932 -0.2012
21803W        W40007   4.191   1.256   4.792 -0.1182  0.1810  0.0398
21804W        W40008   3.526  17.086  11.607  0.2644 -0.2603 -0.0394
21805W        W40009  16.659   4.200  14.710 -0.1570 -0.1899  0.1031
21806W        W40010   8.974   0.570   0.372  0.0790  0.0810  0.2710
21807W        W40011  13.473   9.463  15.085  0.0442 -0.0891  0.3176
21808W        W40012  11.836   3.664   1.579 -0.1438 -0.2444 -0.0627
21809W        W40013  10.139  12.530  16.174 -0.1467  0.1863  0.1039
21810W        W40014  13.106  11.268  13.623 -0.1103  0.2062  0.1628
21811W        W40015   0.102   0.961  14.057 -0.0251 -0.0913  0.0922
21812W        W40016   0.683   2.478   3.007  0.2467 -0.0380  0.0733
21813W        W40017   5.594  13.339  14.756 -0.1039 -0.2258  0.1896
21814W        W40018  11.844   0.572  15.287  0.1804  0.2184  0.2234
21815W        W40019  10.143  10.574  12.421 -0.2426  0.1027  0.0723
21816W        W40020   2.853   1.006  12.994  0.1647 -0.1702 -0.0475
21817W        W40021   8.050  13.546  13.439 -0.1627 -0.2341 -0.1149
21818W        W40022   3.825   2.158   3.830 -0.2302  0.1064  0.0383
21819W        W40023  10.844   7.018  13.720  0.0200  0.1678 -0.0591
21820W        W40024  14.802  13.228  14.629  0.0091  0.0985  0.2544
21821W        W40025   8.937   9.514  11.793  0.0840 -0.0457 -0.0454
21822W        W40026   9.603  14.523   3.939  0.0340  0.1198 -0.1049
21823W        W40027   4.727   2.678  15.205  0.3099  0.1392  0.2489
21824W        W40028  14.887  15.630  13.396 -0.1290 -0.1253  0.1273
21825W        W40029  11.600   6.986  12.821 -0.2093  0.0618  0.0172
21826W        W40030   3.469  16.702   4.650  0.2392 -0.1453  0.3129
21827W        W40031  12.600  12.380  13.879  0.0655  0.0025  0.1254
21828W        W40032  16.167   7.199   2.109  0.1357 -0.1250  0.0268
21829W        W40033   0.482   9.192  15.132 -0.1718 -0.2360 -0.0415
21830W        W40034   4.670   8.625   3.355  0.2248 -0.2527 -0.1315
21831W        W40035  15.748   8.093  13.038  0.0880  0.0971  0.0145
21832W        W40036  17.629   6.087   2.067  0.1318  0.1612 -0.0710
21833W        W40037   5.076  14.473  15.935 -0.0176 -0.0216  0.1419
21834W        W40038   8.878   1.711   1.916  0.1647 -0.0280 -0.2928
21835W        W40039   9.123  12.204   2.196  0.1068 -0.3937 -0.1249
21836W        W40040   1.225   6.200   2.960 -0.0600  0.0913  0.2466
21837W        W40041  14.640  12.536   3.431  0.0765 -0.5141  0.3026
21838W        W40042   4.699  17.605  11.126 -0.0477  0.1504  0.1391
21839W        W40043  17.979  13.237   2.614 -0.1907 -0.1226  0.0437
21840W        W40044   9.587  16.599  14.978  0.0380 -0.0806  0.1810
21841W        W40045   0.863   6.853   3.814 -0.0502 -0.1568  0.0132
21842W        W40046  15.999   9.051  14.292  0.2933  0.3361 -0.0033
21843W        W40047   2.342  16.397  10.814  0.1808 -0.2171 -0.0254
21844W        W40048   1.774  17.122  13.071  0.1174  0.0424 -0.1988
21845W        W40049   6.766  14.943   4.003  0.1868 -0.0035 -0.0461
21846W        W40050   2.866  14.309  14.185  0.0093 -0.2694  0.2991
21847W        W40051  12.531  11.767   2.745 -0.0334  0.2014  0.2237
21848W        W40052   5.358  17.793  14.807  0.1357  0.0551  0.1172
21849W        W40053  13.971   6.169   4.371 -0.0215  0.3890 -0.2237
21850W        W40054   1.563   0.821   0.920 -0.1200 -0.0086  0.0722
21851W        W40055  12.711   8.498   3.469  0.2332  0.2183  0.0217
21852W        W40056   9.760  15.696  15.097 -0.1172 -0.1202 -0.0288
21853W        W40057  14.755   3.045  11.918 -0.2411 -0.4905 -0.2468
21854W        W40058  17.769  13.505   2.237  0.1187  0.1852 -0.1918
21855W        W40059   7.706  15.706   4.456  0.1372  0.2335 -0.0512
21856W        W40060  16.908   2.958   1.594 -0.0649 -0.0262  0.0942
21857W        W40061   7.814   8.975   2.418  0.0146  0.1616 -0.0955
21858W        W40062   1.658  15.668  16.016  0.3403 -0.0709  0.1030
21859W        W40063  16.543   9.432   3.386  0.0800 -0.1896 -0.1679
21860W        W40064   8.445   2.844  11.755 -0.1807 -0.0984  0.0582
21861W        W40065  16.423   3.807   0.922  0.0822  0.0164 -0.0790
21862W        W40066  16.337  17.833  14.781  0.1342 -0.1486 -0.1991
21863W        W40067  13.506   6.087  12.046 -0.0854  0.2546  0.1672
21864W        W40068  14.041   6.702  12.655  0.0470  0.0000 -0.0029
21865W        W40069  14.626   4.909  12.943 -0.2838  0.1966  0.0260
21866W        W40070  15.228   9.298   1.927  0.1410  0.2256 -0.3430
21867W        W40071  16.692  14.558  11.334 -0.1101 -0.0886 -0.0115
21868W        W40072   3.405  11.333  11.740  0.1010  0.2518 -0.0615
21869W        W40073   0.819   0.242   0.060  0.1374  0.1565 -0.1307
21870W        W40074   0.144  16.398  14.707 -0.3306  0.2044  0.1740
21871W        W40075  17.722   5.041  15.480 -0.1972 -0.1881 -0.2609
21872W        W40076   5.932   2.426  11.251  0.2393  0.2224 -0.1471
21873W        W40077   6.456   6.470  16.061  0.0977 -0.2011  0.2691
21874W        W40078   5.625  11.073   3.526  0.0954 -0.2077 -0.0323
21875W        W40079   0.035   9.507   3.106 -0.1513 -0.1185  0.1422
21876W        W40080  16.678   0.711  15.553  0.1350  0.0038  0.1999
21877W        W40081  12.713   7.349  15.537 -0.0801 -0.1893  0.2086
21878W        W40082   5.446   1.752   2.377 -0.0983  0.0110 -0.1671
21879W        W40083  14.408   2.749  13.088 -0.0035 -0.0937 -0.0192
21880W        W40084   6.544  14.926  14.511 -0.1828  0.2341  0.0237
21881W        W40085  12.658   1.102   0.875 -0.0004  0.0742  0.1329
21882W        W40086  13.939  14.962  10.635  0.0154  0.0248  0.1530
21883W        W40087   2.087  10.361  13.442 -0.0799 -0.1481  0.3428
21884W        W40088   0.447   8.724  14.831 -0.2374 -0.1039  0.0551
21885W        W40089  11.012   4.595   2.526  0.0690 -0.1860  0.2018
21886W        W40090  11.572   3.839   3.941  0.2248  0.1386  0.1065
21887W        W40091   2.374   3.311  13.285 -0.0426  0.0050 -0.0615
21888W        W40092   7.466  16.616   2.974  0.0152 -0.4921  0.3156
21889W        W40093  13.595   2.737   2.317 -0.3557  0.2399  0.0885
21890W        W40094  12.465  17.456   3.224  0.0959 -0.0400  0.1946
21891W        W40095  16.672   4.668   4.869  0.2094 -0.1566 -0.0352
21892W        W40096   9.678   8.156  10.726  0.1416 -0.0608 -0.0639
21893W        W40097   6.305   6.226   2.184  0.2721 -0.1277 -0.0884
21894W        W40098  16.869  13.795  13.144 -0.1130  0.4132 -0.2635
21895W        W40099  11.527  17.910  14.300  0.1243 -0.1762  0.1135
21896W        W40100  15.397  16.495   4.019 -0.3961  0.1656  0.2202
21897W        W40101   1.974   8.276   5.821 -0.1643  0.0398  0.1448
21898W        W40102  10.364   6.189  11.699  0.2014  0.0821  0.2658
21899W        W40103  10.411   8.647   1.223 -0.0754  0.0103  0.0914
21900W        W40104  13.829   0.820  13.099 -0.1318  0.1887 -0.0783
21901W        W40105  17.110  14.771  15.118  0.0414 -0.6010 -0.0570
21902W        W40106   1.527  17.928   1.424 -0.2954 -0.1571 -0.1224
21903W        W40107  17.743   4.634  11.159 -0.2412  0.1439 -0.0551
21904W        W40108  12.869   4.225  14.744 -0.0977 -0.0710 -0.1852
21905W        W40109   0.881   5.227  14.342  0.0670  0.1534  0.3038
21906W        W40110  13.613   5.982  15.767 -0.0034  0.2217  0.0343
21907W        W40111   5.770   9.453  12.998 -0.2279  0.0925  0.0776
21908W        W40112   5.989   6.581   0.723  0.0358 -0.1436 -0.2088
21909W        W40113  17.107  10.152  13.087 -0.1564  0.0595 -0.1769
21910W        W40114   2.497  12.855  11.707 -0.3431  0.0171  0.2622
21911W        W40115  17.200   2.643   2.070  0.1300  0.3643  0.3791
21912W        W40116   1.579  12.546  15.839 -0.0619  0.0533 -0.2546
21913W        W40117   8.446   4.241   4.306  0.0166 -0.1683 -0.0626
21914W        W40118  13.484  11.911   2.920  0.0208  0.0695 -0.0404
21915W        W40119   1.108   7.709   6.289  0.0412  0.0365 -0.1367
21916W        W40120  12.152  12.323   3.509  0.3506  0.0895 -0.0852
21917W        W40121   0.776  10.596   3.293  0.0829  0.0498 -0.0159
21918W        W40122  14.006   9.494  14.242 -0.0079 -0.0626 -0.0514
21919W        W40123   0.344   5.458   5.434 -0.0363  0.1165 -0.1966
21920W        W40124  10.042   6.236   3.850 -0.0999 -0.0646  0.4919
21921W        W40125   6.265  10.323  14.903  0.0270 -0.2520  0.1450
21922W        W40126  17.294   0.038   3.067  0.2016 -0.1401 -0.1182
21923W        W40127  17.541   8.731  11.620  0.2682 -0.0977  0.0483
21924W        W40128   6.702   4.111  12.735  0.1264  0.2575 -0.1014
21925W        W40129   8.706   8.254  13.838 -0.0819 -0.0369 -0.1300
21926W        W40130   3.298   3.771  14.307  0.1768  0.3286 -0.0585
21927W        W40131  17.037   8.672  11.695 -0.2283  0.0526 -0.0156
21928W        W40132  18.028   3.364  12.540 -0.2178  0.1890 -0.3972
21929W        W40133  15.563   2.266  14.329 -0.2617  0.0741 -0.0732
21930W        W40134   4.643   7.101   2.834 -0.2304 -0.0731 -0.0410
21931W        W40135   8.221  16.034   1.741  0.3272 -0.2815 -0.0410
21932W        W40136  16.801   3.753  11.665 -0.3227 -0.3157 -0.0219
21933W        W40137   4.050  14.602  12.257 -0.0703  0.1549  0.0396
21934W        W40138   6.583  16.888  13.911  0.2155  0.0669  0.2848
21935W        W40139   2.820  12.116   3.073 -0.2347 -0.0749  0.1281
21936W        W40140   2.228  10.864   2.664  0.0243 -0.1338  0.0071
21937W        W40141   8.044   9.339   2.696 -0.0761 -0.0017  0.2725
21938W        W40142  15.619   6.378  14.619 -0.0849  0.3200  0.2699
21939W        W40143  16.021   1.805  12.104 -0.0242  0.1270 -0.1897
21940W        W40144   7.852  13.717  14.158 -0.2583 -0.1101 -0.0216
21941W        W40145  13.204  15.679  11.783  0.1869  0.0517 -0.1015
21942W        W40146  14.487   4.439   3.966 -0.0160 -0.4462 -0.0708
21943W        W40147   5.590   8.750  14.099  0.1609  0.0164 -0.1515
21944W        W40148   1.299  12.746  14.349  0.2432  0.0538 -0.1145
21945W        W40149   8.684   1.249   1.965  0.3038 -0.1433 -0.1553
21946W        W40150  13.073  12.500  14.759  0.1407 -0.2372  0.0810
21947W        W40151   1.118   2.610   1.930 -0.0290 -0.0964  0.1229
21948W        W40152   3.953  11.806  13.020 -0.0027 -0.1770 -0.0832
21949W        W40153  12.691   8.877  14.521 -0.1379 -0.0249  0.0376
21950W        W40154  17.747   5.832  14.476 -0.0378  0.0703  0.0483
21951W        W40155   8.799  13.759   3.590 -0.0369 -0.1910 -0.2255
21952W        W40156  10.220  11.445   0.883  0.2027  0.0419 -0.0137
21953W        W40157   2.679   2.514  15.411 -0.0357  0.1932 -0.0075
21954W        W40158  12.349   5.396   0.091  0.0510  0.2580  0.2342
21955W        W40159   0.193  12.762   1.908 -0.0719 -0.0011 -0.0108
21956W        W40160  14.060  12.628  10.634  0.1776 -0.1468  0.1598
21957W        W40161   2.649   7.172   3.281  0.2893  0.0907 -0.0599
21958W        W40162   2.912   7.756   2.729  0.3269  0.1440  0.2511
21959W        W40163  13.510   6.814   0.088  0.1467 -0.1810 -0.0277
21960W        W40164   8.059  17.356   1.299 -0.0585  0.0849  0.2947
21961W        W40165  15.925   2.062   3.974  0.1098 -0.1369 -0.2026
21962W        W40166   0.952  11.918  14.437  0.1605  0.0202  0.3214
21963W        W40167   4.675   6.279   3.327 -0.2467  0.2000 -0.0901
21964W        W40168  15.430   4.900  12.314 -0.3374  0.1254  0.1546
21965W        W40169   4.303  10.386   3.344  0.1761  0.1667 -0.0543
21966W        W40170   2.601   1.731  12.378 -0.0355 -0.1290 -0.1219
21967W        W40171  14.626  15.163  11.471  0.2955  0.0098  0.3112
21968W        W40172  10.083   1.394  14.828 -0.2822  0.1582  0.0470
21969W        W40173   7.244   1.393  16.066  0.0382 -0.2537 -0.0984
21970W        W40174  10.218  16.568  13.084  0.0753  0.0643 -0.1947
21971W        W40175  16.423   6.615  14.307 -0.1151 -0.1993 -0.2283
21972W        W40176   8.006   6.754   0.465 -0.3322  0.2121  0.0426
21973W        W40177  10.132  17.080  14.337 -0.0559  0.1074 -0.0586
21974W        W40178   8.115  13.739  14.664  0.0544  0.0870  0.2530
21975W        W40179  11.126   1.384   3.460 -0.1315  0.1022  0.0082
21976W        W40180   4.825   5.749  13.890 -0.0802  0.1048 -0.0358
21977W        W40181   7.262  15.535   1.828  0.1579 -0.2182 -0.2102
21978W        W40182   4.343   1.146  11.410  0.1439 -0.4035 -0.0130
21979W        W40183   2.996  14.898   1.384 -0.0101 -0.1020 -0.0579
21980W        W40184  12.648   4.548   0.197  0.3930  0.0360  0.0693
21981W        W40185  16.677  10.361   0.491  0.1251  0.2552 -0.1701
21982W        W40186   3.317  17.267  14.811  0.0344  0.1780  0.2232
21983W        W40187   6.074   0.036  13.024  0.1056 -0.0756 -0.2345
21984W        W40188  11.753   8.559  13.272  0.1358  0.0452  0.1212
21985W        W40189   7.014   4.716   0.719 -0.2034 -0.3664 -0.1028
21986W        W40190  15.437  13.993  12.697 -0.0152 -0.0713 -0.2845
21987W        W40191   8.522  15.176   2.869 -0.0321  0.0334  0.1545
21988W        W40192   8.197   0.901  10.782  0.1382  0.0694 -0.0078
21989W        W40193   4.462   5.813  15.222  0.1230 -0.0626 -0.0017
21990W        W40194  13.764   4.662  11.822 -0.0411  0.1559 -0.1702
21991W        W40195  10.102   5.118  11.166 -0.1064  0.1091  0.2811
21992W        W40196   7.096   8.237  11.497 -0.1475 -0.1716 -0.3126
21993W        W40197  11.615   2.310   1.740  0.2537  0.1920 -0.1618
21994W        W40198  13.487  15.357   3.238 -0.1588  0.4557 -0.1399
21995W        W40199   6.531  13.684   0.960  0.0365 -0.0289  0.0534
21996W        W40200   8.058  13.664  15.195  0.0559  0.2022  0.1519
21997W        W40201   6.314  16.312   4.465 -0.0435  0.0642 -0.2517
21998W        W40202  17.440  17.749  12.369 -0.0094  0.0876 -0.2750
21999W        W40203   2.188  12.654  12.383 -0.1076  0.3110 -0.2353
22000W        W40204  10.533  12.518   3.400 -0.2324  0.4545 -0.1062
22001W        W40205   0.406  10.486   1.468 -0.0042  0.0512 -0.1073
22002W        W40206   1.008   0.086   2.581 -0.2393 -0.0620  0.1388
22003W        W40207  15.779   7.268  14.613 -0.2725  0.0977  0.2288
22004W        W40208   5.472  13.686  13.834 -0.1728  0.0200  0.0357
22005W        W40209  16.305  14.670   3.451 -0.1297 -0.1810 -0.2576
22006W        W40210   1.422  14.944   0.587  0.0127 -0.1931 -0.1160
22007W        W40211  15.604  14.053  11.329 -0.0175 -0.2820 -0.1405
22008W        W40212  15.316  16.477  16.134  0.1078  0.0223 -0.2739
22009W        W40213  15.569   5.352  13.697  0.0645  0.1592 -0.1883
22010W        W40214  17.254  17.057  15.754  0.2367  0.0626 -0.0677
22011W        W40215   1.745   0.472  15.951 -0.0266  0.0485 -0.2121
22012W        W40216   6.087   2.592  15.908 -0.2724  0.1708 -0.2015
22013W        W40217  17.243   9.086   4.234 -0.0994 -0.0863 -0.2839
22014W        W40218   4.809   7.650  12.363  0.2949  0.3030 -0.0627
22015W        W40219  15.631  13.023   3.310 -0.0437  0.2333 -0.0715
22016W        W40220  16.612  16.322   2.507 -0.2501  0.1189  0.1238
22017W        W40221   6.402  14.275   5.756 -0.1606 -0.0220  0.1495
22018W        W40222  12.172   5.947   2.839  0.0147 -0.4559  0.2282
22019W        W40223  14.664   7.241   1.627  0.0309  0.0070 -0.0631
22020W        W40224  17.085   8.752   3.909  0.0999 -0.0145 -0.1627
22021W        W40225   1.123   4.332  15.502 -0.4256 -0.5631  0.1082
22022W        W40226  11.008  10.757   0.683 -0.1047  0.0247  0.1073
22023W        W40227  16.654   6.808   4.267  0.0332  0.1436  0.1225
22024W        W40228   7.051   8.448  13.148  0.0974  0.3320  0.0585
22025W        W40229   7.521  10.663  12.653 -0.1430 -0.0014  0.2872
22026W        W40230  15.524   0.914   1.048  0.1505  0.1707 -0.1073
22027W        W40231   7.697   9.543   4.785  0.0396  0.0821  0.3220
22028W        W40232  13.899   2.922  11.756 -0.1278  0.1253 -0.1919
22029W        W40233   5.155  15.590   2.045 -0.0843 -0.1424  0.1453
22030W        W40234   7.243   5.374   1.342 -0.1917 -0.0199  0.1277
22031W        W40235  15.644  13.453   2.579  0.0755  0.1773 -0.1331
22032W        W40236   7.128  14.981   3.183  0.0125  0.0292  0.3600
22033W        W40237   4.516   8.630  12.334 -0.2922  0.0824 -0.0610
22034W        W40238  16.986  11.407   1.007  0.0101  0.2216 -0.0117
22035W        W40239   8.753   1.871   3.227  0.1418 -0.1700 -0.1251
22036W        W40240  16.501  17.974   1.921  0.1526  0.0845 -0.1579
22037W        W40241   6.265  11.754   1.871  0.1257 -0.0571  0.0535
22038W        W40242   2.835   2.479   0.147  0.0753 -0.0948 -0.2249
22039W        W40243  14.205   5.316   1.876  0.1450  0.3715  0.1821
22040W        W40244   0.382  10.698  12.400  0.1514  0.0610  0.0154
22041W        W40245   2.516  15.732  15.404  0.0008  0.1411  0.0154
22042W        W40246  13.343   2.329   2.853 -0.0183  0.1141 -0.4083
22043W        W40247  12.842   7.279   5.447  0.1649  0.1460 -0.0048
22044W        W40248   3.104   4.958  15.233  0.1586  0.0539  0.0193
22045W        W40249   5.282   2.186  14.069  0.0952 -0.3853 -0.0595
22046W        W40250   0.616  12.751  15.306 -0.0628  0.0583  0.2655
22047W        W40251   2.185   5.581   1.073 -0.0647 -0.0454 -0.0072
22048W        W40252  15.721   7.726   2.745 -0.1311 -0.1754 -0.0610
22049W        W40253  11.993  17.770  11.686  0.2110 -0.0658  0.0210
22050W        W40254   4.516  17.482   2.213  0.1198 -0.1743 -0.1580
22051W        W40255  12.047   1.064   4.760  0.4742  0.0978  0.1378
22052W        W40256   8.305   7.638   5.908 -0.3407  0.0344  0.0586
22053W        W40257   7.031   3.667   3.475 -0.1053  0.0882  0.1068
22054W        W40258   0.643  14.550   2.669 -0.2192  0.2027  0.4330
22055W        W40259  13.977   6.372  13.229 -0.0202 -0.1091 -0.0417
22056W        W40260   2.701   2.578   4.694 -0.0835 -0.0722  0.2052
22057W        W40261  16.132   7.943   3.996  0.1010  0.0033 -0.2190
22058W        W40262  17.846  13.235  12.142 -0.0177  0.1383  0.1958
22059W        W40263  17.571   3.923   0.933 -0.1597  0.0224  0.0803
22060W        W40264   1.082   8.579  15.474 -0.1101  0.2681 -0.0445
22061W        W40265  13.828  14.043   4.185  0.0003  0.0832  0.0183
22062W        W40266   2.849   0.947  13.504  0.1064  0.2890  0.1471
22063W        W40267   3.695   7.714   4.812 -0.1238  0.2613  0.0103
22064W        W40268   1.123   0.665  13.104 -0.0235  0.3195 -0.0856
22065W        W40269   0.077   0.022   3.818  0.2190  0.1061  0.1970
22066W        W40270   3.479  15.872   0.080 -0.1525  0.1586  0.1922
22067W        W40271  10.592  10.474   0.805  0.0028  0.0751  0.2934
22068W        W40272   3.391   6.701   3.853 -0.1088  0.1398  0.0908
22069W        W40273  12.312  12.807  13.800  0.1734  0.3011 -0.0867
22070W        W40274  11.344   0.943  13.793 -0.1243 -0.0232 -0.2380
22071W        W40275  14.662   3.873  15.775 -0.0024 -0.2411  0.0569
22072W        W40276   6.529   0.840  13.931  0.0253 -0.0870  0.3109
22073W        W40277   7.163   0.844   3.822 -0.1288  0.1260  0.3583
22074W        W40278  11.694  11.700  12.330  0.0167  0.1880 -0.0458
22075W        W40279   9.636   8.802   4.633 -0.0399  0.2063  0.1358
22076W        W40280   3.544   1.618  12.463 -0.3919  0.2524  0.1578
22077W        W40281   4.401   8.306   4.987 -0.0256 -0.1274  0.0531
22078W        W40282   1.435  16.722   2.954  0.0791 -0.0435 -0.0550
22079W        W40283  11.477   7.047  15.604 -0.0348  0.1460 -0.0521
22080W        W40284   5.630  12.229  14.363  0.2580 -0.2206 -0.1708
22081W        W40285   9.592   8.683  15.528 -0.3629  0.1559 -0.1259
22082W        W40286  13.104   9.301  15.399  0.1607  0.0143 -0.1525
22083W        W40287  10.620   6.699   0.883  0.0776  0.2461 -0.1080
22084W        W40288  11.322   0.974  14.305 -0.0675  0.3251 -0.0516
22085W        W40289   8.830  17.524   2.424 -0.1630  0.2539 -0.0018
22086W        W40290  15.652  14.282  13.092  0.0317 -0.1092 -0.1171
22087W        W40291  15.445  16.825   0.370 -0.0988 -0.0641 -0.1472
22088W        W40292   4.390  11.950   4.303  0.0512 -0.0238  0.0586
22089W        W40293   4.170   9.274   4.954  0.1636  0.0769 -0.2514
22090W        W40294   7.520  16.162   4.630  0.0217  0.2002 -0.0319
22091W        W40295  17.240   1.939  14.972 -0.1522  0.1611 -0.0319
22092W        W40296  14.175   7.090   3.847  0.0030  0.1466 -0.0737
22093W        W40297  17.243   0.822   4.321 -0.0801 -0.0990 -0.1928
22094W        W40298   0.815  13.851   5.754 -0.1354  0.0739  0.0182
22095W        W40299  11.105   7.895   2.438 -0.1188  0.0059  0.3840
22096W        W40300   7.736  12.776   0.574 -0.1536  0.0397 -0.0905
22097W        W40301  13.153  14.101  15.264 -0.0004  0.1428  0.3170
22098W        W40302   5.501   5.030   2.348  0.0502 -0.1905 -0.1371
22099W        W40303   0.983   1.055  15.038  0.1595 -0.1141  0.1899
22100W        W40304   3.850  13.556  11.422  0.2405 -0.0028  0.1835
22101W        W40305   5.766  11.987  14.794 -0.0250  0.0123  0.1035
22102W        W40306   9.749  11.530   1.566 -0.1283  0.0182 -0.1063
22103W        W40307  14.489  14.035   0.708 -0.4286 -0.2145  0.0347
22104W        W40308   9.764   9.507   2.979  0.3854 -0.2229  0.0332
22105W        W40309   6.633  12.194  15.010  0.0104  0.1746 -0.0103
22106W        W40310   2.092  18.010   2.240  0.3339  0.0846  0.1696
22107W        W40311   3.339  14.233   3.604  0.2785 -0.0145  0.1088
22108W        W40312  16.222  12.246  12.141  0.1538 -0.1448 -0.1345
22109W        W40313   2.441  10.714   1.899  0.1458  0.0085  0.0571
22110W        W40314   2.682  17.174   1.398 -0.2113 -0.2958  0.2982
22111W        W40315  18.038  11.759  12.859 -0.1568 -0.2729 -0.3591
22112W        W40316  16.683   2.096  11.686 -0.1114  0.1242 -0.0565
22113W        W40317   0.243   1.584   2.018 -0.2048  0.2616 -0.1959
22114W        W40318  10.608  15.676  16.048 -0.0663  0.1450  0.0396
22115W        W40319  10.984   2.497  11.633  0.0332  0.2447 -0.0871
22116W        W40320  11.051   5.200  14.871 -0.1171 -0.1779 -0.0698
22117W        W40321   2.290   9.312   0.959 -0.3663  0.0480 -0.1964
22118W        W40322  15.712   9.284  12.384  0.2024  0.3018 -0.2693
22119W        W40323   4.500  10.223   0.390 -0.0325 -0.2684  0.1636
22120W        W40324  15.515   2.392  15.463 -0.3026 -0.1705 -0.0320
22121W        W40325   8.832   2.663  14.942  0.0945 -0.1132  0.1059
22122W        W40326   1.626  11.972   2.932 -0.1839  0.3913 -0.0924
22123W        W40327   5.976  11.670  12.305 -0.2298 -0.1174 -0.3158
22124W        W40328  13.762  11.159  12.970 -0.0487 -0.1906 -0.0483
22125W        W40329  13.234   8.079   1.032 -0.1606 -0.1160 -0.1257
22126W        W40330   2.931  15.662   4.558  0.0975 -0.0522  0.2058
22127W        W40331   1.900  11.972  14.064 -0.2766  0.0833 -0.1623
22128W        W40332   0.629  15.095   1.216 -0.1033 -0.2771 -0.1384
22129W        W40333   5.328   9.731  13.044  0.3670  0.0533  0.2832
22130W        W40334  13.479  12.899   4.653  0.3663 -0.0970 -0.3301
22131W        W40335   7.721   9.018   6.193 -0.0829  0.0023  0.3742
22132W        W40336   1.121   7.833  16.034 -0.2144 -0.0087 -0.0831
22133W        W40337   5.614   6.053  11.290  0.2042 -0.1450  0.0390
22134W        W40338  17.888   1.920   4.511 -0.1017 -0.2390 -0.0832
22135W        W40339   4.584   4.405   4.328 -0.3457  0.0106 -0.0473
22136W        W40340   9.571   9.126  15.331  0.0120 -0.1375  0.2331
22137W        W40341  16.470   2.764  12.989  0.0634  0.0975  0.0764
22138W        W40342   1.181  13.795   0.029 -0.3888 -0.0577  0.1108
22139W        W40343   7.410   2.415  11.587  0.1588 -0.3374 -0.2781
22140W        W40344   3.281   0.180  12.126 -0.1354 -0.0930  0.0069
22141W        W40345   9.655  12.863  14.016  0.1085 -0.0711 -0.1568
22142W        W40346  10.227  17.778   1.752  0.0233 -0.1501 -0.2525
22143W        W40347   9.368   4.688   1.308 -0.0339  0.0829  0.1289
22144W        W40348   5.635  10.070   1.093  0.0463  0.0688 -0.1648
22145W        W40349  15.351   9.149  11.928 -0.3617 -0.2202  0.1392
22146W        W40350  14.084   0.985   5.782  0.0641  0.2235  0.1483
22147W        W40351  16.891  13.746  15.814  0.1712  0.0115  0.0037
22148W        W40352   2.240   6.818   3.206  0.0536 -0.1330 -0.2127
22149W        W40353   8.812  10.075   3.794 -0.0831  0.0882  0.2424
22150W        W40354   2.312  13.954  12.808  0.1987  0.0896 -0.1813
22151W        W40355  10.351  10.700   2.508 -0.0035  0.0791 -0.4318
22152W        W40356  11.110  12.177   0.436 -0.2844 -0.1162  0.0041
22153W        W40357   2.167  16.712   0.550 -0.0745 -0.3400  0.1043
22154W        W40358   5.944   6.157  14.173 -0.0903  0.1212  0.1490
22155W        W40359   4.436  17.898   2.626  0.0592  0.1330 -0.1143
22156W        W40360   8.012  15.927   4.752 -0.4456  0.0121 -0.3883
22157W        W40361   0.795   5.883   4.308  0.0097  0.3461 -0.2142
22158W        W40362  15.028   1.409  12.992 -0.0039 -0.1830  0.1318
22159W        W40363   6.983  14.885  11.479  0.3288  0.0119  0.0629
22160W        W40364   2.617  10.609   2.417 -0.1088  0.3340  0.2806
22161W        W40365   3.027   0.650  11.774 -0.1909 -0.0116 -0.2719
22162W        W40366  12.931  15.817   1.931 -0.0163  0.1544  0.0303
22163W        W40367  12.161   0.244  13.327 -0.1166  0.2829 -0.0150
22164W        W40368  13.296  11.110   1.836 -0.0512  0.1668  0.1578
22165W        W40369   8.094  11.856  12.030 -0.2715  0.2050  0.3210
22166W        W40370   0.522  15.808  10.876 -0.0084 -0.0744  0.2784
22167W        W40371   3.737  13.191  16.163 -0.1996  0.0806 -0.2917
22168W        W40372  17.586  13.384   4.310  0.1595 -0.0987 -0.0016
22169W        W40373  12.778   2.752   2.335 -0.0267 -0.1926  0.0574
22170W        W40374   4.478   6.915   1.851  0.1320  0.2184 -0.1751
22171W        W40375   6.764   9.605  14.989  0.1046  0.0346  0.0616
22172W        W40376   9.875   3.479   1.517  0.0077  0.3257 -0.0849
22173W        W40377  15.155   7.548   2.668  0.0475 -0.0241 -0.0301
22174W        W40378   7.830   0.034  15.030  0.3575 -0.0818 -0.0727
22175W        W40379  13.564   8.654  14.427  0.4355  0.2430  0.3538
22176W        W40380  14.963  14.119  16.058 -0.1071  0.0654  0.0078
22177W        W40381   6.635   5.693  11.594 -0.0143  0.0644  0.0469
22178W        W40382  12.302  12.237  14.783 -0.0540  0.2451 -0.1454
22179W        W40383   4.711   8.742  13.737 -0.0244 -0.2478  0.0533
22180W        W40384  12.752   9.937  15.502 -0.3111  0.0790  0.0204
22181W        W40385  17.191   6.984   0.944 -0.2180 -0.2266 -0.3327
22182W        W40386  10.652   5.184   3.661 -0.2436  0.1592  0.0542
22183W        W40387   5.594  15.876  14.740 -0.0188  0.0899  0.0658
22184W        W40388  14.438   8.443  13.212 -0.2261 -0.1618  0.0679
22185W        W40389   6.873   1.165  13.094  0.0874 -0.0744 -0.0528
22186W        W40390   8.832  15.012  15.694 -0.0397  0.0102 -0.0110
22187W        W40391  17.523  13.131  11.538 -0.1859 -0.3386  0.0374
22188W        W40392  10.677   1.817  13.168  0.0455  0.2506  0.0324
22189W        W40393   3.659   8.714  13.401  0.0244  0.5326 -0.3179
22190W        W40394  15.155   5.632  13.666 -0.1380 -0.1357  0.0681
22191W        W40395   9.894   3.278   3.944 -0.3118 -0.0773  0.2066
22192W        W40396   1.821   6.910   2.427  0.0071  0.2291  0.0807
22193W        W40397   8.746   8.826  13.170 -0.3380 -0.1253  0.1205
22194W        W40398  10.035   6.685   2.837  0.4129 -0.1385 -0.0439
22195W        W40399   7.251   4.450   2.937  0.1917 -0.4031  0.0602
22196W        W40400   0.414   4.228  14.180  0.0799 -0.1019  0.0405
22197W        W40401   3.601   0.570   3.334  0.0908 -0.1006 -0.0279
22198W        W40402  18.005  12.645   0.579 -0.0674 -0.0412  0.0440
22199W        W40403   8.357  13.831  11.052 -0.2013  0.4076  0.0230
22200W        W40404   4.286   1.060   0.100 -0.1669 -0.0556  0.0794
22201W        W40405  14.969  14.432   0.303  0.1653  0.0089 -0.1116
22202W        W40406  17.722   6.157  14.024  0.0404  0.2570  0.0708
22203W        W40407   4.162  11.885   0.654 -0.0002  0.3224  0.3711
22204W        W40408  11.018   1.959   2.713 -0.0579 -0.1993  0.1881
22205W        W40409  15.869   4.326  11.421  0.1671  0.3377 -0.2882
22206W        W40410   2.286  14.735  15.484 -0.1171 -0.1495 -0.2991
22207W        W40411   6.084   9.262  11.994  0.2424 -0.0578 -0.2495
22208W        W40412   2.538   6.685  13.862  0.0983  0.1184  0.1443
22209W        W40413   0.217   1.480  14.796  0.2128 -0.1925 -0.0683
22210W        W40414  15.843  11.860   0.144 -0.1256  0.0074  0.1468
22211W        W40415   7.662   5.802  12.501 -0.0652  0.0810 -0.2596
22212W        W40416  10.840  17.193   2.452  0.1858 -0.0565 -0.1144
22213W        W40417   0.353   5.559  12.014  0.0158 -0.1005  0.4536
22214W        W40418   2.404  16.681  11.836  0.0579  0.0163  0.1295
22215W        W40419   1.676   6.924  14.922  0.2183 -0.0520 -0.0452
22216W        W40420  11.605  12.416  11.222 -0.2312 -0.4053  0.1707
22217W        W40421   6.511  11.536   0.081 -0.0069 -0.0521  0.0439
22218W        W40422   6.863   8.489   6.447 -0.1504  0.2895  0.1362
22219W        W40423   1.486  11.885  14.500  0.1343 -0.2190  0.1907
22220W        W40424   2.277  10.238  14.470  0.1805 -0.1628 -0.1550
22221W        W40425   0.175   8.212   5.279 -0.3702 -0.3041 -0.2716
22222W        W40426  11.682  10.781  12.092  0.3232  0.1172 -0.0556
22223W        W40427   7.452   8.581   3.654 -0.0050  0.0499  0.1931
22224W        W40428   8.566  16.951  15.737 -0.0006  0.0194 -0.0824
22225W        W40429   5.975   3.299   0.933 -0.1610  0.1630  0.1748
22226W        W40430   1.220  13.380  11.578  0.0493  0.2218  0.0463
22227W        W40431  13.435   4.783  15.268  0.2545  0.0255 -0.0681
22228W        W40432  17.705   8.596   3.153 -0.4345 -0.4805 -0.0841
22229W        W40433   0.182   8.263  16.036  0.0458  0.0990 -0.2119
22230W        W40434  15.703  11.531  15.328  0.1975 -0.1877 -0.0375
22231W        W40435   1.113  10.484  12.286 -0.3219  0.1069  0.2064
22232W        W40436  15.952  12.461  11.743 -0.0148  0.1118 -0.2623
22233W        W40437  11.258  17.700  14.666 -0.0300 -0.3101  0.0581
22234W        W40438   6.005   0.930   2.841 -0.1419  0.1642 -0.0397
22235W        W40439  14.077  17.216   3.945  0.2925  0.4064 -0.1150
22236W        W40440  16.572   7.287  15.658  0.0027 -0.0448  0.0297
22237W        W40441  17.449   2.835  14.745 -0.2128  0.1082 -0.1349
22238W        W40442  13.822   5.250   4.530 -0.1972  0.0137 -0.2345
22239W        W40443  11.333  13.754   3.429 -0.1417 -0.1003  0.0156
22240W        W40444   5.568   4.357   3.935 -0.0060 -0.2461 -0.1925
22241W        W40445   7.260  15.341   0.440 -0.4837  0.0378 -0.2748
22242W        W40446   7.488   7.686   5.234 -0.3198 -0.1096  0.0487
22243W        W40447   4.270   2.846   1.222 -0.1173  0.0176  0.0277
22244W        W40448  12.306  15.521  11.299  0.0427  0.0440  0.2084
22245W        W40449  12.096  14.093  14.193  0.2714 -0.1532  0.2040
22246W        W40450  12.696   3.906  12.243 -0.0533 -0.0962 -0.0857
22247W        W40451  13.756  13.865   3.214 -0.3252 -0.2390  0.1092
22248W        W40452  13.166   0.777  11.191 -0.0066 -0.1961 -0.1147
22249W        W40453  13.595   3.446  15.068  0.0808  0.2529 -0.1158
22250W        W40454   6.140   1.091  11.467 -0.1498  0.0526  0.0376
22251W        W40455  14.679   8.588   3.593  0.0523  0.0779 -0.4675
22252W        W40456  17.346   0.350   4.094  0.3003  0.3414 -0.1778
22253W        W40457  17.267   2.204   0.564  0.1038 -0.0404  0.1018
22254W        W40458  16.066   1.156   4.355 -0.4129 -0.0701 -0.1126
22255W        W40459   0.263   3.751   3.510  0.2376  0.1919  0.0192
22256W        W40460  10.205  15.625   3.948 -0.2568  0.2207  0.0097
22257W        W40461   8.603   5.712  12.489 -0.1637 -0.2161 -0.2227
22258W        W40462   2.444   2.446   3.957 -0.1455  0.1827  0.0645
22259W        W40463   2.902   7.616   3.267  0.0938 -0.0235  0.0118
22260W        W40464   2.140   6.628  14.239  0.0539 -0.2756 -0.6901
22261W        W40465  14.458   7.580  15.302 -0.2983  0.0351  0.2438
22262W        W40466  15.875   8.493   3.257  0.1478  0.1936 -0.4504
22263W        W40467   9.404  10.906  14.139 -0.2225  0.0179 -0.0240
22264W        W40468  17.893  10.489   4.221 -0.2975  0.1260 -0.1278
22265W        W40469   6.017  15.644  14.888 -0.2064 -0.0982 -0.0584
22266W        W40470  14.857   7.280  12.959  0.1277  0.3013 -0.0039
22267W        W40471  15.714   1.169  14.672  0.2546  0.0584 -0.0369
22268W        W40472  18.008   3.357   4.289  0.0714  0.4765 -0.0497
22269W        W40473  15.955   9.096   4.943 -0.1869  0.0292  0.3048
22270W        W40474   2.967  13.518   3.225 -0.0437  0.0369  0.1190
22271W        W40475   8.514   6.933   0.366 -0.1360  0.0113  0.0409
22272W        W40476   7.092  16.927   4.720 -0.1173  0.1584 -0.1369
22273W        W40477   6.621   5.916   0.812  0.0544 -0.2177  0.4635
22274W        W40478   6.290   7.661  14.776  0.0364 -0.1345 -0.2252
22275W        W40479  10.348  14.328  11.759 -0.1720 -0.3233 -0.2401
22276W        W40480   2.459  10.671   4.387  0.1344  0.1096 -0.0499
22277W        W40481   2.402   0.234   0.705  0.1753 -0.1606 -0.0100
22278W        W40482   5.892   9.980  14.840  0.1479 -0.0176 -0.0778
22279W        W40483   0.107   1.515   0.200 -0.0615  0.1094  0.3044
22280W        W40484  12.662   3.743   3.088  0.0947  0.1554 -0.2617
22281W        W40485  17.530  11.118  15.172  0.1686  0.1216 -0.0945
22282W        W40486   1.048  12.166   1.650  0.1779 -0.0777  0.1490
22283W        W40487  15.683   1.871   0.811  0.2227 -0.1093 -0.1510
22284W        W40488   7.877  10.931  12.419  0.2900 -0.1153 -0.1148
22285W        W40489  16.991  17.400   4.338 -0.3265  0.4080 -0.0035
22286W        W40490   5.507  15.552  14.315  0.1905 -0.2169 -0.3640
22287W        W40491  12.483   9.558   2.468 -0.0802 -0.0194  0.2030
22288W        W40492   2.275   0.677  15.017  0.3190 -0.3284  0.2090
22289W        W40493   1.500   4.243   3.527 -0.0420 -0.0684  0.1934
22290W        W40494   2.183  10.773  15.329 -0.1232 -0.2131  0.0550
22291W        W40495   7.029   0.182  11.117  0.0515  0.0988  0.0720
22292W        W40496  11.329  16.560   4.362 -0.1232  0.1789  0.4592
22293W        W40497   3.007  10.636   3.627 -0.1146  0.3133 -0.0547
22294W        W40498  15.288   6.327   4.669 -0.0962  0.3082 -0.0740
22295W        W40499  15.664  10.643   2.857  0.2654  0.1073  0.1390
22296W        W40500  17.579  15.492   1.130  0.1741 -0.2484 -0.0590
22297W        W40501  17.055   4.340   4.894 -0.0558  0.2681 -0.0702
22298W        W40502  13.583  14.925   3.566 -0.0329 -0.0567 -0.1509
22299W        W40503  14.978   8.275  13.869  0.0721  0.3236 -0.1309
22300W        W40504  17.535   1.821  11.615  0.1655  0.0576 -0.3812
22301W        W40505   3.196   4.696  11.546  0.1354  0.1486 -0.1141
22302W        W40506   6.401  14.071   4.019 -0.0268 -0.2051 -0.3117
22303W        W40507   0.867   4.662   0.040  0.2376  0.3092  0.0351
22304W        W40508   4.763  14.593  11.987 -0.0574 -0.0273  0.1699
22305W        W40509   5.922  17.940   4.615  0.1197 -0.1508  0.1226
22306W        W40510  15.830  12.013   4.261  0.0522  0.0681  0.0389
22307W        W40511  14.993   6.363  15.400  0.0787  0.1959 -0.0469
22308W        W40512   1.487   8.559   3.327  0.0627 -0.2624  0.0714
22309W        W40513   5.530  13.946   2.359  0.0837 -0.0491 -0.1067
22310W        W40514  16.692  10.805  11.449 -0.1643 -0.0490 -0.0438
22311W        W40515   0.743  12.205   4.538 -0.1730  0.0559 -0.1598
22312W        W40516  12.402  11.285  13.327  0.0844 -0.0143  0.0128
22313W        W40517   6.804   3.249  14.738 -0.0224 -0.0227  0.1473
22314W        W40518  12.734  16.410   3.501 -0.0224 -0.1856  0.0204
22315W        W40519  12.897   3.564   5.990 -0.0110 -0.2004  0.0753
22316W        W40520  12.612  14.735  15.903 -0.1525 -0.2389 -0.0218
22317W        W40521  12.350   6.827   5.069  0.2956 -0.0774 -0.2472
22318W        W40522   3.041  16.009  15.410  0.0646 -0.1454  0.2381
22319W        W40523   1.286   9.954  15.431 -0.0058 -0.0075 -0.2885
22320W        W40524  13.500   3.754   0.839 -0.1375 -0.1748 -0.1246
22321W        W40525  16.890  14.527  13.013 -0.2304 -0.0864  0.1802
22322W        W40526   4.864   6.427   4.591 -0.2398 -0.1743 -0.0672
22323W        W40527  11.344   1.996   2.313  0.0609 -0.0268  0.0023
22324W        W40528  17.726   3.358  14.706 -0.0921  0.0519  0.3377
22325W        W40529  16.718   2.748   2.012  0.1597  0.1375 -0.0537
22326W        W40530   4.258   4.846   0.005 -0.0046  0.2183  0.2518
22327W        W40531  15.914   2.151  12.485 -0.4424 -0.1260  0.2174
22328W        W40532   9.451   9.742   0.514  0.0509 -0.0887  0.2357
22329W        W40533   2.064  12.910  13.875  0.1721 -0.0711  0.2699
22330W        W40534  13.522  14.404  15.332  0.0511 -0.0063 -0.1340
22331W        W40535   2.083  11.771  12.352  0.1488 -0.0774  0.3567
22332W        W40536   3.446  15.091   3.076  0.1177 -0.0685  0.2906
22333W        W40537  17.621   5.648   2.918 -0.2266  0.0875  0.0392
22334W        W40538   0.020   1.928  14.484  0.0094 -0.2290  0.1068
22335W        W40539  11.658  14.476  14.969  0.2679  0.0241 -0.0830
22336W        W40540   9.155   9.953   4.289  0.1371 -0.1397  0.0527
22337W        W40541   3.877  12.408   2.160 -0.0843 -0.0702  0.2464
22338W        W40542   6.698  13.237   2.604 -0.0993 -0.0096  0.0230
22339W        W40543   1.664  13.913  15.631 -0.3270 -0.2630 -0.0024
22340W        W40544  10.089   2.160  14.395 -0.1358 -0.1048 -0.0687
22341W        W40545  16.888  14.634   4.049 -0.0086  0.0157 -0.1710
22342W        W40546  16.188   6.191   1.055  0.1154  0.0082 -0.2080
22343W        W40547  13.614   3.980  14.952  0.3974  0.0964  0.0715
22344W        W40548   7.166  14.093   2.906  0.1404 -0.0619  0.0968
22345W        W40549   0.115   6.022  12.460 -0.0509 -0.0721  0.2259
22346W        W40550   8.357  10.793  12.066 -0.1292 -0.3258 -0.1379
22347W        W40551   0.853  10.308  13.677  0.0166 -0.1035 -0.0619
22348W        W40552   4.951   7.251  11.986 -0.1044  0.0320 -0.1201
22349W        W40553  14.670   4.551  11.998 -0.2530 -0.2293  0.0704
22350W        W40554  14.080   2.711  13.499  0.4644 -0.0712 -0.1451
22351W        W40555  12.108  17.796   3.475 -0.1687 -0.0661  0.0570
22352W        W40556   1.735   4.336   2.948  0.1106 -0.0585 -0.0232
22353W        W40557  10.985   8.226   0.198 -0.1542 -0.5719  0.0083
22354W        W40558   7.133  17.685   1.147 -0.0982  0.1259 -0.1488
22355W        W40559  16.295  14.607  14.246 -0.1604  0.1637  0.2014
22356W        W40560   0.275  17.810  14.125 -0.1634 -0.1961 -0.0836
22357W        W40561   2.153   1.635  15.237  0.2421 -0.0141  0.2580
22358W        W40562   3.082  15.156   2.681 -0.0660  0.0735 -0.0213
22359W        W40563  16.854  17.180   2.967 -0.1758 -0.0019 -0.0083
22360W        W40564  11.569   6.037  15.696  0.0888  0.2751 -0.5276
22361W        W40565  12.930  17.282  16.175 -0.1756  0.1699  0.2159
22362W        W40566   6.565   8.683  14.283 -0.1127 -0.2359  0.0673
22363W        W40567   1.382  11.471   0.056  0.2361  0.2419 -0.2260
22364W        W40568   0.455   5.411  11.566  0.0579  0.3798 -0.0858
22365W        W40569   6.383   3.384  12.467  0.3440  0.2171  0.1013
22366W        W40570   7.260  10.840   1.785 -0.1039  0.0098 -0.1074
22367W        W40571   9.675   3.323   0.912 -0.1922  0.0180 -0.3283
22368W        W40572   0.174  13.560  14.748 -0.1410  0.1070  0.1430
22369W        W40573   9.263  17.159  11.378  0.1953  0.2515  0.1327
22370W        W40574  17.993   5.846  13.388 -0.3693 -0.1950  0.0094
22371W        W40575   1.882   4.814   5.126 -0.0360 -0.0323  0.1829
22372W        W40576   3.632  17.652   3.324 -0.1423 -0.1706  0.2780
22373W        W40577   8.528  15.410  15.454  0.0749  0.1133  0.3326
22374W        W40578  12.848   0.688  13.392 -0.1402 -0.0601  0.1220
22375W        W40579   8.296  10.282  11.915  0.2618 -0.0125 -0.0643
22376W        W40580  17.307  16.238  11.391  0.0704  0.0520 -0.1439
22377W        W40581  14.076  14.627  15.489 -0.1919 -0.1342 -0.1599
22378W        W40582  14.771  11.599  11.274  0.0989 -0.0927  0.1268
22379W        W40583  12.370  10.704  14.399  0.1453 -0.0523 -0.0101
22380W        W40584   4.340  14.253   1.143 -0.1695 -0.2625 -0.2015
22381W        W40585   8.251   6.439  13.808 -0.0100  0.0799 -0.4993
22382W        W40586  15.028   0.648   0.154  0.0691  0.1879  0.0803
22383W        W40587   0.283   3.851   0.592  0.0092  0.1285  0.0919
22384W        W40588  16.880  13.402   0.090  0.1652  0.3567  0.3199
22385W        W40589   6.044  16.861  13.844 -0.1195 -0.0395 -0.3153
22386W        W40590   7.277   1.933   2.770  0.2824  0.0112 -0.0738
22387W        W40591   1.588   0.887   0.030  0.0768  0.0623  0.3423
22388W        W40592  12.426  15.814   2.479 -0.1795 -0.0661 -0.1040
22389W        W40593   4.496  16.528   1.374 -0.1279 -0.0138 -0.1325
22390W        W40594   8.193  14.518  11.692  0.1084 -0.1370 -0.0660
22391W        W40595  17.946   8.714   3.562 -0.1276 -0.2727  0.1623
22392W        W40596   7.523   0.452  11.007  0.3461 -0.3086 -0.0134
22393W        W40597  11.161  11.049  12.169 -0.1999  0.1039 -0.3752
22394W        W40598  10.734   8.477   0.856  0.0084 -0.3441  0.1034
22395W        W40599  13.836  14.826  15.051 -0.4442  0.2220 -0.3036
22396W        W40600   5.898  13.374   3.621 -0.1593 -0.2285  0.1446
22397W        W40601  14.616   3.095  14.500  0.0826  0.0080 -0.1637
22398W        W40602   6.156   0.394  13.447 -0.0920  0.2733  0.0014
22399W        W40603   5.011  16.938  12.842 -0.2946  0.3354  0.1393
22400W        W40604   5.375  12.407  14.727 -0.4032  0.3088  0.1630
22401W        W40605  14.058  12.317  14.957  0.3584  0.2294 -0.1089
22402W        W40606   2.722   4.228  11.668  0.1944 -0.0377 -0.1218
22403W        W40607   0.275  12.305  15.184  0.2741  0.0009  0.0137
22404W        W40608  11.694   9.311   0.974 -0.2194  0.1921  0.2650
22405W        W40609  14.280   4.682  15.195 -0.0066 -0.0139  0.3008
22406W        W40610  17.702   0.703   4.143 -0.2665  0.2696 -0.1305
22407W        W40611   0.458  13.937   2.021 -0.2447  0.0688  0.1814
22408W        W40612   1.483   0.254   3.012 -0.2017  0.3457 -0.0482
22409W        W40613   2.348  13.406   0.105  0.0716  0.3284  0.2519
22410W        W40614  17.864   0.074   0.453 -0.5796  0.0834 -0.4007
22411W        W40615   7.573   2.800   2.699 -0.0537 -0.1746  0.2387
22412W        W40616   5.590   5.500   4.949  0.1393  0.0222 -0.0540
22413W        W40617   8.914   3.137   3.343 -0.2095  0.4170 -0.2308
22414W        W40618  16.679  14.194  15.863  0.0006  0.0822  0.2730
22415W        W40619   4.325   5.782  13.123 -0.1479  0.2196 -0.1064
22416W        W40620   1.385   3.428  15.471 -0.0565 -0.0215 -0.0259
22417W        W40621  14.189  12.613  13.055 -0.1721 -0.0619 -0.3046
22418W        W40622   9.516  16.787  14.349  0.1899  0.0467  0.3468
22419W        W40623   5.377  15.836  15.570 -0.2673 -0.1633  0.2097
22420W        W40624   5.304   6.938   3.907  0.0095 -0.1383 -0.1573
22421W        W40625  17.005   9.444  14.273  0.0200  0.1709 -0.0803
22422W        W40626  13.705  14.228  13.264  0.1190 -0.0638 -0.3824
22423W        W40627   6.710  17.829   2.559  0.1464  0.1907 -0.0947
22424W        W40628  11.421   4.376  16.109  0.0969  0.2541 -0.0660
22425W        W40629   5.042   6.822   0.985  0.1405 -0.0302 -0.1966
22426W        W40630  13.012   6.868   0.116 -0.1863  0.1177 -0.2723
22427W        W40631  11.210  16.955   2.122 -0.0334  0.0269 -0.0372
22428W        W40632  14.145   7.237   3.325  0.2457 -0.1389  0.3408
22429W        W40633  10.384  13.484  16.159  0.1448  0.1601 -0.0324
22430W        W40634  15.091   5.425   3.680 -0.0569 -0.3462 -0.4273
22431W        W40635   9.202   3.450  12.791  0.1666 -0.0535  0.0314
22432W        W40636   8.116   5.495   2.252 -0.0497 -0.2585 -0.1515
22433W        W40637   0.076  17.073   3.101 -0.1636 -0.2453  0.0626
22434W        W40638   2.291   8.964   1.360 -0.0384 -0.1337  0.1313
22435W        W40639   8.986  14.153  11.307 -0.0606  0.1220  0.0896
22436W        W40640   3.885   7.441   5.234 -0.1763  0.1176 -0.0709
22437W        W40641  17.082  16.908   3.636 -0.2109  0.0301 -0.0009
22438W        W40642  11.580   3.266  13.110  0.1768 -0.1757 -0.0771
22439W        W40643   6.853  10.471   0.757 -0.0289 -0.3082 -0.1276
22440W        W40644   4.468  17.941  14.953  0.1528 -0.0541  0.0402
22441W        W40645   1.130   4.791   0.470  0.2556  0.1228 -0.1329
22442W        W40646   2.391  16.183   3.024 -0.2266 -0.1923 -0.0998
22443W        W40647   0.537   7.794   0.553 -0.0949  0.3799  0.0107
22444W        W40648  16.175   4.280   1.726  0.2431  0.3235 -0.1301
22445W        W40649  17.635   4.085  12.175 -0.0291  0.1149 -0.0133
22446W        W40650   1.862   8.322   3.100 -0.1603 -0.0390 -0.3713
22447W        W40651  16.700   9.879  13.096  0.1829 -0.1571 -0.1687
22448W        W40652   4.213  12.095   3.847  0.2500 -0.1411 -0.0476
22449W        W40653   6.215  16.098  14.753  0.0358  0.3145  0.1073
22450W        W40654  12.027   9.331   2.494 -0.1366  0.0474 -0.0580
22451W        W40655  15.230   4.886   0.922  0.1638 -0.0876  0.2466
22452W        W40656   8.724  13.477   4.603  0.1546  0.2523  0.0538
22453W        W40657   6.899   5.335   4.530  0.0241 -0.1185 -0.0216
22454W        W40658  14.427  16.668  14.678  0.2815 -0.0017 -0.1640
22455W        W40659  10.626   5.278   4.172 -0.0612  0.0502 -0.1775
22456W        W40660  11.539  16.908   3.839  0.0261 -0.2330  0.0550
22457W        W40661  11.283  10.786  14.704  0.2747 -0.2174 -0.2780
22458W        W40662  17.355  15.328   2.819  0.0591  0.1402  0.2208
22459W        W40663   6.135   2.331  14.198 -0.1072  0.0596 -0.1806
22460W        W40664  14.850   4.708   2.926 -0.0044 -0.2873 -0.0133
22461W        W40665  10.965   7.802  11.978 -0.1403 -0.1714  0.4105
22462W        W40666   6.071  10.743  13.639 -0.0214 -0.1125 -0.0116
22463W        W40667  17.969   7.200  13.172 -0.3609 -0.0850  0.3147
22464W        W40668  12.414   6.115  15.897 -0.3943 -0.0152 -0.2311
22465W        W40669  14.925   8.475  13.056 -0.1951  0.2610 -0.1539
22466W        W40670   9.433  11.095   1.339  0.2050 -0.0751  0.0790
22467W        W40671  15.453   1.639  12.997 -0.0049 -0.1450 -0.2744
22468W        W40672   2.545   7.809  13.840 -0.3488 -0.0012 -0.0758
22469W        W40673   9.341  17.298  14.434 -0.2580  0.3136  0.1358
22470W        W40674  11.403   8.892   1.053  0.3442  0.1253 -0.1260
22471W        W40675  17.051  16.010   0.396  0.0010 -0.0555 -0.2538
22472W        W40676  13.329  10.566   1.955  0.1078 -0.0569  0.0274
22473W        W40677  13.021   5.540  14.667  0.0537  0.0796 -0.0406
22474W        W40678   2.415  10.047   3.815  0.1269 -0.1336  0.0070
22475W        W40679  14.245  12.863   3.412 -0.0668 -0.2019  0.3148
22476W        W40680   1.327  11.763   1.426  0.0336  0.2242  0.0753
22477W        W40681  15.621  13.047  11.989  0.3817  0.0101 -0.0201
22478W        W40682  13.957   8.010   2.087 -0.0362 -0.0365 -0.3446
22479W        W40683  12.124   9.704  12.595  0.0283  0.0757  0.0795
22480W        W40684   0.043   2.209  14.054 -0.3619 -0.0465  0.3296
22481W        W40685   7.437   6.919  13.311 -0.0235  0.2094 -0.2483
22482W        W40686   4.195   0.606  10.741  0.0282 -0.1215 -0.0183
22483W        W40687  13.572   5.131  15.555 -0.2431  0.0259 -0.1361
22484W        W40688   4.714  13.372   3.418 -0.2171  0.0996  0.1695
22485W        W40689   3.734   3.869   1.079  0.4389  0.1159  0.0259
22486W        W40690   1.294  14.283  16.060  0.1048 -0.0400 -0.0850
22487W        W40691   5.833   4.865   3.191 -0.1126 -0.0129 -0.1617
22488W        W40692   1.267  13.068  13.924  0.3206 -0.0825  0.1613
22489W        W40693  12.497  10.136  16.029 -0.4029  0.0584  0.1097
22490W        W40694   1.242   3.077   2.717  0.2288  0.2481  0.3842
22491W        W40695   6.020  11.368  11.707 -0.0910  0.1044  0.2409
22492W        W40696   1.494  16.055  14.435  0.3244 -0.0951  0.1661
22493W        W40697   1.544  10.501   2.191 -0.1513  0.2333 -0.2893
22494W        W40698   0.016  14.839  11.885 -0.4769  0.1048  0.2921
22495W        W40699   2.149  17.514  10.868 -0.0168 -0.0369 -0.1288
22496W        W40700  13.362  12.983   3.174 -0.2753  0.0053 -0.1029
22497W        W40701   7.901  10.927  14.969  0.3762  0.1374 -0.1627
22498W        W40702  11.567  15.521   0.834  0.0948 -0.1148 -0.0059
22499W        W40703   6.551   2.037   5.705 -0.0101 -0.1125 -0.3029
22500W        W40704   5.630   6.413  12.060  0.1805 -0.0460 -0.0680
22501W        W40705   2.944  13.165  13.822 -0.0478  0.1793  0.3659
22502W        W40706  11.437  15.688  15.970 -0.1409  0.3039  0.1136
22503W        W40707  13.582  16.364   4.087  0.0015 -0.1658  0.1521
22504W        W40708   9.816  13.881  13.741  0.2740 -0.0477 -0.1659
22505W        W40709   3.795   3.462  13.482 -0.1740  0.0917  0.2266
22506W        W40710  16.034   7.092  15.033  0.3309  0.0656  0.1982
22507W        W40711   8.898  10.124   2.891 -0.0965  0.1595  0.0549
22508W        W40712   7.796  10.093   3.729 -0.0361 -0.0168  0.0423
22509W        W40713  14.867  16.709  12.471  0.0880 -0.1109 -0.0173
22510W        W40714   8.016  14.507  13.525  0.1185 -0.2897  0.2263
22511W        W40715  16.593   8.025   4.240 -0.3143  0.1612 -0.0493
22512W        W40716   0.446   7.376   0.851 -0.0399 -0.3194  0.2212
22513W        W40717   3.695  17.371  13.809 -0.0477 -0.0974 -0.2470
22514W        W40718   9.647   6.254   1.694  0.4259  0.1351 -0.0552
22515W        W40719  17.731   3.709   1.382 -0.2264 -0.1301  0.2374
22516W        W40720   4.907  10.767  14.820 -0.0946 -0.0865 -0.0591
22517W        W40721   7.535   9.889   1.653  0.0221  0.3571 -0.0130
22518W        W40722   6.909   6.786  13.823  0.1376  0.3131  0.0510
22519W        W40723   6.594  11.092   1.310 -0.0834  0.1149  0.0022
22520W        W40724  17.600   9.901   2.447 -0.0483 -0.3609  0.1534
22521W        W40725   1.139   1.768  12.422 -0.0414 -0.0934  0.1480
22522W        W40726   7.737  15.372  13.676 -0.1274  0.1993  0.1041
22523W        W40727   7.021  12.387   0.091  0.1857 -0.2009  0.0805
22524W        W40728   8.587   2.400   3.455 -0.0935 -0.1467  0.0335
22525W        W40729   5.645   1.790  15.455  0.1033 -0.1064  0.1623
22526W        W40730   7.573   6.121   2.040  0.1225 -0.0830  0.1608
22527W        W40731   5.854   1.422   2.665  0.1769  0.1898 -0.0444
22528W        W40732   1.799   2.816  14.914  0.0958  0.0415 -0.1514
22529W        W40733   8.844  12.039  16.077 -0.3634  0.2152  0.1209
22530W        W40734  15.646   9.067  13.826 -0.0652 -0.0978 -0.2506
22531W        W40735   9.942   0.445  13.767 -0.0918  0.2901  0.1792
22532W        W40736   3.462   1.392  14.300  0.1197 -0.0583 -0.3992
22533W        W40737  11.466   0.026  12.801 -0.1609 -0.0589  0.0011
22534W        W40738  10.327  11.566  14.733 -0.0696 -0.1827 -0.0049
22535W        W40739   6.967   1.390   1.554  0.0983  0.2071  0.0397
22536W        W40740   9.095  10.966  13.664 -0.1874  0.0438 -0.0619
22537W        W40741  14.091   5.316   3.519 -0.0462 -0.2342  0.0355
22538W        W40742  14.722   1.370   1.705 -0.0629 -0.1578 -0.2674
22539W        W40743   6.238  10.498   4.799 -0.0698  0.2412 -0.0043
22540W        W40744   0.785   0.006   4.974 -0.3417 -0.2475 -0.1277
22541W        W40745  16.260  16.394  12.662 -0.3860 -0.1432 -0.2829
22542W        W40746   7.447   0.502  13.038 -0.2385 -0.0776 -0.3230
22543W        W40747   6.434   7.867   4.791  0.1483 -0.0419 -0.2102
22544W        W40748   7.320   4.049  14.427 -0.0668  0.0593 -0.1503
22545W        W40749   0.398   3.127  13.271 -0.0744  0.1851 -0.0198
22546W        W40750  12.137  17.829  16.111 -0.3748 -0.0696 -0.4058
22547W        W40751   3.572   7.412  14.223  0.0967  0.1691 -0.0518
22548W        W40752   5.403  17.256   0.291  0.1040  0.1329  0.0813
22549W        W40753   2.665   5.517   0.900 -0.0242  0.1828  0.4161
22550W        W40754  16.082   8.528   3.709 -0.0113  0.1278 -0.1470
22551W        W40755   9.531   6.070   3.780 -0.2411 -0.2622 -0.0483
22552W        W40756   5.217  16.249   2.338  0.3045  0.0225 -0.1853
22553W        W40757   8.212   9.504  10.791 -0.0917 -0.2513  0.1398
22554W        W40758   6.626   6.688  11.631  0.1413  0.1977 -0.3269
22555W        W40759  10.553   7.489  12.057 -0.2287  0.2250 -0.2222
22556W        W40760   1.024   1.133  13.824 -0.0305 -0.1209  0.1620
22557W        W40761   3.183   2.882   0.104  0.0056 -0.0113  0.2426
22558W        W40762  10.264  13.182   0.579 -0.2249  0.1336  0.2114
22559W        W40763   0.279  11.284  14.179 -0.2277  0.1274 -0.0280
22560W        W40764   4.298   2.465  16.109  0.0881  0.1149 -0.2620
22561W        W40765  15.799  13.352  14.598  0.0978 -0.2310  0.3743
22562W        W40766   6.778   7.487   2.648 -0.2147 -0.0648 -0.2811
22563W        W40767   7.062  13.777   0.304  0.0473 -0.0687  0.1886
22564W        W40768  11.036  15.017   0.452 -0.0248  0.3364 -0.1877
22565W        W40769   0.537  14.006  15.614 -0.1447 -0.3939 -0.2045
22566W        W40770   1.896   3.929   5.784  0.3427  0.0798 -0.4725
22567W        W40771   3.020  15.666  12.845 -0.1443 -0.2082 -0.1588
22568W        W40772   4.122  17.191  11.515 -0.0073 -0.1165  0.1082
22569W        W40773   8.125   7.182   1.322  0.0057  0.0993 -0.1152
22570W        W40774   5.667  15.149   2.562 -0.1463  0.2392 -0.0378
22571W        W40775  16.646  12.769  15.684  0.2254  0.1017  0.1317
22572W        W40776  17.805   7.898   5.191  0.0597  0.2220  0.0954
22573W        W40777  16.546  11.074   5.125  0.3455  0.1706  0.1367
22574W        W40778   4.412   6.994  15.687 -0.0262  0.4302  0.0797
22575W        W40779   1.876   4.173  11.396 -0.0277 -0.0747  0.1948
22576W        W40780  17.757   9.906  15.518  0.0447  0.1836  0.0945
22577W        W40781  16.939  13.414   4.002 -0.1271  0.0562  0.1892
22578W        W40782  17.991   3.263   1.494  0.1013  0.2678 -0.1572
22579W        W40783  17.589  17.313  14.578  0.0333 -0.2608 -0.0313
22580W        W40784  14.809  10.522   1.632 -0.2686  0.1166 -0.1157
22581W        W40785   0.038   8.021  13.152 -0.4838 -0.1246 -0.1957
22582W        W40786  16.032   6.582   0.389  0.0075 -0.0274 -0.2289
22583W        W40787  12.593   1.140  16.025  0.0306 -0.1127 -0.1055
22584W        W40788  11.161  11.024  12.823 -0.0673 -0.1027 -0.0183
22585W        W40789   0.615  11.155   4.129 -0.0409 -0.1163 -0.0743
22586W        W40790   4.004   8.327   2.292 -0.2678 -0.0664 -0.2437
22587W        W40791   0.553  17.712   1.084 -0.2641  0.1797  0.3019
22588W        W40792  16.907   5.730  13.709  0.3635 -0.1475 -0.3011
22589W        W40793   5.341   6.497   2.100  0.1383  0.4426 -0.0944
22590W        W40794  11.516   9.883  15.900  0.3279 -0.3087 -0.0185
22591W        W40795  10.357   1.715  11.766  0.1116  0.1518 -0.0854
22592W        W40796  17.953  17.418  15.328  0.2253 -0.3469  0.1732
22593W        W40797  10.925  10.247  15.982  0.0119 -0.0164  0.1396
22594W        W40798   5.971   4.387  13.406  0.1062 -0.0058 -0.0351
22595W        W40799  16.016  15.167   4.794  0.0775 -0.1483  0.2205
22596W        W40800   6.357  12.796   1.695 -0.0658 -0.1534 -0.1094
22597W        W40801  11.529   3.797   0.037 -0.0727  0.2126  0.2537
22598W        W40802  12.701   1.954  12.914  0.0971  0.1056  0.2770
22599W        W40803   9.936  12.748   2.015  0.2669  0.0227  0.3666
22600W        W40804  10.446  15.550   4.349 -0.3120 -0.0032 -0.3442
22601W        W40805  17.304  15.411   1.962 -0.0637 -0.4118 -0.4262
22602W        W40806  17.985  11.084  14.850  0.0933  0.3394  0.2292
22603W        W40807   0.999   1.075   4.090 -0.3195 -0.0277 -0.3287
22604W        W40808  12.308   9.015   2.166 -0.0363  0.0155 -0.1300
22605W        W40809  11.068  11.887   1.714  0.0976 -0.0202 -0.3529
22606W        W40810   7.382   9.220  13.391  0.1044  0.1214  0.1031
22607W        W40811   7.665   6.836   1.413  0.0061  0.0257  0.0623
22608W        W40812  10.861   9.356  12.257  0.2371  0.0336  0.3242
22609W        W40813  16.409  17.763  10.850  0.3452  0.0864  0.0955
22610W        W40814   8.749   3.179  12.719  0.0569 -0.0040  0.2560
22611W        W40815   1.296   4.826   3.538  0.2029 -0.1173 -0.0561
22612W        W40816  13.435   5.206   3.688 -0.3792  0.0804  0.1448
22613W        W40817   7.554  16.060   5.824  0.1055 -0.1255  0.1307
22614W        W40818   0.491   5.528  14.131  0.1624 -0.0053  0.0223
22615W        W40819   0.628   6.418   3.746  0.2760  0.1541 -0.1353
22616W        W40820   7.354  15.342   4.742  0.2692 -0.1621  0.0505
22617W        W40821  11.368   1.546   2.499  0.2012 -0.1364 -0.1443
22618W        W40822  14.085  12.067  16.004  0.2393  0.0203  0.2232
22619W        W40823   5.533  14.443  13.624  0.2401  0.0375 -0.0994
22620W        W40824   2.774  10.765   1.037 -0.0883 -0.2000 -0.0215
22621W        W40825   8.547  13.076   0.430 -0.0393 -0.3943 -0.3157
22622W        W40826   8.456   6.843   2.406 -0.2799  0.4159 -0.2768
22623W        W40827  17.925  10.132  14.576  0.3216  0.0422 -0.2464
22624W        W40828   3.477   4.702   4.062 -0.1079 -0.3158 -0.0063
22625W        W40829   3.420  10.330  10.713 -0.1099  0.1172  0.0694
22626W        W40830   9.954  16.891   4.223  0.0730 -0.0548 -0.1021
22627W        W40831   7.688  12.839   5.076  0.1519  0.2704  0.0502
22628W        W40832   9.838  17.475  12.102 -0.0916  0.0963 -0.2005
22629W        W40833   3.115  12.779  12.559  0.0104  0.2509 -0.1757
22630W        W40834   8.209   4.171  11.701 -0.2654 -0.3245  0.5300
22631W        W40835  17.792   6.259  12.135 -0.0901  0.0557  0.1519
22632W        W40836  10.890   9.344   4.826  0.1409  0.0789 -0.0198
22633W        W40837   4.112   9.256  13.163  0.1769 -0.0447 -0.0776
22634W        W40838   5.152  14.912   0.152  0.0530  0.0506 -0.0477
22635W        W40839  10.593   7.243  15.371 -0.0024 -0.0200  0.1587
22636W        W40840   4.452   7.747  14.181 -0.5186 -0.0269  0.0634
22637W        W40841   0.974  12.947   4.171  0.0116  0.0477  0.4669
22638W        W40842   8.335   6.560  15.656 -0.1819 -0.1480  0.0957
22639W        W40843   2.048   3.638   2.457  0.3714 -0.0661  0.1208
22640W        W40844  13.693  10.634  13.828 -0.2186  0.0227 -0.2111
22641W        W40845  10.917   9.813   2.142  0.1730 -0.1379  0.0516
22642W        W40846  13.397  15.618  12.704  0.0704 -0.0678 -0.0488
22643W        W40847  14.656  17.028  11.480  0.2211  0.1737  0.0863
22644W        W40848  13.162  12.506   4.536 -0.1967  0.1608 -0.0307
22645W        W40849  10.534   7.942   4.666  0.1020  0.1496 -0.1442
22646W        W40850   8.992   1.151   2.370 -0.3267  0.2243  0.3000
22647W        W40851   1.939   2.816  14.295 -0.1903 -0.0696  0.1379
22648W        W40852  15.778   6.812   4.857 -0.0637  0.2532 -0.2960
22649W        W40853  13.268   4.764   2.058 -0.2943 -0.2070  0.1169
22650W        W40854  17.341  16.997  13.672 -0.1553  0.1422 -0.4777
22651W        W40855  16.132   2.592  14.262 -0.2369  0.0195  0.0777
22652W        W40856   0.170  16.613  11.419  0.1097 -0.0834 -0.1439
22653W        W40857   9.778  16.970  12.137  0.2238 -0.0639 -0.1648
22654W        W40858  16.650  15.456   2.118  0.0693  0.2858  0.1408
22655W        W40859   9.941  15.197   3.946 -0.1578 -0.1109 -0.0532
22656W        W40860   0.540  15.230  15.241 -0.2264 -0.1436 -0.0983
22657W        W40861  14.892   3.350   0.718 -0.0567 -0.0689  0.0188
22658W        W40862   1.299  12.584   1.487  0.0731 -0.2499 -0.0084
22659W        W40863   9.294  14.812   0.452 -0.3960  0.2453  0.0320
22660W        W40864  14.514   2.709  16.051  0.0270  0.0641 -0.1556
22661W        W40865   4.713   3.294  12.114 -0.1959 -0.0035  0.0511
22662W        W40866   6.845   5.055   4.115  0.1424  0.2466  0.2019
22663W        W40867  12.095   0.314   2.849 -0.0487 -0.1557  0.0069
22664W        W40868   8.372  12.213   1.145  0.2123 -0.1914  0.0901
22665W        W40869   4.199  14.180  13.718 -0.0197  0.0155 -0.0634
22666W        W40870   8.658   4.911  14.262 -0.0993 -0.0748 -0.2240
22667W        W40871   1.326   8.773   1.281 -0.2373 -0.0362 -0.0749
22668W        W40872  12.337  10.190  14.664  0.3808 -0.1897  0.0279
22669W        W40873  17.681  10.405   0.166  0.0344 -0.2316 -0.1801
22670W        W40874   3.486   0.114   3.463  0.0840 -0.1283 -0.0001
22671W        W40875  10.055   5.366  14.863  0.4567  0.0670  0.2270
22672W        W40876  13.726  15.299   1.996 -0.0282  0.1368  0.3524
22673W        W40877   6.739  14.829   3.540  0.0093  0.1368 -0.0704
22674W        W40878  12.974  10.600   1.036  0.1675 -0.0374  0.0677
22675W        W40879   1.027   3.881  12.769 -0.1290 -0.1679  0.1793
22676W        W40880   3.882  16.588   4.796  0.0649  0.0127  0.2764
22677W        W40881   9.048   6.976   3.638 -0.0636  0.2088 -0.3249
22678W        W40882   1.618  12.549  11.708  0.2061  0.1099 -0.2691
22679W        W40883   5.265  15.702  12.719  0.2177 -0.0999 -0.2851
22680W        W40884   2.099  16.953   3.623 -0.3126  0.3126 -0.0231
22681W        W40885  14.067  14.037   4.788 -0.2947  0.1170  0.1782
22682W        W40886  11.009  11.029   3.655 -0.0420  0.1599  0.1931
22683W        W40887   8.022   3.935  14.136 -0.1333 -0.1417  0.0109
22684W        W40888   8.556   4.721  12.705  0.3195  0.1173 -0.1889
22685W        W40889   8.025  12.669  14.188 -0.2835 -0.0093 -0.2287
22686W        W40890  17.796  10.080  16.048 -0.2342 -0.1412  0.1170
22687W        W40891   5.020   2.631   2.333  0.0394 -0.2227 -0.0832
22688W        W40892  15.439   3.371  15.568  0.3393 -0.0333  0.0664
22689W        W40893  14.885  12.652  12.044 -0.1548  0.0965  0.0281
22690W        W40894   0.102   8.991  12.777 -0.2270  0.2599  0.2253
22691W        W40895   4.816   9.953   4.333 -0.0487 -0.0908 -0.2814
22692W        W40896   3.735  10.921  11.618  0.0843  0.0816  0.2962
22693W        W40897  11.750  14.567   0.646  0.1909 -0.0763 -0.0658
22694W        W40898  16.628  11.345  15.042 -0.0270 -0.0985  0.0776
22695W        W40899  11.207   3.886   3.150  0.1169  0.0850 -0.3289
22696W        W40900  11.750   7.804   1.664 -0.1678 -0.0485  0.0133
22697W        W40901  10.718   4.390  14.821 -0.1313  0.2096  0.0622
22698W        W40902   4.598   8.085  12.538  0.2218  0.1305 -0.0774
22699W        W40903  12.373  14.473   3.306 -0.1634 -0.2752 -0.2608
22700W        W40904   9.765  16.081  11.189  0.3045  0.2634  0.0189
22701W        W40905   4.568   2.790   2.189 -0.0409  0.0277 -0.0037
22702W        W40906   0.798  10.459  11.444  0.0918 -0.2446 -0.3088
22703W        W40907  15.097   8.201  12.644  0.1166  0.0414 -0.0069
22704W        W40908  10.026   1.639   2.736 -0.2385 -0.0987  0.3644
22705W        W40909   3.472   2.061   0.036 -0.0183  0.2858 -0.1026
22706W        W40910  17.599   7.058  11.694 -0.0039  0.0858 -0.2277
22707W        W40911   0.565  15.196   2.145 -0.0954  0.2755  0.0728
22708W        W40912  13.473   1.497  13.222 -0.2485  0.2513  0.1586
22709W        W40913   7.660   0.584   4.327  0.1474 -0.2805  0.0816
22710W        W40914   0.336   1.338  14.255 -0.3760  0.2278 -0.0136
22711W        W40915   9.083   6.915   4.604  0.1846 -0.3013  0.4188
22712W        W40916   7.118  15.891  15.429 -0.3069 -0.1347 -0.0722
22713W        W40917   3.172   4.099  13.934  0.1869 -0.4187 -0.0516
22714W        W40918  12.264  15.147  15.298  0.0340  0.1576  0.1795
22715W        W40919  17.208   4.854  15.368  0.1703  0.1394  0.1502
22716W        W40920   4.164  11.689   1.387  0.2518  0.3142 -0.1488
22717W        W40921   6.491   2.756   4.475 -0.1412  0.0670 -0.2072
22718W        W40922  15.606   3.940  13.002  0.4487  0.0677  0.0309
22719W        W40923   1.643  14.542   3.103 -0.1175 -0.1334  0.2360
22720W        W40924   9.761  10.828  10.787  0.0777  0.2450  0.3790
22721W        W40925  12.553  10.215   5.087  0.1476  0.0711  0.2485
22722W        W40926  10.270   2.351   2.488  0.0192 -0.0047  0.0653
22723W        W40927  10.542   6.103   3.801 -0.0950 -0.1024  0.0527
22724W        W40928   0.886   0.045  13.416  0.0640 -0.2029  0.0199
22725W        W40929  10.606   2.731   0.231 -0.1919  0.1481 -0.1115
22726W        W40930   2.586  12.211  13.576 -0.1232  0.2718 -0.0646
22727W        W40931   7.640   8.531   2.283  0.1754 -0.2391 -0.1080
22728W        W40932   0.775   2.801  15.444 -0.1398  0.0389  0.1052
22729W        W40933   2.001   9.404   3.328 -0.2537  0.0815  0.0283
22730W        W40934   1.667  13.217  11.375 -0.0118  0.1731 -0.1407
22731W        W40935   3.501  11.253  14.178  0.3013 -0.0167  0.3509
22732W        W40936   6.585   6.816   4.119 -0.1860 -0.2161  0.2580
22733W        W40937  17.152  14.471   4.785  0.1000  0.1421 -0.1321
22734W        W40938  17.477   5.596   5.347 -0.0209 -0.2534  0.2478
22735W        W40939  14.275  11.785   4.326  0.0057  0.1861 -0.2214
22736W        W40940   6.573   9.177  13.897 -0.0615  0.1569 -0.1143
22737W        W40941   3.799   0.029  14.852  0.0850 -0.1387 -0.1798
22738W        W40942   5.282   9.129   5.446  0.0492  0.0103  0.0338
22739W        W40943  10.606   2.002  14.276  0.0260  0.0299 -0.2623
22740W        W40944   8.076   9.582  14.156  0.2404 -0.1081 -0.1661
22741W        W40945  17.731  10.758   0.779  0.0949  0.0002 -0.2270
22742W        W40946   1.905   1.935   3.123 -0.0830 -0.0145  0.1823
22743W        W40947  17.076   7.657  14.346 -0.1440  0.0845  0.0542
22744W        W40948   7.123   7.189   1.243  0.0380  0.2190  0.0117
22745W        W40949   5.631  15.023  11.205 -0.0114  0.1739 -0.1589
22746W        W40950   0.881  13.678  15.376  0.2466  0.3113  0.0446
22747W        W40951   9.679  13.164  15.683 -0.0218  0.0195  0.4365
22748W        W40952   6.591   2.045  14.265  0.0183 -0.0355 -0.0372
22749W        W40953  10.597  15.282  15.695 -0.2933  0.1231  0.1993
22750W        W40954   6.317   9.790  15.016 -0.4068 -0.3748 -0.1560
22751W        W40955  11.427   0.989   1.285 -0.0494  0.0672  0.0462
22752W        W40956  10.144   2.208   4.231  0.1315 -0.1310 -0.2730
22753W        W40957   6.108  17.191   3.974  0.0339  0.0892  0.1120
22754W        W40958   9.440  13.372   2.273  0.0069  0.1056 -0.0494
22755W        W40959   4.628  12.216  14.270 -0.0554 -0.2395 -0.0499
22756W        W40960   4.984   2.812   3.683  0.0722 -0.1323  0.2623
22757W        W40961   9.399  12.246  11.295 -0.0742 -0.3899  0.1521
22758W        W40962  17.177   4.003  12.548  0.0327 -0.1412  0.0270
22759W        W40963  12.468  10.552  14.974 -0.0424  0.1161  0.2139
22760W        W40964  15.078   4.085  11.329  0.0032 -0.0349  0.0683
22761W        W40965   8.923   4.496   5.308 -0.0723 -0.1099  0.0472
22762W        W40966   6.188  11.291   4.157 -0.2415 -0.2159  0.1530
22763W        W40967  10.053   1.494   2.225  0.1239 -0.1457 -0.1343
22764W        W40968  11.923  16.968  11.108  0.2225  0.1863 -0.0027
22765W        W40969  16.591  14.927  14.040 -0.1718  0.0913  0.1544
22766W        W40970   9.131  12.906  12.326 -0.2431  0.4624 -0.2138
22767W        W40971   9.338   7.540  16.165  0.3826  0.0828 -0.0691
22768W        W40972  16.202   3.060   2.191  0.0626 -0.1201  0.2704
22769W        W40973   3.253   7.633   0.819  0.2775 -0.2667  0.0358
22770W        W40974  11.164   8.917   4.594  0.1601  0.2019 -0.3463
22771W        W40975  13.496   9.932  13.923 -0.0843  0.1942  0.0663
22772W        W40976  16.681   4.037   3.978 -0.3510 -0.1438  0.2105
22773W        W40977   8.261   0.365   4.597 -0.1603 -0.0067  0.0108
22774W        W40978   9.045  12.587  11.131  0.0732 -0.4335 -0.2326
22775W        W40979   2.683   7.214   0.264  0.1747  0.2190  0.2069
22776W        W40980  13.625  17.037   1.621 -0.2129  0.1202 -0.1807
22777W        W40981   9.742   7.960  11.572 -0.1073  0.0378  0.4017
22778W        W40982  13.520   0.500  13.439 -0.1083 -0.0473 -0.0508
22779W        W40983  10.913  12.293  15.640  0.0262 -0.1134  0.1302
22780W        W40984   6.901  13.153  14.778 -0.0915  0.1246 -0.1876
22781W        W40985   9.796   5.313  11.930  0.1977  0.1055 -0.0354
22782W        W40986   2.759  16.323  14.768  0.2310 -0.1513 -0.0206
22783W        W40987  12.764   0.417  12.583  0.2755  0.1555 -0.2302
22784W        W40988   3.039   6.663   1.062  0.0350  0.1400 -0.0172
22785W        W40989  11.247   0.386  11.802  0.3152  0.1964  0.0245
22786W        W40990  14.655   2.020   0.458 -0.1494  0.0583 -0.0475
22787W        W40991   6.666  15.591  16.079  0.0992 -0.1980  0.1679
22788W        W40992   2.420  16.267   1.898 -0.0758 -0.1827 -0.0290
22789W        W40993   1.016   7.740   4.927  0.1259  0.0511 -0.0193
22790W        W40994   2.602   1.788  15.902  0.0249  0.0177  0.3276
22791W        W40995   9.839   6.340  16.167 -0.0014  0.2243  0.4156
22792W        W40996   9.271  17.596  12.688 -0.2104 -0.0916 -0.1041
22793W        W40997  12.236   8.214  13.863 -0.1694  0.0202 -0.0879
22794W        W40998  13.822  12.916  13.227  0.2117  0.1004 -0.2996
22795W        W40999  16.380  17.147   0.022 -0.1229 -0.2555 -0.2903
22796W        W41000   2.060  10.855  11.636 -0.0335  0.1659  0.0962
22797W        W41001  14.878   5.946  15.160 -0.0354 -0.1721 -0.0550
22798W        W41002  11.238  15.235  16.163 -0.0112  0.4207 -0.0174
22799W        W41003   9.086   7.573   3.854  0.0432 -0.3403 -0.0937
22800W        W41004   1.348   5.393  11.590 -0.2679  0.0046  0.3287
22801W        W41005  11.873   4.713   1.437 -0.0112  0.1319 -0.0686
22802W        W41006  15.312   0.827  14.219 -0.0052 -0.0303 -0.2748
22803W        W41007   4.584  14.820   0.849 -0.1702  0.1144  0.2347
22804W        W41008   9.978   5.419   2.436  0.0672  0.0972  0.0770
22805W        W41009   6.643   6.582   4.536  0.1876 -0.2078  0.0737
22806W        W41010   7.485   3.687   2.364  0.0909  0.0324  0.1787
22807W        W41011  14.323   6.571   2.383  0.0349  0.0237  0.1507
22808W        W41012  14.424  13.308  15.317 -0.1094  0.1586  0.0581
22809W        W41013   9.282   5.841   0.804 -0.3032  0.1388  0.1902
22810W        W41014  17.679   1.777   4.921  0.2496  0.1261 -0.1185
22811W        W41015  10.953   1.556  14.998 -0.0301  0.4040  0.3695
22812W        W41016   0.395   9.448  12.956 -0.0708  0.5383 -0.3293
22813W        W41017   8.511  15.577  12.508 -0.1473  0.0502  0.0053
22814W        W41018   2.665   8.651   4.225  0.0245 -0.3634 -0.2824
22815W        W41019   4.674  17.065   2.646 -0.1280 -0.0158 -0.0366
22816W        W41020  16.789   3.779   0.539  0.1860 -0.1961 -0.0947
22817W        W41021   9.751   2.645   4.867  0.2957  0.2542  0.0821
22818W        W41022   5.193   3.062  14.402  0.0832 -0.0956 -0.1676
22819W        W41023   8.215   1.350   2.037 -0.1398 -0.0345 -0.1269
22820W        W41024  14.463   7.414   2.192 -0.0579 -0.0366  0.0569
22821W        W41025   8.376   0.883   2.003  0.0823  0.0528  0.0460
22822W        W41026  13.104   5.628  15.187 -0.0666 -0.2115  0.0877
22823W        W41027   9.116   1.185   0.408 -0.1388 -0.1301 -0.1030
22824W        W41028   1.431  17.319   0.564 -0.1508  0.0728  0.1679
22825W        W41029   0.923  13.343  12.096  0.2245  0.1700  0.1241
22826W        W41030  17.974  17.683   4.092  0.1576  0.0611  0.0213
22827W        W41031   8.930  16.999  12.012 -0.2450 -0.2721  0.0240
22828W        W41032  12.237  16.302  13.734  0.3377  0.2553  0.2093
22829W        W41033   0.553   1.761  14.551  0.1156  0.0416  0.0671
22830W        W41034  11.261  13.136   2.080  0.1099  0.1967 -0.0926
22831W        W41035  11.480   6.790  15.096  0.1448 -0.0335  0.2347
22832W        W41036   6.990   7.284  11.179  0.2063 -0.0375 -0.2152
22833W        W41037   7.162  10.157   4.321 -0.3831 -0.2470  0.1255
22834W        W41038  10.620  17.274   1.501  0.2468 -0.1219 -0.0813
22835W        W41039  16.686   8.598   4.189 -0.6039 -0.1183 -0.1106
22836W        W41040   2.858   6.864  12.391 -0.1147 -0.0474 -0.0293
22837W        W41041   8.920  17.878  12.999  0.0269  0.1251 -0.3815
22838W        W41042  12.065  13.564  13.108 -0.0226 -0.0650 -0.0662
22839W        W41043   0.244   7.703   1.190 -0.0069  0.1304  0.0633
22840W        W41044   9.687  13.609  12.602 -0.2654  0.0851 -0.0602
22841W        W41045  16.622  13.397   2.499 -0.1056  0.1552 -0.1078
22842W        W41046  17.768   6.857   3.541 -0.0746 -0.2207 -0.0624
22843W        W41047   3.766  14.279  12.021 -0.1114  0.0113  0.3160
22844W        W41048   9.320  14.831  13.935 -0.0839  0.0472 -0.1792
22845W        W41049  10.807   0.144   0.289  0.0114 -0.2674  0.1122
22846W        W41050   8.383  11.104  14.966  0.1334 -0.1243 -0.1747
22847W        W41051   3.620   0.654  13.855  0.1273 -0.0804  0.0302
22848W        W41052  12.906  17.536  11.188 -0.1852  0.3625  0.1190
22849W        W41053  16.681  16.207   3.345 -0.0463 -0.1196  0.2705
22850W        W41054   6.223   8.244  15.289 -0.0345  0.0697 -0.0552
22851W        W41055   6.115  11.927   0.191  0.1831 -0.0666  0.0313
22852W        W41056   4.795  16.219   1.089 -0.3206  0.0247 -0.0906
22853W        W41057   4.856  10.770   6.083 -0.1688  0.1137 -0.1377
22854W        W41058  16.394   5.049  16.129 -0.0224 -0.3233  0.2122
22855W        W41059   0.762  10.622  11.943 -0.1033  0.1837  0.2277
22856W        W41060  12.285   7.126  15.178 -0.1185  0.1076  0.2891
22857W        W41061  10.218   7.149   0.872 -0.2448  0.0070  0.0329
22858W        W41062   3.448   9.992   0.079 -0.2289 -0.1175  0.3255
22859W        W41063  12.358   8.714   0.097  0.0266 -0.0788 -0.1932
22860W        W41064  15.593  17.536   2.901 -0.3127  0.3727 -0.1161
22861W        W41065  12.269   5.552  11.778 -0.0219 -0.1121 -0.1120
22862W        W41066   8.016   0.675   0.455 -0.2250 -0.2660  0.0918
22863W        W41067  13.968  12.428  11.521 -0.1198 -0.1922 -0.0186
22864W        W41068   3.650   0.976   3.635  0.2242 -0.0202 -0.2057
22865W        W41069  15.827  17.762  12.399  0.0008  0.1354  0.1265
22866W        W41070  10.762  14.914  13.898 -0.2255 -0.2806 -0.0761
22867W        W41071   5.377  16.256  12.127  0.1720 -0.0994  0.2240
22868W        W41072  12.851  11.553  13.154 -0.0920 -0.4273 -0.0082
22869W        W41073   4.639  17.317  13.549  0.1889  0.2138  0.4400
22870W        W41074  16.546   9.879   3.621 -0.1398 -0.0736 -0.0214
22871W        W41075   8.073   1.262   1.190  0.1671 -0.4809  0.0728
22872W        W41076   0.290   9.325  11.446 -0.1783  0.0721  0.1650
22873W        W41077  13.256  17.899  11.420 -0.1545 -0.0259  0.1072
22874W        W41078  14.790  13.662   1.879  0.0471  0.0761  0.2051
22875W        W41079  13.607   9.902   0.737  0.0505 -0.0195 -0.1399
22876W        W41080  11.946   3.378   4.805  0.0913 -0.0600 -0.0368
22877W        W41081  16.763   3.957  11.211  0.1176 -0.3916 -0.4454
22878W        W41082   7.294   7.636   1.917  0.1197 -0.3128 -0.1589
22879W        W41083   0.162  12.538   1.443  0.0508  0.1241 -0.0815
22880W        W41084   7.577  14.804  12.257 -0.1494  0.1141  0.2411
22881W        W41085  15.239  12.191  12.101 -0.0827  0.0227 -0.1315
22882W        W41086   4.502  17.531  11.573  0.2048  0.1548 -0.1763
22883W        W41087  15.302   7.738   0.952  0.0708  0.3129  0.0873
22884W        W41088  10.359  17.028  14.866  0.1206 -0.2959  0.0065
22885W        W41089  11.486  13.736   0.146  0.1019  0.2251  0.0471
22886W        W41090  13.764  13.785   2.208 -0.3409  0.0358 -0.2123
22887W        W41091   9.376  14.005   2.334 -0.0434  0.4231  0.3101
22888W        W41092  13.071  17.862   0.200  0.0269  0.0480  0.0738
22889W        W41093  11.304  15.155   4.240 -0.0720 -0.1109  0.0464
22890W        W41094  14.008  16.976  14.280 -0.0825 -0.1109 -0.1915
22891W        W41095   6.383   4.512   1.127 -0.0525 -0.2127 -0.0014
22892W        W41096   1.090  13.943  11.452  0.2294  0.0015  0.4595
22893W        W41097  15.688   7.547  15.628 -0.1584 -0.0517 -0.0815
22894W        W41098  13.017   1.273  11.459  0.0551  0.0154  0.2026
22895W        W41099  14.917   4.193  14.449  0.1037 -0.1391  0.0903
22896W        W41100  15.068  16.100  15.954  0.3674  0.2618 -0.0341
22897W        W41101   7.781   4.926  12.302  0.2423  0.0196 -0.2102
22898W        W41102   7.022  17.125  13.713  0.0311  0.0567 -0.3958
22899W        W41103  12.347  15.781  15.040  0.0694 -0.6724 -0.1621
22900W        W41104  17.592   6.071   4.895  0.1722 -0.3601 -0.0258
22901W        W41105   4.264   6.068  14.680  0.1293  0.0102  0.0869
22902W        W41106  17.855  15.587  12.099  0.0356  0.1349  0.0725
22903W        W41107   1.794   0.807   0.481 -0.0426  0.0588  0.0020
22904W        W41108   3.269   0.758   2.957 -0.1212  0.0115 -0.2385
22905W        W41109  16.323   0.240  12.128 -0.1261  0.1490 -0.0806
22906W        W41110  12.474  17.755  14.163 -0.0206 -0.0001 -0.0612
22907W        W41111  15.305  10.349   2.735 -0.1415 -0.0832  0.1374
22908W        W41112  10.594  17.354   2.895 -0.1083 -0.2486  0.1706
22909W        W41113  15.844   4.332  14.343  0.0392 -0.0616 -0.0781
22910W        W41114  14.461  16.304   0.543  0.4376  0.3031  0.1158
22911W        W41115  12.244   2.070   4.128  0.1621  0.0226  0.1182
22912W        W41116  15.334  13.138   0.688  0.0213 -0.1713  0.0202
22913W        W41117   6.072   2.819  14.897  0.0171  0.2622 -0.0306
22914W        W41118  10.272  15.442   2.034  0.0429 -0.1891 -0.0301
22915W        W41119   0.274   3.493  12.903 -0.0025  0.1960  0.0451
22916W        W41120  17.298   4.508  11.458  0.0906  0.1355  0.2847
22917W        W41121   1.625   3.726  13.098  0.1102  0.1169  0.2497
22918W        W41122  12.860   5.790  13.492  0.0601 -0.1291 -0.1513
22919W        W41123  11.205  15.270  13.583 -0.0951  0.1482  0.1164
22920W        W41124  10.573   5.309   4.663 -0.0349 -0.1494 -0.0492
22921W        W41125   4.202  15.097   0.528 -0.0469  0.0949 -0.0568
22922W        W41126   3.824   1.197  11.505 -0.3387  0.0876  0.2221
22923W        W41127   8.601  15.606   0.262 -0.1377 -0.0664 -0.2151
22924W        W41128   2.029  11.800   4.425  0.0489 -0.0661 -0.1376
22925W        W41129  13.840   7.790  13.105  0.0420  0.0857 -0.0174
22926W        W41130   2.218  15.654   2.576 -0.0028  0.1098 -0.3740
22927W        W41131   1.483   1.863  15.000  0.0580 -0.0153  0.0050
22928W        W41132  13.663   1.593  11.498  0.2018  0.2012 -0.1792
22929W        W41133  12.263  11.700  14.046  0.1350  0.0524 -0.1039
22930W        W41134   5.402   0.229   3.981  0.2252  0.0055  0.1456
22931W        W41135   3.638   4.425   1.725  0.0850  0.4446 -0.0124
22932W        W41136   9.363  16.177  13.115 -0.3578  0.0919  0.2284
22933W        W41137   0.403   4.708  13.434 -0.2408  0.0754 -0.1228
22934W        W41138   6.677  10.209  12.944  0.1034 -0.0288  0.0169
22935W        W41139   0.596   9.887   1.075  0.3724 -0.3512  0.0729
22936W        W41140   5.287   0.901  15.427  0.1045 -0.1794 -0.0623
22937W        W41141  16.215   9.022  11.771  0.2782 -0.1732  0.0035
22938W        W41142   0.967   6.856   4.374 -0.2459 -0.2595 -0.0729
22939W        W41143   7.015   9.122  12.127  0.0580 -0.2135 -0.4191
22940W        W41144   4.405  10.548   1.813 -0.1733 -0.0314 -0.3538
22941W        W41145  13.339   5.445  11.532 -0.1044  0.2909 -0.0234
22942W        W41146   3.051   0.760   4.080 -0.0114 -0.1193 -0.0630
22943W        W41147   1.942  14.311   1.529 -0.2615 -0.0416  0.2391
22944W        W41148  17.942   3.132  13.007 -0.2864 -0.2970 -0.4132
22945W        W41149   9.561   3.415  11.990  0.0673  0.0594  0.2163
22946W        W41150   2.637  16.725   2.467 -0.1852 -0.2378  0.1234
22947W        W41151  17.302  17.492  14.924 -0.0291  0.1640 -0.0872
22948W        W41152   3.805   4.848  12.374 -0.1363 -0.0084 -0.1297
22949W        W41153  17.349  10.510   4.627 -0.0136  0.2845  0.0280
22950W        W41154  17.063   8.334  11.315 -0.0570 -0.0044 -0.2161
22951W        W41155  10.615   3.687   1.831 -0.2791  0.0306 -0.1392
22952W        W41156  10.538  12.579  14.947 -0.0698  0.1537  0.1214
22953W        W41157  13.133  16.145   0.676 -0.0688  0.2044 -0.0476
22954W        W41158   0.152   7.288   4.733 -0.3042  0.3186 -0.2144
22955W        W41159   7.608  16.579   3.514  0.1224  0.1915 -0.1161
22956W        W41160   8.045   6.455  12.801  0.1403  0.0591  0.0330
22957W        W41161   1.788  15.949   2.508 -0.0722  0.0044 -0.1744
22958W        W41162   3.459  13.293   0.870 -0.0269 -0.1987 -0.2590
22959W        W41163   3.930  14.719  15.833 -0.0947  0.0059 -0.3703
22960W        W41164  11.141  14.380   2.143 -0.0910 -0.1361  0.0088
22961W        W41165   1.540   4.828   1.685 -0.1652  0.3539  0.0163
22962W        W41166  16.501   1.685   4.951 -0.0443 -0.0508  0.0513
22963W        W41167   8.166   0.659   2.670  0.3623 -0.2591 -0.1511
22964W        W41168  16.175   2.589  13.439  0.1694  0.4298 -0.1795
22965W        W41169  14.666   0.522   4.145  0.0047 -0.0391 -0.3059
22966W        W41170   9.013   5.427  12.570 -0.0910  0.0925  0.0716
22967W        W41171  12.767   8.136   2.524  0.0404 -0.0939 -0.0128
22968W        W41172   2.167  17.921  14.681 -0.1801 -0.0067  0.0457
22969W        W41173   2.188   8.206  13.042  0.2796 -0.1148 -0.0642
22970W        W41174   3.523   2.991   2.893 -0.0779 -0.1052 -0.0927
22971W        W41175   1.875   5.421  13.589  0.1422  0.0086 -0.2402
22972W        W41176  11.502  17.868  11.764  0.3000  0.0505 -0.1592
22973W        W41177  14.224  11.219   0.776  0.1051  0.0316 -0.0752
22974W        W41178  14.092   1.950   2.663 -0.3164 -0.1874  0.3338
22975W        W41179   2.803   4.214   4.070  0.1766  0.1665 -0.0579
22976W        W41180   2.782  16.236   1.442 -0.1131 -0.1267 -0.1230
22977W        W41181   1.044   8.227   5.022 -0.0272  0.0176  0.1280
22978W        W41182   7.440  10.073   0.874 -0.1165 -0.0521 -0.0126
22979W        W41183   4.196   4.223  14.016  0.1180 -0.1888  0.1858
22980W        W41184  12.694  10.344   3.812  0.1252 -0.0195 -0.0997
22981W        W41185   1.218  17.159  15.054 -0.0331 -0.0775  0.0408
22982W        W41186  11.863   6.223   1.323 -0.1255  0.0411  0.1858
22983W        W41187  11.250  13.452   4.611 -0.0204 -0.1188 -0.1478
22984W        W41188  13.342   6.084   3.627  0.0777 -0.5230 -0.0777
22985W        W41189   5.887   2.924  13.004  0.0245 -0.2476  0.0004
22986W        W41190  17.238  15.357  12.817  0.1327  0.0028  0.0926
22987W        W41191   2.551   5.509  15.968 -0.2889 -0.1544  0.2723
22988W        W41192   0.368  16.135  14.284  0.3182  0.2057 -0.0095
22989W        W41193  12.795   3.914   4.656  0.1853 -0.0468 -0.2274
22990W        W41194  13.299   5.769  13.771 -0.0230  0.0492 -0.3636
22991W        W41195  13.485  15.354   3.828  0.2224  0.0007 -0.3596
22992W        W41196   5.702  16.278  15.629  0.1422 -0.0441  0.0523
22993W        W41197   6.253  11.142  12.950 -0.0518 -0.0240  0.2212
22994W        W41198   9.946  11.149  11.558  0.3598  0.2730  0.0622
22995W        W41199   9.871  14.326  15.517  0.0269 -0.6046  0.1268
22996W        W41200  11.108  16.454   0.714 -0.0736  0.0050  0.0938
22997W        W41201  14.234  11.854  12.742 -0.1914  0.3774  0.2638
22998W        W41202   2.505   9.825  15.176 -0.1361  0.1167 -0.1302
22999W        W41203   7.512   2.983   4.610  0.0522  0.1376 -0.1107
23000W        W41204   1.673  11.762   3.551 -0.0582 -0.0734  0.2880
23001W        W41205   1.180   8.803   2.994  0.2310  0.1281  0.4727
23002W        W41206  12.357  12.967   2.206 -0.1556 -0.2830 -0.0576
23003W        W41207   2.444   7.521  14.318  0.2036 -0.0410  0.2332
23004W        W41208   7.904   0.520  11.936 -0.0931 -0.1798 -0.0472
23005W        W41209  13.079   8.992   0.149 -0.2735 -0.1906  0.1716
23006W        W41210   8.639   0.290  14.752  0.1548 -0.0897 -0.0288
23007W        W41211   8.358  17.976  13.572 -0.1764 -0.1421  0.0725
23008W        W41212   2.705  13.752  16.021 -0.0370 -0.1330 -0.4004
23009W        W41213   1.740   8.124   4.125 -0.2453  0.0362  0.1162
23010W        W41214   3.884   3.764   0.584  0.0056 -0.4720  0.0532
23011W        W41215  11.774  11.890  13.985 -0.1127 -0.1145  0.2857
23012W        W41216   5.338  17.639  11.800  0.0223 -0.0383  0.1246
23013W        W41217  10.573  14.944   1.010  0.4981 -0.1089 -0.1029
23014W        W41218  17.673  10.154  13.150  0.2018 -0.0272 -0.2993
23015W        W41219  11.527   8.394   2.239 -0.0379 -0.2597 -0.1911
23016W        W41220   5.548   7.272  13.267 -0.0675 -0.0831 -0.2867
23017W        W41221   7.225   6.005  12.370 -0.1594 -0.0141 -0.2422
23018W        W41222   8.566  13.459  11.865 -0.1040  0.1081  0.0256
23019W        W41223   1.584  16.340  12.467 -0.0887 -0.0022  0.0628
23020W        W41224   1.298  11.761  15.836 -0.0589 -0.2592  0.0595
23021W        W41225  17.338   2.071   1.160  0.0865 -0.2063 -0.2086
23022W        W41226   7.221   8.094  13.759  0.0196  0.0100 -0.0472
23023W        W41227  17.218  15.685  14.729 -0.0442  0.0302  0.0883
23024W        W41228   7.541   6.207  14.999 -0.3255 -0.0592  0.1162
23025W        W41229   0.117   9.597   5.081 -0.0142  0.0350  0.0783
23026W        W41230   0.570   9.082  11.936  0.4004 -0.0912 -0.1308
23027W        W41231  16.462   4.268   4.629  0.2217  0.0659  0.0657
23028W        W41232   1.052   5.763   2.776  0.2284  0.4329  0.2199
23029W        W41233   0.315  15.634   5.425 -0.1352 -0.1913  0.0640
23030W        W41234   8.661  13.003  15.877  0.1111 -0.0712 -0.2379
23031W        W41235  11.213   6.785  11.778  0.1331  0.0950 -0.0279
23032W        W41236   1.242   1.447  14.886  0.0312 -0.1330  0.2909
23033W        W41237  13.565  17.983   1.105  0.2633 -0.0783  0.1781
23034W        W41238   0.945   5.577  13.981  0.1151  0.1824  0.1859
23035W        W41239   0.295  12.986  14.122  0.3170  0.2321 -0.2980
23036W        W41240   6.809  17.011  11.864  0.0562 -0.0874 -0.0587
23037W        W41241   0.288   2.745  15.800  0.1725  0.1073 -0.0258
23038W        W41242  14.788   0.168  14.061 -0.3907  0.3819 -0.1646
23039W        W41243   9.341   9.346  11.550 -0.0056  0.2303  0.3344
23040W        W41244   7.860   9.458   3.977 -0.0917 -0.0181  0.1409
23041W        W41245  10.829   7.013  11.588 -0.1199  0.0774  0.4547
23042W        W41246   7.276   6.002   2.760  0.0280 -0.3590  0.0181
23043W        W41247   3.281   0.412   4.394 -0.0688 -0.0919 -0.2965
23044W        W41248   7.973   6.244  11.666  0.1109  0.1186  0.2705
23045W        W41249   6.190   4.320  14.802  0.3083  0.1046  0.6400
23046W        W41250   0.721   0.166   1.665 -0.2237 -0.1485  0.0053
23047W        W41251   1.088  17.267   4.076  0.0212  0.3085 -0.1184
23048W        W41252  17.001   7.912   3.471  0.0528  0.0651  0.0718
23049W        W41253   3.353  14.158   4.171  0.0573 -0.0972 -0.2338
23050W        W41254   5.002  17.419  14.255 -0.0057 -0.0638  0.2523
23051W        W41255  13.467  15.858  12.252 -0.1589 -0.1331  0.1175
23052W        W41256  15.509   3.291  12.232 -0.1819  0.0273  0.2263
23053W        W41257   2.829   1.478  11.296  0.0261  0.0013 -0.1635
23054W        W41258  10.536   3.519  13.267  0.0601  0.2478  0.1600
23055W        W41259   0.876   7.808  13.918 -0.1272  0.0704 -0.2352
23056W        W41260  15.180   0.002   0.945  0.1063  0.0792  0.2106
23057W        W41261   3.251  14.412   1.939  0.0136 -0.2056 -0.2753
23058W        W41262  15.698  11.899   1.581 -0.1568  0.0156 -0.0769
23059W        W41263   6.758  16.694   0.117  0.0204  0.0376 -0.0490
23060W        W41264  16.292   7.669   5.103 -0.5215  0.2914  0.0440
23061W        W41265   3.094   0.419   3.317  0.3139  0.0131 -0.0189
23062W        W41266  12.463   4.140  11.770  0.0014  0.3943  0.0638
23063W        W41267  12.283  17.917  15.296  0.1595 -0.0339 -0.1391
23064W        W41268   2.438   3.469   0.042  0.0353  0.0057 -0.1060
23065W        W41269  10.584   4.830   2.352 -0.0680  0.1880  0.0511
23066W        W41270   7.809   6.596   2.922 -0.1130  0.1083 -0.0251
23067W        W41271  14.771   1.739   2.493 -0.3162 -0.0555  0.2377
23068W        W41272  10.423   4.463  13.300 -0.0305  0.3940 -0.1135
23069W        W41273   9.580   9.688  10.652  0.0533  0.0547  0.0658
23070W        W41274  16.369  17.345  11.153  0.0004  0.0622 -0.1417
23071W        W41275  10.561   7.966   0.012  0.0596 -0.1041 -0.1100
23072W        W41276   7.666  15.033  14.421 -0.0165 -0.2158  0.2777
23073W        W41277   0.644  17.245  12.132  0.0813 -0.1700 -0.0803
23074W        W41278  14.508   2.184   2.337  0.0153  0.2564  0.0938
23075W        W41279   6.991   6.146   5.199 -0.1465 -0.1038  0.0621
23076W        W41280  10.720   3.795   2.900 -0.0464  0.2140 -0.0320
23077W        W41281  14.208  13.680   3.110 -0.3936  0.0350  0.0890
23078W        W41282  15.279  15.019   5.525  0.0720  0.3100 -0.1522
23079W        W41283   8.426  13.377  14.755 -0.0488 -0.0761 -0.0232
23080W        W41284  15.238   9.795   5.029 -0.5591 -0.0036  0.1578
23081W        W41285  14.348  13.679  11.639 -0.1637 -0.1116  0.2927
23082W        W41286  16.539  11.265   3.396 -0.2139  0.1470  0.1276
23083W        W41287   8.227  12.795  14.877  0.2683  0.3331 -0.0549
23084W        W41288   0.466  10.450   0.113 -0.3160 -0.0523  0.0793
23085W        W41289  17.450  11.212   4.286  0.0407 -0.1543 -0.0163
23086W        W41290  14.251  16.589  10.843  0.1147 -0.0577 -0.1722
23087W        W41291  13.019   4.984  14.119  0.1810  0.0904  0.0056
23088W        W41292   3.889   4.281   0.875  0.0609 -0.1867  0.6840
23089W        W41293   5.072   0.029   1.763 -0.1916  0.0964 -0.3148
23090W        W41294   0.607   5.674   2.584 -0.1294  0.1835  0.0469
23091W        W41295   0.778   8.047   4.563 -0.1248 -0.0760  0.0045
23092W        W41296   3.650   8.844  14.663  0.0700 -0.0855 -0.2061
23093W        W41297   3.823  13.112  12.827  0.1181 -0.1001  0.1023
23094W        W41298   7.520  10.138  13.505 -0.0987  0.1005 -0.2215
23095W        W41299   7.137  11.279   4.985  0.2486  0.2613  0.0545
23096W        W41300   2.111  13.597   2.167  0.0160  0.0592 -0.0193
23097W        W41301   0.837   2.968   4.109 -0.0814  0.2114  0.2311
23098W        W41302  10.021   3.086  14.296 -0.1934 -0.3789 -0.0588
23099W        W41303  16.207   8.891   4.103 -0.0947 -0.0195  0.1758
23100W        W41304   8.296  15.156  12.785 -0.0475  0.4481 -0.0752
23101W        W41305  10.972  10.608  13.068  0.1039 -0.1377  0.4774
23102W        W41306  14.445   8.379  14.834  0.0563 -0.2190 -0.0278
23103W        W41307   7.392  10.633  13.624  0.3728  0.1781 -0.2056
23104W        W41308  14.259  17.022   1.016 -0.1785 -0.2239  0.0480
23105W        W41309  14.865   9.917  11.980  0.1602 -0.1592  0.2944
23106W        W41310  16.496   9.803  12.461 -0.0530 -0.3376 -0.1607
23107W        W41311   5.394   8.435   2.165 -0.1343  0.0819 -0.1412
23108W        W41312   6.110   7.125  14.975  0.0077 -0.1497  0.1768
23109W        W41313   7.707  11.029   0.165 -0.0398  0.0249 -0.1595
23110W        W41314  10.469   1.055   0.169 -0.1492  0.2684 -0.2631
23111W        W41315  10.296   0.693   6.068  0.0624 -0.0651 -0.1314
23112W        W41316   9.783   5.802   4.729 -0.0348 -0.2401  0.1410
23113W        W41317   2.249  16.027   3.510  0.0458  0.3110 -0.0908
23114W        W41318  17.408   8.008   0.343  0.0067 -0.2920 -0.0122
23115W        W41319   8.984   3.209   2.640 -0.0605 -0.1212  0.1494
23116W        W41320  15.148   2.096  15.388 -0.0187  0.0473 -0.1451
23117W        W41321  13.318   6.820   2.414  0.0489 -0.2054 -0.0030
23118W        W41322  11.561   3.523   2.342 -0.2018  0.0617 -0.2616
23119W        W41323   9.657  10.576  12.153 -0.2239 -0.0688 -0.1734
23120W        W41324   1.490  17.581   4.107  0.1151 -0.1817 -0.2620
23121W        W41325  15.900   3.505  11.174  0.1647  0.1022  0.0819
23122W        W41326   9.079   3.124   4.556 -0.0526  0.0298  0.1842
23123W        W41327   7.577   5.621   2.866  0.0892 -0.3793  0.0694
23124W        W41328   9.058   7.631  12.559 -0.3153  0.1511  0.1544
23125W        W41329   7.976   7.781   0.273 -0.1434  0.1329 -0.0196
23126W        W41330  12.086   0.851  16.098  0.1427  0.1340  0.1989
23127W        W41331   6.772  14.639  12.880 -0.0386 -0.1384  0.1655
23128W        W41332   9.218   0.202  14.635  0.4293  0.0055  0.0957
23129W        W41333   3.023  10.240  13.648 -0.3239 -0.0541 -0.0850
23130W        W41334   1.345   8.125   4.574 -0.2384  0.2895  0.1075
23131W        W41335  15.553  14.230  14.099  0.1157  0.0960  0.0632
23132W        W41336  14.846   5.457   0.640 -0.0502  0.1444  0.1017
23133W        W41337   5.004  14.559   4.178 -0.2836 -0.2959 -0.2770
23134W        W41338   6.366  13.603   2.810  0.1522  0.1023  0.0856
23135W        W41339  12.926   2.305  13.186 -0.1683 -0.0292 -0.2605
23136W        W41340  15.706  14.373   2.552  0.3041 -0.1802 -0.2131
23137W        W41341   2.388  14.829   0.754 -0.3752  0.0048 -0.2776
23138W        W41342  11.397   5.782   0.005 -0.1100 -0.1443 -0.2916
23139W        W41343  10.034   4.234  12.191  0.0958 -0.0392 -0.0729
23140W        W41344   5.136   6.399  12.176 -0.0487 -0.2346  0.3258
23141W        W41345  17.637  17.963  12.806  0.1109 -0.0971  0.0306
23142W        W41346  11.290  14.282  15.223  0.0751 -0.0704 -0.1911
23143W        W41347   7.487   0.648   1.915 -0.4148 -0.0084  0.1614
23144W        W41348   7.405   9.351   4.379  0.0724 -0.2769  0.1775
23145W        W41349  17.720  11.743   5.082  0.2879 -0.2446  0.0884
23146W        W41350  12.488  17.641   5.500  0.1702  0.0035  0.0100
23147W        W41351  10.054   7.101   3.879 -0.0978  0.1694 -0.0284
23148W        W41352  12.603  15.043  13.899  0.3360  0.2219  0.0135
23149W        W41353   2.453  17.743   0.560  0.2188  0.1930 -0.1285
23150W        W41354   1.433   6.740   3.655  0.1123  0.0729 -0.2949
23151W        W41355   1.580  15.979  15.086 -0.1390  0.0034  0.2014
23152W        W41356   6.866  15.150   0.128 -0.1817  0.1858  0.2217
23153W        W41357  16.516  11.226  15.526  0.2105 -0.0959 -0.1331
23154W        W41358   1.909   0.679  12.615 -0.0157 -0.1517  0.1481
23155W        W41359   9.567  10.977  11.895  0.0536 -0.0970  0.3916
23156W        W41360   6.972   8.490   5.078 -0.0279  0.0138  0.2289
23157W        W41361  15.733   4.644   1.812  0.0053  0.1168  0.0932
23158W        W41362   9.358   5.571   3.922  0.2073  0.1678  0.2236
23159W        W41363  13.501   6.922   4.505  0.0418  0.0599 -0.0129
23160W        W41364   1.244   2.762   3.858 -0.2139  0.4162  0.0005
23161W        W41365  13.158  11.106   3.106  0.0221 -0.0318  0.1484
23162W        W41366   6.403   3.772  11.468 -0.0900 -0.1720  0.0295
23163W        W41367   0.926  13.115  15.924 -0.0486 -0.3303  0.0942
23164W        W41368  13.434   9.337   1.883  0.0821 -0.2934 -0.0341
23165W        W41369  10.013   2.795  13.705 -0.3501  0.0371 -0.0501
23166W        W41370   0.418   6.327   4.682  0.0548  0.4409 -0.2689
23167W        W41371   0.117   0.727   3.962  0.1170  0.0112  0.2208
23168W        W41372  14.660  13.781   0.124  0.0465 -0.4559  0.2005
23169W        W41373  15.086  17.400   0.938 -0.0559  0.1600 -0.2979
23170W        W41374  10.666   9.467  14.359 -0.0414  0.0216  0.2509
23171W        W41375   4.801  12.344  14.805  0.0573  0.0136  0.0479
23172W        W41376  16.224   8.156  13.490  0.0498 -0.0593 -0.0150
23173W        W41377   9.485   2.075  15.184  0.1135  0.1272 -0.4726
23174W        W41378   5.112  17.274   4.659 -0.1178 -0.0299 -0.1291
23175W        W41379   4.214  15.974   0.452  0.3016  0.0804  0.1935
23176W        W41380   1.618  14.323   4.664 -0.1370 -0.2028  0.2178
23177W        W41381  15.604  14.284   3.078  0.0336 -0.0879 -0.1950
23178W        W41382   7.800   3.218   2.478 -0.2526 -0.0359  0.2790
23179W        W41383   9.471  13.972   3.214  0.1488  0.1823 -0.3120
23180W        W41384   4.018  12.540   2.661  0.4897  0.0207  0.1431
23181W        W41385   8.070   5.763   1.013 -0.2652 -0.1900 -0.0362
23182W        W41386  11.966   7.113   4.127  0.0017 -0.0850 -0.4412
23183W        W41387  10.967  13.605   2.488  0.0699  0.2953 -0.0441
23184W        W41388  17.300  10.760   5.943  0.0204 -0.1600 -0.0448
23185W        W41389   3.538   0.593   3.981  0.1323 -0.1739  0.1934
23186W        W41390   1.381   5.681  12.441  0.4543  0.0669  0.1778
23187W        W41391   8.691  15.621  12.049 -0.0789  0.1494 -0.0405
23188W        W41392  11.227   6.254   0.082  0.0323  0.3275  0.1634
23189W        W41393  13.239  17.453   0.492  0.1395 -0.0865 -0.0261
23190W        W41394   2.765   7.679   4.482  0.0481  0.0072  0.0344
23191W        W41395  16.030   8.617  11.576 -0.0135 -0.1433 -0.1363
23192W        W41396  14.378   5.732   2.147  0.0591 -0.1226 -0.1463
23193W        W41397  13.359  11.541   3.692 -0.0805  0.2219 -0.0113
23194W        W41398   9.203  15.993   3.376 -0.0591  0.1439 -0.1270
23195W        W41399   5.207  16.871  14.151  0.1722  0.1334 -0.0593
23196W        W41400   2.976  14.774   4.719  0.2608  0.0038  0.0662
23197W        W41401   3.654  16.106   0.529  0.0796  0.1372 -0.2228
23198W        W41402   6.815  14.902  15.041 -0.1556  0.0966 -0.1926
23199W        W41403   1.747   6.379  14.059 -0.0090 -0.1553  0.2046
23200W        W41404   1.845   1.668   2.666 -0.0494 -0.1350  0.0758
23201W        W41405  16.301   1.078   2.705  0.1796  0.1432 -0.1079
23202W        W41406  14.624  16.479   2.204  0.0799 -0.3612  0.1414
23203W        W41407  16.372   9.039  15.292  0.0532 -0.0930  0.0884
23204W        W41408   4.844   6.436   4.071 -0.0371 -0.1056  0.0094
23205W        W41409   5.669  11.207  16.063 -0.3094 -0.1453 -0.0109
23206W        W41410   4.317  15.408   3.007 -0.0313  0.0671  0.1343
23207W        W41411  12.674   4.505  12.557  0.1018  0.1289  0.0219
23208W        W41412  12.946  16.260  14.528  0.0882 -0.0192 -0.0015
23209W        W41413   1.521  14.052   1.275  0.0717  0.0526  0.0637
23210W        W41414   1.165   5.588   5.445  0.0291 -0.0680 -0.0734
23211W        W41415   9.600  14.404   2.010  0.1504  0.4278  0.1374
23212W        W41416   4.583  12.428   4.336 -0.3771  0.0899  0.0305
23213W        W41417  14.683   5.524   1.744 -0.0086 -0.1102 -0.0577
23214W        W41418  12.945   2.017   1.235 -0.1312 -0.1089 -0.1453
23215W        W41419   4.773  14.564  11.291 -0.0242  0.0628 -0.1052
23216W        W41420  12.477   3.348  15.832 -0.1752 -0.0231 -0.0944
23217W        W41421   9.382   3.460   1.784  0.1304 -0.0876 -0.0891
23218W        W41422  16.949   0.301   1.623 -0.0276  0.1854 -0.2276
23219W        W41423  13.637   6.125   0.046 -0.0017  0.0032 -0.0097
23220W        W41424  12.466   7.920  13.076 -0.2841 -0.0925  0.0194
23221W        W41425   8.646  14.704  12.690  0.0578  0.1020 -0.3146
23222W        W41426  17.022   6.400   3.790 -0.1152  0.3165 -0.2734
23223W        W41427   8.896   1.833  11.414  0.0011 -0.2248  0.1153
23224W        W41428   1.758  17.836  14.982  0.0202 -0.1301  0.0178
23225W        W41429   8.486  15.008   3.831 -0.0714 -0.1338  0.0887
23226W        W41430   1.061   4.207   4.418  0.1682  0.0119  0.0347
23227W        W41431   4.242   9.187   4.479  0.4793  0.0108 -0.0804
23228W        W41432   9.956  11.507  15.567  0.2994  0.4749 -0.1964
23229W        W41433  16.250   2.968  13.937  0.1230 -0.1485 -0.0343
23230W        W41434  17.098  14.770  11.753  0.0167 -0.2173 -0.0484
23231W        W41435  15.841   8.595   1.175 -0.1915 -0.2087 -0.2466
23232W        W41436   0.335   6.159  10.624 -0.1212 -0.0622  0.0950
23233W        W41437  12.164   7.704  11.717 -0.4070  0.2374  0.3895
23234W        W41438  10.231  12.886   3.795 -0.1608 -0.0919  0.2370
23235W        W41439   6.961   7.871   5.920  0.0198 -0.1425  0.1138
23236W        W41440  13.134  15.654  11.186  0.0726  0.1759  0.0797
23237W        W41441   4.017  16.576  15.029  0.0812  0.1889  0.0548
23238W        W41442   8.881  12.570  14.571 -0.0743  0.0888  0.1447
23239W        W41443  14.439   2.129   4.640 -0.1317 -0.1004 -0.0618
23240W        W41444  10.907   6.966   3.412  0.0028  0.2499  0.0969
23241W        W41445   8.862   8.084  11.241  0.0629 -0.0074 -0.1990
23242W        W41446   0.816   3.744   4.598  0.1964 -0.1994  0.0740
23243W        W41447   7.393  15.363   3.354 -0.2951 -0.1374  0.2969
23244W        W41448  17.356   8.166   2.078  0.2996  0.0990  0.3745
23245W        W41449  16.212   9.457  12.119 -0.1598  0.1165 -0.1539
23246W        W41450   8.346  14.516   4.608 -0.2711  0.3136  0.1708
23247W        W41451   1.210  11.655   5.040  0.0510 -0.0145  0.1377
23248W        W41452  13.923   4.609  15.588 -0.3063  0.0883  0.0576
23249W        W41453   2.146   6.195   4.471 -0.3806  0.3017  0.0090
23250W        W41454   3.285  16.502   2.895 -0.1822  0.1056 -0.0952
23251W        W41455  16.110  15.576   5.462 -0.0517 -0.0259 -0.0655
23252W        W41456  14.134  14.771  12.595 -0.2760  0.2849 -0.0819
23253W        W41457  15.637   2.395   0.495 -0.1828 -0.0080 -0.0276
23254W        W41458  14.975   6.345   3.540  0.1683 -0.1331  0.4274
23255W        W41459   8.013  12.266   0.812 -0.0074 -0.0653  0.1619
23256W        W41460   5.919   5.816  13.207  0.1580 -0.0547 -0.2415
23257W        W41461   9.282  15.413  15.791 -0.0360 -0.0095  0.0226
23258W        W41462  10.903   6.713  12.211 -0.0443  0.0324 -0.1555
23259W        W41463  12.429  12.344   5.509  0.1445 -0.2938 -0.2936
23260W        W41464   6.758   7.990   2.414  0.3329 -0.0507 -0.4608
23261W        W41465  10.249   3.645  11.584  0.1438  0.1391 -0.1437
23262W        W41466   7.552   7.543   3.297 -0.1079  0.1898  0.1937
23263W        W41467  13.118  12.432  13.200 -0.2381 -0.2570  0.3168
23264W        W41468   4.727  15.274  14.850 -0.0984 -0.0004 -0.1337
23265W        W41469   6.041   7.735   1.971  0.1511 -0.0669 -0.0155
23266W        W41470   1.904   3.945   2.114  0.1275  0.1818  0.0301
23267W        W41471   6.345   3.620   2.653  0.2132  0.1011 -0.1078
23268W        W41472  15.521  16.260  15.306 -0.2644 -0.0591 -0.1629
23269W        W41473   4.600  14.369   3.865 -0.1316 -0.0985  0.2243
23270W        W41474   8.253  13.872  13.816 -0.0008  0.1716 -0.2949
23271W        W41475   6.642   1.743   3.688 -0.2554  0.1117  0.1286
23272W        W41476  16.279  15.123  12.602  0.0273 -0.0332  0.4123
23273W        W41477  13.010   3.208  11.530  0.1028  0.0264 -0.0213
23274W        W41478  10.241   4.909   0.842 -0.3325  0.1226  0.1420
23275W        W41479   2.811   9.543  11.550 -0.1018 -0.0454 -0.0474
23276W        W41480   1.921  16.390  11.693  0.0571 -0.0785  0.2654
23277W        W41481   5.842  17.529  13.674 -0.1449 -0.0972 -0.1571
23278W        W41482  17.425  15.255  15.106 -0.1712 -0.0945 -0.5102
23279W        W41483   0.874   0.165   4.203 -0.2177  0.0640 -0.0113
23280W        W41484   7.281   0.925  13.296  0.2099 -0.2235 -0.2931
23281W        W41485  14.325  10.891   0.238  0.1577  0.1217  0.2583
23282W        W41486  17.493   6.587   2.090 -0.2967 -0.0819 -0.1521
23283W        W41487   2.660   3.332   2.851  0.0767  0.3098  0.1423
23284W        W41488   8.874   4.104   3.499 -0.2175  0.1424  0.0168
23285W        W41489   9.924  13.561  15.987 -0.1593  0.5252  0.1130
23286W        W41490   2.375   0.354  14.570  0.1180  0.3482  0.1590
23287W        W41491  11.387   8.781   2.724 -0.0454  0.0927 -0.2349
23288W        W41492  16.393  10.729   0.639  0.1581 -0.2904  0.0238
23289W        W41493  17.126  16.989  12.944  0.0076 -0.0999  0.0483
23290W        W41494   1.780   9.876   2.758 -0.2007 -0.1087 -0.0583
23291W        W41495  17.349   5.310   2.246  0.2581 -0.1590 -0.1467
23292W        W41496   9.030   9.413   0.583  0.1143  0.1041 -0.0656
23293W        W41497  16.346   3.107   0.415  0.2359 -0.2705  0.2207
23294W        W41498  12.849  15.327   2.028  0.0322  0.1324 -0.0129
23295W        W41499   0.390  10.929  16.150 -0.1791 -0.0123  0.1212
23296W        W41500   1.107   3.428  14.995 -0.2875 -0.0792  0.0190
23297W        W41501   0.105  11.038   4.939  0.0516 -0.1537 -0.2039
23298W        W41502  16.603  15.176  14.495 -0.0229  0.0238  0.0985
23299W        W41503   8.379   0.377  10.615 -0.0578 -0.0213 -0.0201
23300W        W41504   1.718   5.742   1.312 -0.1214 -0.2047 -0.1792
23301W        W41505   4.771  17.087  14.987  0.1149  0.3771  0.0886
23302W        W41506   7.949   8.024  13.146 -0.4125 -0.1478  0.0047
23303W        W41507   2.612   8.020  13.349  0.0410 -0.1673  0.2280
23304W        W41508  14.557   5.624  13.519 -0.0075  0.0560  0.1304
23305W        W41509  15.898  12.384   3.898 -0.0315 -0.3727 -0.0686
23306W        W41510   0.223   6.058  11.980  0.0706  0.0230  0.0902
23307W        W41511  17.614   0.790   2.834 -0.2058 -0.0833  0.2513
23308W        W41512   8.813   2.337   1.152 -0.1874  0.1757  0.0336
23309W        W41513  16.987  14.640  15.988 -0.2471 -0.2568 -0.1013
23310W        W41514  12.714  14.016   2.670 -0.0514 -0.0852  0.0567
23311W        W41515  10.376   7.074   3.422  0.0076  0.0976  0.0639
23312W        W41516   6.390  10.694  16.139 -0.3699  0.1944  0.0456
23313W        W41517   1.420  14.853  15.561  0.2410 -0.1846  0.1630
23314W        W41518  11.050  14.011  16.007 -0.1349  0.2800  0.0470
23315W        W41519   7.308   4.833  14.764  0.0052 -0.3050  0.3077
23316W        W41520   4.240  16.949  13.400 -0.3158  0.0886 -0.1365
23317W        W41521   2.618   8.687   2.468 -0.2118 -0.1332  0.1494
23318W        W41522   9.016   0.834  11.171  0.0386 -0.2670 -0.0856
23319W        W41523  17.069   1.600  11.545 -0.1458  0.0239  0.0657
23320W        W41524  11.392  12.922   3.063  0.0505 -0.0456 -0.3505
23321W        W41525   0.655   4.186  14.618  0.0606  0.0860  0.0155
23322W        W41526  18.022  12.281  13.848 -0.5327  0.3090  0.4154
23323W        W41527   9.229   3.468  15.256  0.2046 -0.2138 -0.0646
23324W        W41528  12.832   1.749  14.675  0.0150 -0.1609 -0.1832
23325W        W41529  11.665  15.236  12.104  0.0296 -0.1057  0.2585
23326W        W41530   9.266  13.053   2.813 -0.0651 -0.2262 -0.1367
23327W        W41531   0.237  14.371  14.589  0.2733 -0.2023 -0.1236
23328W        W41532   3.204   9.326  12.820 -0.1479 -0.5071  0.1803
23329W        W41533  15.746  15.366  12.869 -0.0224 -0.0085 -0.0707
23330W        W41534   9.934   4.140  12.730  0.0033  0.3336  0.0170
23331W        W41535  15.412   4.169  14.005  0.0039 -0.0124  0.0726
23332W        W41536  10.377  10.916   1.042 -0.2834 -0.2393  0.0486
23333W        W41537  15.558   7.322   2.906  0.1280 -0.0844 -0.0617
23334W        W41538   1.252   2.983  14.838 -0.0595 -0.1743 -0.2879
23335W        W41539  11.275  16.440   3.818  0.1196 -0.0735 -0.2560
23336W        W41540  10.453   2.612  13.446 -0.0072  0.2120  0.0807
23337W        W41541   9.465   1.731   1.103  0.0032  0.0245  0.0805
23338W        W41542   5.609   0.644  15.936 -0.0431  0.0436  0.3741
23339W        W41543   5.950  15.046  12.809 -0.1733 -0.1148  0.4166
23340W        W41544   4.315   4.028   2.238  0.0753 -0.1578  0.0332
23341W        W41545   8.041   2.281  11.551 -0.2009  0.1475  0.0831
23342W        W41546   5.543   4.368   1.788 -0.0829 -0.0590  0.0438
23343W        W41547   4.239   9.216  15.941  0.0631 -0.1141  0.0408
23344W        W41548   9.762   0.037  14.405  0.1126 -0.0983 -0.2173
23345W        W41549  11.956  14.102  12.340  0.1190  0.0714  0.1796
23346W        W41550   8.808   8.718  11.106  0.0232 -0.1356 -0.0882
23347W        W41551   6.077   0.034  11.941 -0.0381  0.0513 -0.0111
23348W        W41552  17.187  17.317   3.314 -0.1855 -0.0913  0.0133
23349W        W41553   7.532  17.252  12.763  0.0230 -0.0553  0.0282
23350W        W41554  12.909  10.758   3.398 -0.2313 -0.1328  0.1315
23351W        W41555   9.644   9.739  15.163 -0.2595 -0.2448  0.0906
23352W        W41556   2.543  15.121  14.186 -0.1073 -0.1377 -0.1779
23353W        W41557  15.748  14.825  15.230 -0.2013  0.0906  0.0835
23354W        W41558   1.062   8.511   0.872  0.3365  0.0409  0.0865
23355W        W41559   3.329  15.543  11.521  0.0635 -0.0682  0.0585
23356W        W41560  12.813   4.740  15.959  0.2215  0.2161 -0.1092
23357W        W41561  17.187   7.113   2.178 -0.1252  0.3039  0.0845
23358W        W41562   0.227   8.655   3.970  0.0116 -0.1013 -0.1034
23359W        W41563  15.187  10.723   1.421 -0.0232 -0.0350 -0.2800
23360W        W41564   1.898   4.635  13.512 -0.3502 -0.0282 -0.1694
23361W        W41565  15.916  17.465  15.971  0.1753 -0.0486  0.0124
23362W        W41566   1.373  11.594   3.198  0.0046  0.2954 -0.0266
23363W        W41567   4.441  16.165   4.206 -0.1577  0.1458 -0.2796
23364W        W41568  11.670   0.735  14.628 -0.1063 -0.0077 -0.3204
23365W        W41569   2.406  12.889   3.066  0.1663  0.1012 -0.0229
23366W        W41570   0.764   3.949   0.559 -0.1234 -0.0039  0.0680
23367W        W41571  10.367   4.588  11.834 -0.0123 -0.1855 -0.2136
23368W        W41572   6.805  12.108   2.000 -0.0047  0.0616 -0.0648
23369W        W41573   7.651   3.232   3.042  0.0152  0.0416 -0.0253
23370W        W41574   9.588  16.485   1.901 -0.0295 -0.1149 -0.0625
23371W        W41575   1.249   5.775  14.863 -0.3663  0.0198  0.0099
23372W        W41576   8.514  15.210  14.257 -0.1956  0.0618 -0.0864
23373W        W41577   0.971  14.587   0.589 -0.1442  0.0581  0.0399
23374W        W41578   9.666   9.921   4.004  0.1646  0.0081 -0.0045
23375W        W41579  14.522  10.670  12.163  0.1601 -0.1535  0.1043
23376W        W41580  16.971  11.052   4.274 -0.0812 -0.0647  0.1796
23377W        W41581   3.041   4.458   2.619  0.0467  0.0903 -0.1419
23378W        W41582  10.188  11.349   4.464 -0.0840  0.1688  0.1430
23379W        W41583  13.720   4.530   2.055  0.0435 -0.3631  0.0608
23380W        W41584   1.454   1.402   4.174  0.0413  0.0434 -0.1020
23381W        W41585   1.135  10.357  12.752  0.0072 -0.1237  0.0106
23382W        W41586  14.511   6.176  16.147 -0.0413  0.0456  0.1314
23383W        W41587   3.286   0.933   2.131 -0.3478 -0.1756 -0.2195
23384W        W41588   4.971  15.865   1.500  0.0256  0.2699 -0.2481
23385W        W41589   9.337   7.029  11.944 -0.1900 -0.0934 -0.0365
23386W        W41590  15.049   9.013   4.825  0.0204  0.2975 -0.0020
23387W        W41591  15.775  16.307  12.581 -0.2445  0.1081  0.3039
23388W        W41592   4.941   3.780  14.249  0.3069  0.0255  0.0555
23389W        W41593  12.608   1.261   2.272 -0.3245  0.0276  0.1038
23390W        W41594   0.768  12.556  12.062 -0.4041  0.1820  0.1047
23391W        W41595  10.625   5.719  12.401  0.1027  0.2108  0.0347
23392W        W41596   2.175   3.713   4.653 -0.1147  0.1693 -0.0236
23393W        W41597   9.493  11.243   2.944 -0.2143  0.0295 -0.0273
23394W        W41598  12.311   1.974   2.470  0.1131 -0.1899 -0.1708
23395W        W41599   0.957  17.369   1.319 -0.0744 -0.2988  0.0364
23396W        W41600  14.420  12.433   2.630 -0.1313  0.0598  0.1332
23397W        W41601  11.963  16.413  10.839  0.0021  0.0479  0.0786
23398W        W41602  16.042  12.467   4.418 -0.0378 -0.2079  0.1839
23399W        W41603  12.522   2.247  15.946  0.0973  0.0529 -0.0768
23400W        W41604   8.315  11.420  15.808  0.1077  0.1405  0.1134
23401W        W41605   0.957   3.133  11.614 -0.0016  0.1771 -0.1472
23402W        W41606  11.343   0.719   1.747 -0.2519 -0.2058  0.2999
23403W        W41607   4.933  10.853  12.379 -0.2911 -0.2555 -0.0936
23404W        W41608  15.837  12.991  13.214  0.1211  0.0613  0.1301
23405W        W41609   1.065   0.875  15.724  0.0166  0.1027 -0.0457
23406W        W41610  12.269  12.253   0.921  0.2224 -0.1265  0.2218
23407W        W41611  10.116   6.769   2.164 -0.0044 -0.5416 -0.0812
23408W        W41612  15.840  11.732  11.625  0.4477 -0.0883  0.1923
23409W        W41613  13.488   2.967  13.205 -0.1175 -0.1056 -0.1946
23410W        W41614   4.518   5.835   4.645  0.0387 -0.3267 -0.0561
23411W        W41615   2.083  15.410   4.026 -0.0415 -0.1905 -0.4478
23412W        W41616   1.552   4.287   4.500  0.1471  0.2003 -0.1640
23413W        W41617  15.828   3.422   3.118 -0.0778  0.1936 -0.1546
23414W        W41618   9.276  10.538  12.663 -0.2997  0.2528  0.1518
23415W        W41619  11.151  13.996  13.878  0.1868 -0.0445 -0.0367
23416W        W41620  14.362   7.613  12.945  0.3449  0.2453 -0.1912
23417W        W41621  14.448   2.729   5.942 -0.0658  0.3649 -0.0173
23418W        W41622  17.190  15.899   4.502  0.0465  0.1149  0.2213
23419W        W41623  14.609   7.697  11.533 -0.2991 -0.1638  0.0376
23420W        W41624  15.782  15.615   4.944 -0.0139 -0.0799 -0.2838
23421W        W41625  11.574  17.048   0.809  0.1488  0.1980  0.2717
23422W        W41626  10.164  12.488  11.078 -0.2126  0.2098  0.1750
23423W        W41627  11.977   6.683  14.991  0.0524  0.0544  0.0127
23424W        W41628  16.210  14.090  16.127 -0.0393  0.0753  0.1303
23425W        W41629  10.845   2.846  15.331  0.4139 -0.0216 -0.2685
23426W        W41630   8.684   0.222   0.695 -0.1412 -0.1524 -0.1407
23427W        W41631   1.699  11.594  12.041 -0.0315 -0.1235 -0.0643
23428W        W41632   7.586  16.422  11.552  0.0988  0.1063  0.1025
23429W        W41633   8.762   1.446  16.171 -0.0169  0.1254 -0.1146
23430W        W41634   4.520   8.653  16.125  0.0908 -0.1045  0.3000
23431W        W41635   2.128   3.748  13.256  0.0861 -0.0307 -0.1090
23432W        W41636   7.145   6.789   1.507 -0.2530 -0.0818  0.2392
23433W        W41637  12.345   1.225  15.170  0.0548 -0.0906 -0.0012
23434W        W41638   3.173   2.045   0.736 -0.0325 -0.1027 -0.2808
23435W        W41639  14.296   7.939  13.359 -0.0981  0.2265  0.0523
23436W        W41640  15.311   5.799  15.968  0.0433 -0.1210  0.0737
23437W        W41641   0.508   4.443  11.733 -0.1023 -0.2243 -0.0153
23438W        W41642  10.387   7.321   2.496  0.0959 -0.1566  0.0311
23439W        W41643  10.856   5.874   3.246 -0.0882 -0.0457  0.0373
23440W        W41644   2.988  10.510  11.492 -0.0030  0.2411 -0.3303
23441W        W41645   4.201   1.213   3.889 -0.0968  0.1380  0.2666
23442W        W41646  17.845   1.822   1.083  0.2774 -0.1475  0.0299
23443W        W41647  12.838   5.683   3.391  0.1457  0.1182  0.3926
23444W        W41648   9.903   2.279   2.183 -0.0863  0.0488  0.0874
23445W        W41649   7.259   0.909  14.410  0.0654  0.0361 -0.1145
23446W        W41650   3.663   1.815  10.541 -0.0820 -0.0966  0.2852
23447W        W41651   6.814   4.044   1.215  0.2134 -0.3003 -0.1384
23448W        W41652   6.779   0.918  15.215 -0.2747 -0.2250 -0.0387
23449W        W41653   8.553   7.391  14.605 -0.2021  0.2870 -0.1498
23450W        W41654  17.179   1.481   0.504  0.1191  0.3476  0.0947
23451W        W41655   6.100   8.593  14.401  0.0813  0.0108 -0.0359
23452W        W41656   7.914   8.029   1.606 -0.1529  0.1007 -0.1688
23453W        W41657   8.237  14.072  14.311  0.1902  0.0425  0.0472
23454W        W41658   6.391   2.949  13.407  0.1954 -0.1097  0.1995
23455W        W41659  13.062   4.252  12.703 -0.1143  0.0584  0.0387
23456W        W41660   3.190   6.750   0.412 -0.2244  0.0326 -0.1300
23457W        W41661  16.899  16.015  14.485 -0.1194  0.1069 -0.2480
23458W        W41662  13.759   1.876   4.841  0.2793 -0.0247 -0.0297
23459W        W41663  13.970   8.542  13.750 -0.4606 -0.0912 -0.0699
23460W        W41664  11.987   3.810   2.434  0.1692 -0.1077 -0.2952
23461W        W41665   2.337   3.954  12.427 -0.0119  0.2722 -0.1757
23462W        W41666   6.887   5.554  14.951 -0.2208 -0.1841  0.0124
23463W        W41667   6.731  17.123  15.335 -0.0017 -0.1992 -0.4340
23464W        W41668  12.734  16.105   1.046 -0.2183 -0.0831 -0.2756
23465W        W41669   1.985  17.628  15.679 -0.1329  0.1124  0.2833
23466W        W41670  16.203  11.050  12.232 -0.0890  0.0880  0.0052
23467W        W41671   2.873  13.985  15.617 -0.1092  0.0361 -0.2300
23468W        W41672   4.594   5.766   2.321  0.1801 -0.3419 -0.1146
23469W        W41673   3.413  10.428  11.749 -0.1244  0.1949  0.0454
23470W        W41674   7.913   2.752  11.770  0.1188  0.2339 -0.1304
23471W        W41675   4.178   8.885  15.392  0.0761  0.0243 -0.1392
23472W        W41676   8.897   5.356   0.033 -0.3013  0.0998  0.2259
23473W        W41677   0.597  11.958   3.565 -0.1050 -0.2871  0.3133
23474W        W41678   9.405  14.855   1.809 -0.2601  0.3087 -0.2622
23475W        W41679  17.130  12.922   3.634 -0.0394  0.2600  0.1487
23476W        W41680  10.880  12.859   1.013 -0.4463 -0.1420 -0.3073
23477W        W41681   6.472  17.176  14.805 -0.1985  0.1700  0.0731
23478W        W41682  14.504   7.705   5.078 -0.0179  0.0696 -0.0492
23479W        W41683   8.051   9.249   3.194 -0.1041  0.0773  0.2638
23480W        W41684   5.521  17.074  14.693 -0.2523  0.2843 -0.1634
23481W        W41685  15.648  13.657  15.411 -0.0218 -0.2788  0.1661
23482W        W41686   1.666  16.423   0.350  0.2485 -0.1790  0.0058
23483W        W41687   2.973   3.921  15.438 -0.1563 -0.1910 -0.2448
23484W        W41688   9.816   2.859   0.816  0.0348 -0.1514 -0.2104
23485W        W41689   2.924  17.192  16.014 -0.3724  0.0223  0.2260
23486W        W41690   6.084  12.156  15.198  0.0828 -0.1034 -0.0110
23487W        W41691  13.954   5.019   1.150 -0.0483 -0.0876  0.0805
23488W        W41692   7.984   2.018   0.764  0.1028  0.0340  0.1710
23489W        W41693  16.861   8.161   0.086 -0.1409 -0.1125  0.1481
23490W        W41694  17.892   4.229   0.664 -0.1255 -0.0376  0.2035
23491W        W41695   6.655  10.904  11.959 -0.0694 -0.0619 -0.0412
23492W        W41696  11.025   3.350   4.960 -0.0044  0.3992  0.0665
23493W        W41697   6.151  14.783   6.028  0.3331 -0.0793 -0.2030
23494W        W41698   1.598   2.275   1.157 -0.0215  0.2443  0.0712
23495W        W41699   3.437   2.002   4.085  0.1933 -0.2610  0.1410
23496W        W41700   6.888   9.280  13.474  0.0698 -0.1415 -0.0905
23497W        W41701   8.044  16.154  14.712 -0.2349  0.0033  0.4012
23498W        W41702   6.846  18.030  13.727 -0.2906  0.3116 -0.3555
23499W        W41703   2.648  12.287   0.873 -0.1109 -0.1350 -0.2752
23500W        W41704  12.357   0.130   0.591 -0.0002 -0.1010  0.0798
23501W        W41705   3.373  17.366   2.925 -0.0206  0.2530 -0.1635
23502W        W41706   7.277  14.376  14.264  0.1731  0.1709 -0.2085
23503W        W41707   7.578   7.090   2.991 -0.3850  0.2576 -0.1237
23504W        W41708   2.112   3.066  16.062  0.0838 -0.2253 -0.0579
23505W        W41709   6.655   3.673  14.455 -0.1566  0.1961 -0.0043
23506W        W41710  16.081  16.047   2.709 -0.2262 -0.0370 -0.0477
23507W        W41711  10.874   7.121   2.549  0.2736  0.4579  0.0198
23508W        W41712  16.411   4.065  11.699 -0.0201  0.1734 -0.1217
23509W        W41713   7.169   8.104  12.756 -0.0103  0.0988  0.0365
23510W        W41714   5.772   8.867  14.632  0.1037 -0.0891 -0.0677
23511W        W41715   2.453   1.259   4.563  0.0545  0.1161  0.2853
23512W        W41716  16.966   4.047  15.273  0.0147  0.0646  0.0917
23513W        W41717   2.841   4.655  11.922 -0.0161  0.2046 -0.1101
23514W        W41718   2.204   0.142  13.188 -0.1961  0.0976 -0.2867
23515W        W41719   7.758  17.507   2.186  0.1702  0.0299 -0.0253
23516W        W41720   9.605   0.826  11.510 -0.0880  0.2377 -0.2719
23517W        W41721   7.579  12.152  13.260 -0.0265 -0.0493 -0.1832
23518W        W41722   5.058   0.305  11.225 -0.0669 -0.1806 -0.0307
23519W        W41723  12.694  13.798   1.244  0.1599 -0.1804 -0.3868
23520W        W41724   2.962   0.707  15.670  0.1110 -0.2973  0.1428
23521W        W41725  17.314   3.575  14.433 -0.2542  0.2699  0.2960
23522W        W41726  10.714  16.795   1.497  0.4117  0.2273 -0.4018
23523W        W41727   7.205  12.188  14.199 -0.1682  0.2684  0.2115
23524W        W41728   2.687   5.227  15.390 -0.1397  0.0166 -0.1199
23525W        W41729   2.684   1.281  12.621  0.2712 -0.3000  0.0261
23526W        W41730   4.458  17.023   0.736 -0.0391 -0.0680  0.2734
23527W        W41731  15.130   3.763  13.517  0.2683 -0.1724  0.1429
23528W        W41732   7.071   1.848   3.890  0.1786  0.0094  0.1516
23529W        W41733  12.740   8.799   1.527 -0.3019 -0.3903  0.1334
23530W        W41734   8.230  12.201  10.668  0.3670  0.1811 -0.0106
23531W        W41735   2.021   7.817  11.848 -0.0323  0.0560 -0.1064
23532W        W41736  18.031  12.268   0.956 -0.0042 -0.2840  0.1484
23533W        W41737  11.007   0.347   0.803 -0.2226 -0.0342 -0.0447
23534W        W41738   6.354   8.873  12.856  0.2581 -0.1084  0.1243
23535W        W41739  15.325   5.638   1.585  0.4265  0.1676 -0.1539
23536W        W41740   5.377  12.845  11.516  0.0979 -0.1892 -0.1281
23537W        W41741   8.000  11.285   4.667  0.0907 -0.0856 -0.1172
23538W        W41742   8.875   2.881   2.298 -0.0749 -0.0144  0.1341
23539W        W41743  13.749  17.305  13.598  0.0241 -0.3139 -0.2860
23540W        W41744   1.362  15.046  11.837  0.2209 -0.0884  0.1307
23541W        W41745   6.248  17.806   2.874 -0.0057  0.1925 -0.0348
23542W        W41746  10.318   5.873   2.077 -0.1587 -0.0315  0.3931
23543W        W41747   4.435  15.545   0.740  0.0268  0.0011 -0.1938
23544W        W41748   7.572   7.633  15.711 -0.0233  0.0428  0.1273
23545W        W41749  17.146  11.625  13.985 -0.0556 -0.2658  0.0204
23546W        W41750   5.777  10.153  11.760 -0.1624  0.1860 -0.2683
23547W        W41751   3.550  14.708  12.190 -0.1346 -0.0205 -0.1440
23548W        W41752  16.271  10.901  13.313  0.4485  0.1410  0.0657
23549W        W41753   0.239   9.791  15.345 -0.2802 -0.0329  0.2126
23550W        W41754   4.003   0.276  10.440  0.3676  0.1507  0.1940
23551W        W41755  11.707   8.186  10.965  0.2136 -0.0657 -0.0708
23552W        W41756  13.785   6.610   0.918  0.0376  0.0738 -0.1143
23553W        W41757   2.469  10.536  11.641 -0.0458 -0.1248 -0.1379
23554W        W41758   7.933  11.916  14.622  0.0482  0.0259  0.1141
23555W        W41759   3.799   0.461  15.483  0.1401 -0.0521  0.0308
23556W        W41760   1.941  11.305  11.591  0.0573 -0.1088  0.2571
23557W        W41761   5.940  11.357  15.592  0.1253  0.2623 -0.1490
23558W        W41762  13.139   9.745  15.722  0.2237 -0.0018  0.3391
23559W        W41763  10.789  10.861   2.665 -0.1426  0.0802  0.1870
23560W        W41764   0.224   0.901  11.353 -0.2386  0.0711  0.3261
23561W        W41765  16.252  11.119   0.381  0.5929  0.0650 -0.1573
23562W        W41766   2.894  10.402   5.403 -0.0602 -0.1776 -0.2471
23563W        W41767   5.054  11.113   4.761  0.1453 -0.1852  0.2453
23564W        W41768   2.668   9.981   2.965 -0.1458 -0.0877  0.0761
23565W        W41769   9.335   4.055  11.945 -0.1331 -0.1843  0.0616
23566W        W41770   2.218  15.215   2.348  0.2643  0.2550  0.1962
23567W        W41771   2.846  15.234   0.557 -0.0359 -0.0493 -0.0887
23568W        W41772   4.942  13.085   4.307 -0.1688 -0.0883  0.0144
23569W        W41773  12.266  12.685   1.423 -0.3125  0.0989  0.2978
23570W        W41774   4.426   2.033   2.734 -0.2318 -0.2255 -0.0728
23571W        W41775   5.206  15.461  14.793 -0.1617  0.2531 -0.1252
23572W        W41776   4.714   6.606   2.817  0.0284 -0.1983  0.2258
23573W        W41777   8.454  14.188  11.383  0.0896 -0.3411  0.2986
23574W        W41778   3.607  15.905  12.028 -0.0202 -0.0593 -0.0434
23575W        W41779   5.429  13.766   0.281  0.0036 -0.1425  0.0562
23576W        W41780  13.061   3.475   3.359  0.0224 -0.2552  0.3084
23577W        W41781   7.570  10.315   2.050 -0.1810 -0.0155 -0.2443
23578W        W41782  11.285   5.769  14.870 -0.0050 -0.3330  0.0824
23579W        W41783  15.411  13.454  11.736 -0.1399 -0.2746  0.0249
23580W        W41784   6.971  15.571  13.392 -0.1475  0.0116  0.0534
23581W        W41785   3.434   1.330   1.742  0.1204  0.2218  0.0276
23582W        W41786  12.935  16.598   0.656  0.0058  0.1111  0.1245
23583W        W41787  16.660  12.763   1.034 -0.0316  0.1991 -0.1985
23584W        W41788  11.606   6.181   3.698 -0.0111 -0.1838  0.2232
23585W        W41789  12.145   1.232  11.996 -0.0890  0.2135 -0.0941
23586W        W41790   3.791  13.379  11.864 -0.1342 -0.1665  0.3226
23587W        W41791   7.678   8.970   1.970  0.0352  0.1453  0.1975
23588W        W41792  17.286   4.965  12.042 -0.0434 -0.2293 -0.1462
23589W        W41793   3.855  10.752  13.485  0.1351 -0.1592 -0.3876
23590W        W41794  15.897   3.617  12.212 -0.1882  0.1744  0.0706
23591W        W41795  15.325   7.687  15.301  0.1825 -0.0657  0.5185
23592W        W41796   6.873   9.013   3.781 -0.4997  0.1133  0.2055
23593W        W41797  14.308   5.774   3.529  0.0846 -0.1625 -0.1488
23594W        W41798   0.421   5.146  10.522  0.2009  0.0473  0.0030
23595W        W41799   3.105  14.789  14.915  0.1106  0.0276 -0.1227
23596W        W41800   7.266   9.034   1.692 -0.0741  0.0242  0.2966
23597W        W41801   0.362  17.626  14.636  0.3490  0.3033 -0.0453
23598W        W41802   4.485   8.027   2.259  0.1977 -0.0713  0.1220
23599W        W41803   1.176  16.438  14.535  0.2215  0.0668 -0.0615
23600W        W41804  11.612  12.813   1.635 -0.0169  0.0352 -0.0507
23601W        W41805  15.446  12.415   4.106 -0.0864  0.0718 -0.0322
23602W        W41806  18.031   2.045   3.730 -0.2841  0.1487  0.1725
23603W        W41807  11.456  13.975  15.719 -0.0402 -0.3048 -0.1625
23604W        W41808  12.966   1.479   1.710  0.0078 -0.1051 -0.0989
23605W        W41809   4.394  12.963  14.215  0.1306  0.1079 -0.0318
23606W        W41810   0.006   2.624  13.205  0.0112  0.0748  0.0925
23607W        W41811  12.115  15.785   2.949 -0.3325  0.0491 -0.2108
23608W        W41812  16.941   2.425  14.216 -0.1920  0.0008  0.1313
23609W        W41813  11.955   6.716  13.137 -0.0597  0.3282  0.0907
23610W        W41814   2.946   4.988  14.316  0.1352  0.4203  0.0400
23611W        W41815  15.732  12.876   0.873 -0.0578  0.0841  0.0585
23612W        W41816  15.448  12.554  15.241  0.0465 -0.2025  0.0684
23613W        W41817   6.883   7.205   3.952  0.1292  0.2934 -0.0797
23614W        W41818   8.392   0.176   2.770 -0.0210 -0.3123  0.3515
23615W        W41819   9.202   1.811  13.072  0.4798  0.2700 -0.0136
23616W        W41820   1.845   8.169   3.589  0.1915  0.0252 -0.3349
23617W        W41821  10.331  13.315  15.191  0.0389  0.4166  0.2674
23618W        W41822   8.641  16.284   1.467  0.0857 -0.2521  0.2508
23619W        W41823   5.768  10.418  12.806  0.0291  0.0581  0.2057
23620W        W41824   0.680   3.586   3.730 -0.0779  0.0389  0.0275
23621W        W41825   2.855   3.790  12.484  0.1851 -0.1335  0.0738
23622W        W41826   5.117   2.967  11.484  0.1346 -0.1241 -0.0404
23623W        W41827   3.790  15.403  14.554 -0.2020 -0.1080 -0.0129
23624W        W41828  17.071   3.046  13.608  0.2329  0.0980 -0.3862
23625W        W41829  12.654   0.828   4.114 -0.0858 -0.0204 -0.2611
23626W        W41830  17.665  16.592  11.533  0.0257 -0.1888 -0.3230
23627W        W41831  17.727   9.801   4.827 -0.0196  0.0967  0.2953
23628W        W41832  16.397   5.771   1.260 -0.2167 -0.1535 -0.0841
23629W        W41833  10.921   5.622   2.709  0.1417  0.2532 -0.0037
23630W        W41834   3.364  10.817   2.891  0.3058  0.3396  0.0126
23631W        W41835   0.564   7.179   0.374  0.1610 -0.1925  0.1403
23632W        W41836   9.032   1.464   2.770  0.0410 -0.0091 -0.0385
23633W        W41837  15.863  14.715  11.852  0.2381  0.0975 -0.2784
23634W        W41838   1.897  10.343  15.480 -0.1854 -0.1595 -0.1826
23635W        W41839  15.658   8.811   2.655  0.3720  0.2563  0.3156
23636W        W41840   7.556   1.647  10.504 -0.0312  0.0284 -0.0416
23637W        W41841   0.238  17.828   2.242  0.2036 -0.2022  0.2766
23638W        W41842   5.968  13.019  13.013 -0.2446  0.2042 -0.2147
23639W        W41843   2.754  11.006   0.446  0.1496  0.1134  0.0757
23640W        W41844   7.376  14.349   2.336  0.2125 -0.2478 -0.0879
23641W        W41845  12.726  14.198  14.319 -0.5706  0.0995 -0.0644
23642W        W41846  15.070  15.408  11.279  0.1160  0.2508  0.1350
23643W        W41847   2.080  14.788   3.174 -0.3271  0.2575  0.1313
23644W        W41848   3.619   0.793   0.157 -0.1843  0.2425  0.0875
23645W        W41849  17.886  11.611   0.867  0.0500 -0.2834  0.1227
23646W        W41850   3.221   7.805  14.399  0.0801  0.2060 -0.0023
23647W        W41851  15.120   6.379   2.011 -0.2094 -0.4455  0.1391
23648W        W41852  13.945   7.824  12.063  0.1056  0.0908  0.2879
23649W        W41853   2.333   9.630  12.556  0.2163 -0.2332 -0.2648
23650W        W41854  14.858   2.292   1.373  0.1859 -0.0033  0.0526
23651W        W41855  14.611   2.447  14.354 -0.3288 -0.0902 -0.2183
23652W        W41856  14.864  10.602   4.911 -0.3931  0.1792  0.0288
23653W        W41857   5.692   7.429  15.002  0.0578 -0.0818  0.0043
23654W        W41858  11.619   0.047   4.122  0.0974  0.0755 -0.0483
23655W        W41859   6.388  13.449   0.291  0.1324 -0.2859  0.0642
23656W        W41860  11.216   8.313  11.054  0.1538  0.2609  0.0482
23657W        W41861   4.442  17.123  11.873  0.2850  0.1544 -0.0922
23658W        W41862   5.940   5.912   5.489 -0.1396 -0.0728 -0.2454
23659W        W41863   5.295   8.462  12.623 -0.1184 -0.1575 -0.0356
23660W        W41864  13.294  15.960  14.825 -0.0078  0.2554  0.1553
23661W        W41865   0.836  15.297   4.767  0.2113 -0.1169  0.0733
23662W        W41866  15.063   9.958   0.102  0.2040 -0.0472 -0.0591
23663W        W41867   7.394  16.128  10.869 -0.1086 -0.0658 -0.0371
23664W        W41868  13.465   1.505   3.797 -0.1733  0.1961  0.0734
23665W        W41869   4.553   1.654   5.502  0.1353  0.2232  0.2025
23666W        W41870   4.172  17.974   3.609  0.0125  0.1609 -0.2761
23667W        W41871  10.407   5.360   2.101 -0.0465 -0.2097  0.2125
23668W        W41872  15.851  12.305   2.571 -0.0398  0.2667 -0.1114
23669W        W41873  10.360   6.385  15.843  0.1981 -0.2976  0.1764
23670W        W41874  13.211   9.392  16.121  0.0814 -0.1083  0.1768
23671W        W41875  15.038  12.349  12.991 -0.0937  0.1211 -0.0495
23672W        W41876  10.518  11.758  13.719 -0.1499 -0.1597  0.1650
23673W        W41877  17.223   1.040  15.019  0.2058  0.0962 -0.1719
23674W        W41878  10.230   3.536  15.025  0.0339  0.0013  0.2454
23675W        W41879  11.821   3.569  12.224 -0.1223  0.3782 -0.0402
23676W        W41880  11.091   4.429   3.299  0.3596 -0.1948 -0.0105
23677W        W41881   3.826   2.066  13.092 -0.0013 -0.1914  0.2104
23678W        W41882  13.476  11.400  11.784 -0.2510  0.3425 -0.5987
23679W        W41883   0.769  17.339  14.762  0.0545 -0.1018 -0.0967
23680W        W41884  10.957   7.515  12.433 -0.1279 -0.1252  0.0852
23681W        W41885   2.762   9.548  12.834  0.0533 -0.0631 -0.0640
23682W        W41886  10.179  15.122   3.491 -0.0441  0.1222 -0.1680
23683W        W41887  16.394   3.367  12.867 -0.1409  0.1726  0.2400
23684W        W41888   6.943  15.984   1.265  0.1001 -0.1992  0.3163
23685W        W41889  15.310   7.763  12.213  0.0507 -0.1674  0.0710
23686W        W41890   4.840  14.132   4.218  0.1099 -0.1393  0.1422
23687W        W41891   4.922  12.209   3.397 -0.1741 -0.2946  0.2570
23688W        W41892   3.379   1.882  12.904 -0.2376  0.2516  0.1427
23689W        W41893  10.557   4.655   0.520  0.2726  0.0971 -0.1889
23690W        W41894  12.616   8.803   3.060  0.2694  0.2119  0.0440
23691W        W41895   0.637  14.812   1.797 -0.0091  0.3183 -0.1136
23692W        W41896  13.044  10.705   3.943 -0.0703  0.0726 -0.0207
23693W        W41897  10.482  15.328  14.531 -0.1248  0.0159  0.0232
23694W        W41898  11.881  15.547  15.078 -0.3132 -0.1263  0.2767
23695W        W41899  11.167  13.039   4.939 -0.0270 -0.2096  0.0310
23696W        W41900   0.279   7.139  14.042  0.1502  0.1883  0.1690
23697W        W41901   2.361  16.902   1.061  0.1581 -0.2581 -0.1003
23698W        W41902  16.458  17.447  15.743  0.0528 -0.1759 -0.2222
23699W        W41903  14.921  13.436  14.189  0.1660  0.1941 -0.0529
23700W        W41904  12.294   9.872   3.780 -0.3080  0.1618  0.1338
23701W        W41905   8.859   2.602  15.454 -0.0127 -0.1902 -0.2160
23702W        W41906  13.638   6.818  15.343 -0.1147 -0.1376  0.0440
23703W        W41907   2.398   7.879   1.431 -0.1009 -0.0793 -0.3317
23704W        W41908  14.758  15.960   1.997  0.1720  0.0670  0.0375
23705W        W41909   8.870   6.003   1.826  0.1662  0.0371  0.0464
23706W        W41910   4.655  13.936   1.349 -0.2693  0.1500 -0.0002
23707W        W41911   9.151   0.260   3.226 -0.0115 -0.1272 -0.4101
23708W        W41912  13.751  11.575   3.988  0.0657  0.0183  0.2187
23709W        W41913   0.544   0.349   2.760  0.0529  0.0852 -0.2077
23710W        W41914  12.825   9.934   3.554 -0.0175  0.2367  0.0590
23711W        W41915  13.608   7.369   1.316  0.0320 -0.0844 -0.3313
23712W        W41916   2.310  10.959   4.793 -0.0080  0.0857  0.1266
23713W        W41917   7.359   7.975  13.258 -0.3990 -0.1175  0.0861
23714W        W41918  14.566  14.583  15.649  0.0102  0.2730  0.0504
23715W        W41919  17.974   8.025   4.261  0.1476  0.1770 -0.2739
23716W        W41920   6.969   1.802  16.149  0.2566 -0.0431 -0.1825
23717W        W41921  10.938  11.111   3.135  0.0229  0.0651 -0.3938
23718W        W41922  14.586  12.651  15.596 -0.2808 -0.1148 -0.0351
23719W        W41923   2.511   1.881  10.893 -0.0862  0.1510  0.0237
23720W        W41924  11.836   9.985  12.919 -0.3860  0.0693  0.2263
23721W        W41925  10.319   6.982   4.841  0.2924  0.0969 -0.3501
23722W        W41926   9.679   6.540  15.331 -0.1911  0.0875  0.2218
23723W        W41927   2.883  16.516   4.217  0.0870  0.0943  0.2630
23724W        W41928  13.115   7.968  11.847 -0.2913 -0.0322  0.0402
23725W        W41929  10.260  11.516   3.980 -0.0619  0.1127  0.1053
23726W        W41930   8.619   4.189  12.606 -0.4744 -0.2234 -0.1896
23727W        W41931   6.126   7.171  12.631  0.1694 -0.2124 -0.0010
23728W        W41932  10.916  10.590  11.339  0.1739  0.1170  0.0227
23729W        W41933  12.284  18.029  12.287  0.1686 -0.0530  0.3967
23730W        W41934   6.460   4.568  13.988  0.2026  0.2054 -0.1846
23731W        W41935  13.365   4.251  11.834 -0.1735  0.0087  0.4001
23732W        W41936   0.819   0.594  15.184  0.2765 -0.1807 -0.0116
23733W        W41937   7.319  13.318   1.630  0.0875  0.1567 -0.1297
23734W        W41938  16.568  16.913  15.729  0.3992  0.1479  0.0515
23735W        W41939   1.938   8.381  13.799 -0.0984  0.1319 -0.0312
23736W        W41940   8.115   9.749  11.727  0.0600  0.0322 -0.1376
23737W        W41941  14.779   0.496  13.082  0.0958  0.4507  0.3038
23738W        W41942  11.328  13.250   5.474 -0.0442  0.3532 -0.2295
23739W        W41943   1.534  11.183   4.225 -0.3079 -0.0110  0.0576
23740W        W41944   3.449  13.708  11.195 -0.0920  0.0040  0.0352
23741W        W41945   3.583   5.736  13.667  0.2766  0.2395 -0.1379
23742W        W41946  17.989  16.925   4.538  0.0170  0.1703  0.2285
23743W        W41947  10.505  15.700   4.930  0.0049 -0.1604 -0.0708
23744W        W41948  14.170   0.883   4.698 -0.1092 -0.0705  0.0648
23745W        W41949  10.640   0.415   2.432 -0.0307  0.1051  0.1336
23746W        W41950   9.417  16.856   1.155  0.0286 -0.2189  0.0857
23747W        W41951   8.238   6.430   3.188  0.0766  0.2908  0.0546
23748W        W41952   7.084   2.707   1.300 -0.0222  0.5143  0.1315
23749W        W41953  11.040   7.948   0.673 -0.1245 -0.0117 -0.1816
23750W        W41954   8.695  14.468   0.271 -0.0592  0.2201 -0.2278
23751W        W41955  16.966  12.104   1.584  0.1160 -0.0563 -0.2312
23752W        W41956  13.788  17.900  15.501  0.2697 -0.0994  0.0494
23753W        W41957  14.228  15.086  11.097 -0.3004  0.0833  0.0228
23754W        W41958  10.802  11.312  12.577 -0.3653 -0.0009  0.0308
23755W        W41959  13.375  12.518   3.714 -0.0274  0.0895  0.3407
23756W        W41960  15.060  10.255  15.325  0.0229 -0.0215 -0.0380
23757W        W41961   3.514   5.704   2.974  0.0469  0.0715  0.0163
23758W        W41962   8.973  10.523   2.496  0.1394 -0.1781  0.1414
23759W        W41963   1.177   2.864  13.787 -0.0073  0.1007 -0.0436
23760W        W41964  14.766  11.070  15.445 -0.0410  0.1649 -0.1785
23761W        W41965   1.681   5.163   3.532 -0.0866 -0.3572  0.1295
23762W        W41966  11.634  17.633   0.428  0.2562 -0.1653 -0.2290
23763W        W41967  11.064  10.605  13.970  0.2672 -0.1831  0.0021
23764W        W41968   4.681   6.883  14.439 -0.1819  0.0749  0.0497
23765W        W41969  17.653  10.938   0.288 -0.0534  0.1078 -0.0980
23766W        W41970  10.592  10.101  15.661 -0.3386 -0.1252 -0.1726
23767W        W41971  17.965   1.910   2.710 -0.0106 -0.0450 -0.0194
23768W        W41972   7.203   6.245  12.813  0.2421  0.0249 -0.0910
23769W        W41973   2.791   8.370   2.865 -0.0153 -0.1405 -0.0655
23770W        W41974   3.422   7.699   1.961  0.1683  0.0544 -0.1920
23771W        W41975   1.084  10.475   1.963  0.0509  0.0370 -0.1971
23772W        W41976  11.316   4.548  11.937 -0.1111  0.2387  0.1756
23773W        W41977   7.612   0.837   4.763  0.0059  0.0870  0.2393
23774W        W41978  12.132   7.758   0.687  0.1982  0.0706  0.4384
23775W        W41979   0.814  11.066  13.086 -0.0822 -0.3504  0.1055
23776W        W41980   7.667   7.263   3.757  0.0642 -0.2615  0.0674
23777W        W41981   0.798   3.041   3.576 -0.3549 -0.1205  0.0341
23778W        W41982   8.106  15.334  11.245 -0.1249  0.1040  0.2342
23779W        W41983   4.934   0.285   1.349  0.1201 -0.0356  0.2026
23780W        W41984   1.070   4.687   2.150 -0.1587 -0.1360  0.0116
23781W        W41985   2.808   9.377   0.838  0.1435 -0.4003 -0.2736
23782W        W41986   0.971   8.163   3.106 -0.2454 -0.2833  0.3337
23783W        W41987  15.561  11.239  14.889  0.2175 -0.1855  0.0844
23784W        W41988  10.786   0.201   4.619  0.0984  0.2016 -0.0379
23785W        W41989   7.350  13.522  16.126  0.1033  0.1722  0.1963
23786W        W41990  16.792   9.976   4.910 -0.0193 -0.2586 -0.2647
23787W        W41991  14.199  11.658   0.261  0.1865  0.1708 -0.2123
23788W        W41992  14.902   4.319   3.701  0.1843  0.2160 -0.1150
23789W        W41993   7.132  13.181  15.279  0.2006  0.0690  0.1030
23790W        W41994   6.197  13.443   1.751  0.2912  0.3438 -0.0092
23791W        W41995   1.285  13.245   0.082 -0.1017 -0.0019  0.0107
23792W        W41996  15.224  13.833  15.219  0.0054 -0.2540  0.0488
23793W        W41997   4.634   8.903  15.729  0.0204  0.1874  0.0205
23794W        W41998  16.385  10.658   0.017 -0.2158 -0.0740 -0.3727
23795W        W41999   7.982  15.007  13.165  0.2957 -0.1235  0.1728
23796W        W42000   6.661  15.723  11.621 -0.1415  0.2987 -0.1559
23797W        W42001  17.279   9.053   0.307  0.0181 -0.2046 -0.0746
23798W        W42002  10.678   5.096   1.723 -0.2401  0.0282 -0.1323
23799W        W42003  10.708  17.963  12.358 -0.1443  0.1748 -0.1139
23800W        W42004   8.800   3.709   2.494 -0.1270  0.1056  0.1778
23801W        W42005  12.468  15.327   2.837 -0.1017  0.1232  0.2153
23802W        W42006   9.365  15.784  15.444 -0.0714  0.0046  0.1627
23803W        W42007  11.413  14.973  10.999 -0.4291 -0.1136 -0.0270
23804W        W42008  10.994   7.747  15.872  0.0262  0.0216  0.0659
23805W        W42009  12.261   0.761  15.469 -0.0206  0.1427 -0.1280
23806W        W42010   3.439   5.502   5.246 -0.0936  0.2081 -0.0868
23807W        W42011   0.985   7.969   3.589  0.1373 -0.0816  0.2119
23808W        W42012   3.951  14.410  10.277  0.0010 -0.2227  0.1359
23809W        W42013   3.338   9.297   2.265  0.0903  0.0765  0.0045
23810W        W42014   1.509  12.815   4.183  0.0047  0.0355  0.0040
23811W        W42015   1.727  10.840  15.559  0.0834 -0.1498  0.1331
23812W        W42016  17.737   2.727  11.679 -0.0667  0.1570  0.0377
23813W        W42017   4.155   0.196  15.181  0.1353 -0.1678  0.0188
23814W        W42018  14.663   1.804  15.334 -0.0217  0.1128  0.1397
23815W        W42019  10.162   0.632   2.192 -0.1228 -0.4305 -0.1364
23816W        W42020  14.213   1.855  14.277 -0.1331  0.1666  0.0599
23817W        W42021  10.871  11.562   5.203  0.3506  0.0164 -0.1310
23818W        W42022  17.136  11.074   5.170  0.4913  0.2804  0.2194
23819W        W42023  11.697   3.773  10.783  0.0741  0.0897 -0.0660
23820W        W42024   7.055   1.010   0.188  0.1279  0.0885 -0.2044
23821W        W42025   5.426   6.155   4.432  0.1108  0.0258 -0.2204
23822W        W42026   2.697  13.910  13.204 -0.3532  0.0492  0.1697
23823W        W42027  16.208  14.068   4.125 -0.1219 -0.0495 -0.2444
23824W        W42028  16.698   3.003  12.593 -0.1076  0.1568 -0.4560
23825W        W42029   9.597   5.488   2.866  0.0866  0.0539 -0.0431
23826W        W42030  17.606  17.044   1.426 -0.1409  0.3556 -0.0601
23827W        W42031  17.025   1.689   2.334  0.0267  0.1020  0.0799
23828W        W42032   1.304   0.317  11.581  0.2039 -0.1627 -0.1098
23829W        W42033   4.341  15.295  15.255  0.1119 -0.2847  0.2242
23830W        W42034   4.550  15.480  13.902 -0.0096  0.1248  0.0495
23831W        W42035  12.064   6.170   5.045  0.5962 -0.0039 -0.4250
23832W        W42036   9.822   6.860  10.689 -0.0404 -0.0011 -0.0189
23833W        W42037  11.843   2.353  12.931  0.0727 -0.1962  0.0021
23834W        W42038  13.966  15.068  15.680 -0.1831  0.4821  0.0192
23835W        W42039  15.484   8.801  15.627  0.1857 -0.3790 -0.1024
23836W        W42040   1.034   1.792  15.860  0.0225 -0.1760 -0.1826
23837W        W42041  17.366   5.718   1.851  0.0345  0.0440  0.3568
23838W        W42042   4.312   9.144  14.408  0.2435  0.2509 -0.1383
23839W        W42043  13.311   5.853   0.537 -0.2085  0.2671 -0.0226
23840W        W42044  15.867   9.969   2.064 -0.1213  0.2371  0.1548
23841W        W42045   8.551   6.750   3.464  0.0415 -0.0993  0.4874
23842W        W42046  10.792   2.131   2.245  0.1325  0.1995  0.4399
23843W        W42047   9.544  14.704  11.767  0.2463 -0.0390  0.0919
23844W        W42048   9.858   7.441   2.532  0.0526  0.2157  0.3198
23845W        W42049  10.509   5.473  12.822  0.4023 -0.1047  0.0276
23846W        W42050  10.953   0.768  14.737 -0.3465  0.1252 -0.1497
23847W        W42051  10.590  15.751   2.312  0.1375 -0.0361  0.0113
23848W        W42052  15.742   4.862   3.833 -0.3673  0.1241 -0.0961
23849W        W42053   2.494  15.505  12.662 -0.2664 -0.0031  0.1977
23850W        W42054  12.600   6.845  12.242 -0.1308  0.4118  0.0059
23851W        W42055  12.620  15.819   3.715  0.0328  0.2324 -0.0326
23852W        W42056  12.876  10.646   0.510 -0.0843  0.1808  0.4715
23853W        W42057   8.783  11.975  14.926 -0.0356  0.2586  0.0065
23854W        W42058  13.476   8.089  13.209  0.4088  0.4434 -0.0965
23855W        W42059   9.519  13.550   0.440  0.1842  0.1136 -0.1388
23856W        W42060  10.975   2.716  13.496 -0.1203  0.3069  0.3939
23857W        W42061  11.998   8.296  11.559 -0.0359 -0.0428 -0.1317
23858W        W42062   1.654  16.738   3.485 -0.0453  0.0703 -0.1779
23859W        W42063   8.802   2.633  12.851  0.1184 -0.2707  0.0601
23860W        W42064   3.750   4.287   3.821  0.3490  0.0114  0.1821
23861W        W42065   3.641   3.840   2.477  0.0356 -0.1827 -0.0816
23862W        W42066  14.828   3.266   3.483  0.3379  0.0302 -0.0194
23863W        W42067   7.921   3.398  13.938  0.0169  0.0556 -0.1200
23864W        W42068  11.392   1.763  14.966  0.0944 -0.2297  0.1186
23865W        W42069   8.679  14.242   4.886  0.0502  0.1639 -0.1973
23866W        W42070  11.464   0.234   0.898  0.1712 -0.3078 -0.2854
23867W        W42071  15.379  17.922  13.296  0.0250 -0.1039 -0.0697
23868W        W42072  10.025  10.731  11.832  0.1012 -0.0311  0.1170
23869W        W42073  16.061  10.448  14.184  0.0188  0.3490  0.0617
23870W        W42074   7.112   3.904  12.078  0.3188 -0.1209 -0.2392
23871W        W42075   5.489  12.475   1.797  0.3322  0.0420  0.0131
23872W        W42076  16.500  11.036   4.410  0.0879 -0.1037 -0.3647
23873W        W42077   8.864   6.268  14.218 -0.0970 -0.3367  0.0397
23874W        W42078   7.557   3.851   3.956 -0.2172  0.0484 -0.3193
23875W        W42079   3.659  17.972   0.141 -0.0994 -0.1381 -0.2693
23876W        W42080  15.336   8.504   4.236  0.2280 -0.2199 -0.3671
23877W        W42081   6.972  12.446  11.841  0.0124 -0.0178  0.1528
23878W        W42082  15.012  14.328   3.621  0.0046 -0.1822  0.0342
23879W        W42083   6.174   9.445   4.154  0.3754 -0.0538  0.0138
23880W        W42084   5.237   0.283   2.460 -0.1765 -0.2406  0.1535
23881W        W42085   0.357  12.906   2.388  0.2185 -0.0082 -0.0947
23882W        W42086  10.478  12.304  12.039  0.2843 -0.3646 -0.1461
23883W        W42087  16.729   3.369  12.036  0.0285 -0.1878 -0.1144
23884W        W42088   9.768  12.838   2.886 -0.1351 -0.3931 -0.1245
23885W        W42089   1.066   2.518  14.165  0.1376 -0.0874 -0.0998
23886W        W42090   3.224  17.794  15.395  0.1900  0.2486  0.0078
23887W        W42091  10.594   6.424  14.314 -0.0158  0.0678 -0.1999
23888W        W42092   9.939   3.218  14.800 -0.1674  0.2320 -0.0894
23889W        W42093   5.371  11.025  12.597 -0.0345  0.0497  0.1337
23890W        W42094   9.692  13.551   4.021 -0.1034 -0.1900  0.2750
23891W        W42095   9.442  12.136   3.826  0.1535 -0.0394  0.1422
23892W        W42096  14.111   5.801   4.633  0.5131 -0.1334  0.3330
23893W        W42097   5.577  16.102  14.298 -0.2091  0.0054  0.2822
23894W        W42098   1.776  15.638   3.335 -0.0547 -0.4084 -0.2036
23895W        W42099   0.921  16.262  12.159 -0.1013 -0.2744  0.0151
23896W        W42100   7.668  14.374   1.618  0.0839  0.1726 -0.1599
23897W        W42101   1.590   4.555  15.550  0.2419  0.0203  0.0811
23898W        W42102  13.927  15.647   4.048  0.1680 -0.1101 -0.4209
23899W        W42103  15.310  16.273  14.028  0.2022 -0.1756  0.0221
23900W        W42104   7.674  17.085   3.080  0.0098 -0.1599  0.0050
23901W        W42105   7.451   7.167   1.745 -0.0293 -0.1829 -0.0497
23902W        W42106  11.795   3.215   3.168 -0.0530 -0.0631 -0.2959
23903W        W42107   0.895  16.728  14.878  0.0378 -0.1147 -0.2073
23904W        W42108   9.180  13.834   0.663 -0.1945  0.1793  0.1402
23905W        W42109   9.661  12.734  16.039  0.1004 -0.1594 -0.0401
23906W        W42110  12.018  13.010  11.809 -0.2562  0.0699 -0.0233
23907W        W42111  13.858  15.435   0.759  0.1550  0.0262 -0.0306
23908W        W42112  13.688  11.678   3.302 -0.0838  0.1174 -0.2011
23909W        W42113   5.325   6.142  13.084  0.4272  0.2427  0.3813
23910W        W42114  17.581   7.989  13.648  0.2245 -0.1953  0.1806
23911W        W42115  10.150  13.018   2.501 -0.1321 -0.0355 -0.1262
23912W        W42116  10.086   6.118  12.942 -0.0864 -0.1945 -0.0765
23913W        W42117   8.729  15.195   1.280 -0.0526 -0.0765 -0.0073
23914W        W42118  14.185  15.773   2.730 -0.1747 -0.1917  0.0746
23915W        W42119   3.369  17.375  15.817 -0.0269 -0.1215 -0.0388
23916W        W42120  15.276  13.820  13.756 -0.0521 -0.0924  0.1314
23917W        W42121  13.453  11.575  12.377  0.1004  0.1043 -0.0392
23918W        W42122  11.061   8.660  16.009 -0.1481  0.2420 -0.2382
23919W        W42123   3.382  17.499   0.502 -0.0143 -0.1058 -0.0986
23920W        W42124   1.278  17.429   4.513  0.0078  0.4112  0.3867
23921W        W42125   1.277   7.569   3.342  0.0624  0.0262 -0.2427
23922W        W42126   4.384   0.624  11.515  0.1854 -0.0343  0.1766
23923W        W42127  12.971  15.174  13.067  0.1138 -0.2263 -0.3174
23924W        W42128   4.209  14.013   0.723  0.2133 -0.3184 -0.3274
23925W        W42129   1.215   1.187  11.129  0.2504  0.4192 -0.2023
23926W        W42130   3.884   5.118  16.079 -0.0189 -0.0390  0.0414
23927W        W42131  14.772   1.226   3.536 -0.2378  0.0187  0.3409
23928W        W42132  10.196   9.536  12.567  0.0506 -0.3609 -0.0480
23929W        W42133  13.946  12.877  11.857 -0.1358 -0.0473 -0.0386
23930W        W42134   8.426   3.992  13.841 -0.3515  0.1578  0.0639
23931W        W42135   3.626   4.877  15.641  0.0524  0.0840  0.0515
23932W        W42136  15.687  17.429   4.536 -0.0686 -0.1199  0.0859
23933W        W42137   8.134  11.199  15.418  0.1437 -0.2773  0.0008
23934W        W42138   1.093   4.291  16.002 -0.2582  0.3505 -0.1062
23935W        W42139   2.852  15.694   0.769  0.3282  0.0633 -0.0060
23936W        W42140   1.215   4.407   3.113 -0.1403 -0.1540 -0.2114
23937W        W42141   5.944  13.039   1.514  0.1039 -0.0318  0.3124
23938W        W42142  13.386  17.563   0.013 -0.0952 -0.1328 -0.0088
23939W        W42143   7.265   8.593  12.621  0.1338  0.3973  0.1558
23940W        W42144  13.294   4.266   1.837  0.0959 -0.0214  0.1004
23941W        W42145   0.256  14.295   3.276 -0.2370 -0.3598 -0.0761
23942W        W42146   0.754   0.780   0.204  0.0943 -0.0985  0.2677
23943W        W42147  13.128  17.194  10.833  0.1085  0.0644 -0.2612
23944W        W42148  10.664  16.067   0.189  0.0937 -0.2227 -0.2116
23945W        W42149   7.254  12.147   5.705 -0.0442  0.1083  0.0081
23946W        W42150  10.448  16.226   2.320 -0.2049 -0.1677  0.0250
23947W        W42151   8.044   2.591  12.996  0.1763  0.1260  0.2116
23948W        W42152   6.081   0.769  16.025  0.0862 -0.1834  0.0156
23949W        W42153   2.988   3.657   2.761 -0.0776 -0.2941 -0.1206
23950W        W42154   5.828  14.225   1.916  0.1657 -0.1180 -0.2302
23951W        W42155  11.475  16.149  15.642  0.0957 -0.3003 -0.0600
23952W        W42156   9.181  14.869  14.894 -0.1221  0.1171  0.1100
23953W        W42157   2.809   8.911  15.502 -0.2901 -0.2055 -0.1658
23954W        W42158  10.146   6.277   0.969  0.2626 -0.0844  0.0686
23955W        W42159   0.294   7.284  15.699 -0.0097  0.1338  0.1011
23956W        W42160  14.005  14.310  12.683 -0.1656 -0.0638  0.1577
23957W        W42161  13.653  13.525   4.084 -0.2569  0.3184 -0.0407
23958W        W42162   5.794  17.428   4.278  0.0753 -0.0935 -0.0529
23959W        W42163   9.259  12.013  13.495  0.1048 -0.2255  0.1254
23960W        W42164   5.578  14.702   1.848 -0.2573 -0.0696 -0.3264
23961W        W42165   7.140  10.931  13.278 -0.1596  0.4267  0.0159
23962W        W42166   8.560   2.474  13.607 -0.0481  0.2385 -0.2586
23963W        W42167  15.769  12.137   1.149  0.2904 -0.4669  0.1975
23964W        W42168  12.319  11.761  13.201 -0.0227 -0.1676  0.0798
23965W        W42169  12.890  15.707  12.927  0.0852 -0.3156 -0.1857
23966W        W42170   6.461   8.621   5.088 -0.0515  0.2040  0.1121
23967W        W42171  10.038  13.187   4.131  0.2030 -0.1835  0.2309
23968W        W42172  17.388  14.498  16.175 -0.0186  0.1469 -0.2879
23969W        W42173   2.565  15.336   2.719 -0.3538  0.1413  0.1705
23970W        W42174  13.740  14.636  15.859  0.0064  0.1408 -0.1391
23971W        W42175  17.198  12.177   0.660  0.0274 -0.0611  0.2154
23972W        W42176  17.501   7.810  12.005 -0.2304 -0.1717  0.1154
23973W        W42177  12.374  11.464   0.323 -0.0778  0.0569 -0.1037
23974W        W42178   1.716   8.767  11.841  0.2042  0.1566 -0.1558
23975W        W42179  15.206   7.923  14.254 -0.2527  0.2360  0.2614
23976W        W42180  16.763   3.350   2.201 -0.1224 -0.0104  0.1994
23977W        W42181  16.791  16.475  11.446 -0.1795 -0.0237  0.2342
23978W        W42182  14.861  16.895   3.565  0.1064 -0.2537 -0.2142
23979W        W42183   7.627  14.698  14.078 -0.0867  0.1776  0.0693
23980W        W42184  13.332   9.031   4.797 -0.0340  0.0572  0.1457
23981W        W42185  15.013  15.356  11.891  0.0618 -0.0824  0.0070
23982W        W42186  17.423  11.470   3.836 -0.1107  0.1864  0.2925
23983W        W42187   8.687   7.503  12.022 -0.3342 -0.2847  0.0499
23984W        W42188  14.109  10.126  14.267  0.1263  0.0333 -0.0985
23985W        W42189   7.670  15.766   2.948  0.1510 -0.1078  0.1831
23986W        W42190   3.658  11.709  14.123  0.0531 -0.2161  0.1400
23987W        W42191   6.166   7.253   2.146 -0.0261 -0.0718  0.0082
23988W        W42192  14.462  12.566  12.606 -0.0346 -0.2087  0.2648
23989W        W42193   1.722   3.797   3.741  0.0369 -0.1032  0.1968
23990W        W42194  15.873  12.587  14.577 -0.1893  0.0364 -0.0700
23991W        W42195   9.934   2.655  15.489 -0.2332 -0.2226  0.1349
23992W        W42196   3.224  11.458  12.766 -0.1293  0.1729  0.3185
23993W        W42197  14.922   9.675  13.932 -0.4366  0.2183  0.0657
23994W        W42198   8.961   9.351  12.323  0.2233 -0.1194  0.0514
23995W        W42199   4.033   0.367   1.191  0.1582 -0.3531 -0.0642
23996W        W42200  16.537   8.174   5.143  0.1884 -0.1426  0.0181
23997W        W42201  11.909   5.057   4.978  0.0579  0.0473 -0.0598
23998W        W42202   6.044  17.242   1.248 -0.0306 -0.1696 -0.2540
23999W        W42203   4.252   7.717   4.016 -0.1294  0.2142  0.0759
24000W        W42204  15.283   5.953  15.469  0.0152  0.2453  0.0182
24001W        W42205  10.754  12.562   1.423 -0.3037 -0.2010  0.0359
24002W        W42206   6.093  11.138  15.030  0.4646 -0.0850 -0.1771
24003W        W42207   5.990  10.402   1.775 -0.3394  0.1022  0.0318
24004W        W42208   3.253   6.743  15.810  0.0842 -0.4148 -0.1321
24005W        W42209  15.158  13.157  12.678 -0.1094  0.0546 -0.3102
24006W        W42210  16.982  13.637  12.319 -0.2216  0.1614  0.3232
24007W        W42211  16.172  17.087  13.327  0.1351  0.0644  0.3716
24008W        W42212  17.704   1.131   3.245  0.0222  0.1092 -0.0353
24009W        W42213   9.958  14.494   1.033 -0.1541  0.2016  0.1158
24010W        W42214   7.394  18.018   4.832  0.1109 -0.0382 -0.0343
24011W        W42215   2.179  15.252   4.723  0.0393  0.1959  0.2346
24012W        W42216  14.651  11.169   4.134 -0.0317 -0.1629 -0.0438
24013W        W42217   1.646  17.236   3.717  0.5061  0.0334 -0.1517
24014W        W42218  13.755   2.527  11.435  0.3544 -0.1600  0.0115
24015W        W42219   3.418   2.403   2.923  0.2756  0.0861 -0.1736
24016W        W42220   6.245  12.058  12.870 -0.0296 -0.3120 -0.2193
24017W        W42221  16.229  14.712  15.375 -0.1110 -0.1368  0.0570
24018W        W42222   9.056  14.113   5.179  0.1113 -0.0505  0.0941
24019W        W42223   2.526  12.168  15.648 -0.0945 -0.4008 -0.2383
24020W        W42224   3.714   0.204  12.388 -0.4591 -0.2077  0.2130
24021W        W42225   9.276  16.296  12.584 -0.1009 -0.1382 -0.0960
24022W        W42226   5.656  11.349   4.334  0.2087 -0.2651  0.1864
24023W        W42227   7.723   0.367   2.651 -0.2502  0.1491 -0.0039
24024W        W42228  17.920  14.481   0.113 -0.1234  0.0337 -0.0528
24025W        W42229  10.689  13.676  15.787  0.1601  0.3474 -0.4844
24026W        W42230   1.850   2.179  11.837  0.0590  0.0713  0.1367
24027W        W42231  12.944   3.993   1.098  0.1576  0.2777 -0.1186
24028W        W42232  16.535  12.782   1.847  0.2668  0.1415  0.2629
24029W        W42233   4.125   7.645   0.147 -0.0805 -0.0163 -0.0570
24030W        W42234  10.979   9.858   0.482 -0.2761  0.0220  0.1907
24031W        W42235   2.051   8.039   1.066  0.1382 -0.3372 -0.1347
24032W        W42236  13.126   7.748  13.879 -0.0353 -0.1027  0.2182
24033W        W42237   4.469  10.593  14.708 -0.1254  0.1315 -0.4171
24034W        W42238   8.986  16.637  12.476 -0.1961 -0.0284 -0.0595
24035W        W42239   0.871  11.863   1.212  0.1039  0.1546 -0.0118
24036W        W42240   4.971   6.295  12.628  0.0694 -0.2484 -0.2756
24037W        W42241   0.644   2.589  10.411  0.1762 -0.1367 -0.0899
24038W        W42242   6.845   8.143   4.715 -0.0998  0.1561 -0.0189
24039W        W42243  14.166  13.734   4.070 -0.2364 -0.1375 -0.1231
24040W        W42244   9.986  14.699  13.227  0.2878  0.1580  0.1253
24041W        W42245   1.166   1.249  12.389  0.0218 -0.1115 -0.1422
24042W        W42246  12.670   6.376  12.835 -0.1839  0.1260  0.1824
24043W        W42247   3.323   2.374   1.096 -0.3851  0.1647 -0.0870
24044W        W42248   7.208   7.267  15.546  0.0383 -0.3836 -0.0419
24045W        W42249  11.346   7.823   1.413  0.0226 -0.0017 -0.2408
24046W        W42250  13.603  13.763  13.437 -0.2267  0.0472 -0.2032
24047W        W42251  13.301  13.715  15.619  0.4727  0.0844 -0.2208
24048W        W42252   9.005   5.598   4.321  0.0255 -0.0440 -0.0154
24049W        W42253   2.287   6.563   0.916 -0.1453  0.0144  0.3738
24050W        W42254  14.139  16.096  12.863 -0.0014  0.2534 -0.0107
24051W        W42255  14.493   0.347   3.321  0.1624  0.0273  0.0471
24052W        W42256   3.474  12.074   4.369 -0.0730  0.1101 -0.2711
24053W        W42257   6.485  17.573  15.521 -0.3225 -0.1747 -0.1226
24054W        W42258   5.677   6.484  15.484  0.3273 -0.0079 -0.0188
24055W        W42259  12.196   8.246   4.212  0.0932 -0.1345  0.2090
24056W        W42260  12.238  10.558   4.514 -0.0032 -0.0200 -0.0265
24057W        W42261  11.840   6.236  13.160  0.3146  0.4896 -0.0361
24058W        W42262  10.509  10.315   5.176 -0.0848  0.0202 -0.2018
24059W        W42263   5.866  10.664   1.386  0.1518 -0.3009 -0.0043
24060W        W42264   0.764   3.822  14.943  0.4480  0.1917  0.0811
24061W        W42265   0.163  16.383   1.311 -0.3656  0.0216 -0.1799
24062W        W42266   7.078  11.815  12.261  0.1856 -0.2445 -0.1825
24063W        W42267   0.609  15.434   1.644 -0.1201 -0.0138 -0.0896
24064W        W42268   8.621  14.516  15.892 -0.1958  0.0536 -0.1195
24065W        W42269   0.575  12.699  15.977  0.2081 -0.0677  0.0866
24066W        W42270   8.994  16.361   0.105 -0.0807 -0.2150  0.0861
24067W        W42271  12.918  13.365  14.098  0.1656 -0.0187 -0.0994
24068W        W42272  13.558   8.561  14.977  0.0547 -0.1330  0.0547
24069W        W42273  14.516   4.332  15.962  0.0185 -0.2124  0.1758
24070W        W42274   6.567   7.836   0.368  0.1030  0.0476  0.1195
24071W        W42275  17.975   7.753   2.606  0.1793  0.0806 -0.1610
24072W        W42276  17.085  10.814   2.965 -0.1408 -0.0338  0.1423
24073W        W42277  13.050   2.853  14.658  0.1579  0.0640 -0.1362
24074W        W42278  10.248  15.339  15.281  0.4656  0.0558  0.3289
24075W        W42279   5.851   3.681  11.461  0.0097  0.1063 -0.2279
24076W        W42280   9.876  15.057  11.957  0.2046  0.0120  0.0343
24077W        W42281   6.408   1.301   1.972  0.3948  0.1290 -0.0129
24078W        W42282  15.190   7.210  15.441  0.1407 -0.0509 -0.3455
24079W        W42283  14.912  14.807  14.212 -0.0710 -0.1021  0.0158
24080W        W42284  12.648   4.435   3.774  0.0081 -0.1831 -0.1902
24081W        W42285   9.031   1.016  14.108 -0.0758 -0.0448  0.1698
24082W        W42286  16.544  15.480   2.954  0.1234  0.0883  0.1081
24083W        W42287   3.972   2.142   2.473  0.1888  0.0744 -0.4664
24084W        W42288  10.793   6.972  10.825  0.2826  0.0946  0.1622
24085W        W42289  14.694   2.577  11.678  0.1579  0.0010 -0.1227
24086W        W42290  15.928   2.586  12.183 -0.1493 -0.0046 -0.0860
24087W        W42291   7.934   5.697  15.304  0.0997  0.2171  0.0475
24088W        W42292  10.548  16.531   4.283  0.2000 -0.1649 -0.0256
24089W        W42293  17.839   7.873   1.193 -0.0477 -0.1977 -0.1993
24090W        W42294   7.629  15.905  12.878  0.1042  0.0176  0.2338
24091W        W42295  11.374  13.658  11.703 -0.1203  0.1312  0.0477
24092W        W42296  13.107  14.552   0.436  0.1149  0.1078 -0.0163
24093W        W42297  16.976  11.041   1.358  0.1859  0.0874  0.0370
24094W        W42298   6.152   7.654  15.734  0.1941 -0.0656 -0.0695
24095W        W42299  11.276  13.216  11.457  0.2740  0.1628 -0.1480
24096W        W42300  11.453   8.677  11.799  0.2170  0.0151  0.0139
24097W        W42301   4.208  16.860   2.662 -0.2388  0.0098 -0.1640
24098W        W42302   5.962  15.783   6.099  0.0244 -0.0174  0.2506
24099W        W42303  17.975   2.497   0.018  0.1180 -0.0196  0.3263
24100W        W42304   2.879   4.085   5.110  0.0003  0.2144 -0.0764
24101W        W42305   6.488   5.259  12.902  0.2225  0.2108 -0.1613
24102W        W42306  12.518   2.724  15.862  0.1731  0.0054  0.0326
24103W        W42307   8.800  17.107   4.100 -0.0358  0.0771 -0.0058
24104W        W42308  17.685   8.844   1.069  0.2767  0.0690 -0.0815
24105W        W42309   6.419  14.930  12.063 -0.0575  0.1687 -0.0605
24106W        W42310   6.768  13.581  15.356  0.0544  0.0557 -0.0447
24107W        W42311   9.299  10.198   3.771  0.2125  0.1614 -0.1578
24108W        W42312  16.699  10.026  14.987 -0.0485 -0.0101  0.2032
24109W        W42313  11.141   5.556   3.505  0.0088  0.2920 -0.1175
24110W        W42314   4.562   0.343  13.634  0.0777  0.2107  0.1861
24111W        W42315   4.417   4.333   2.636 -0.0808  0.1357  0.0294
24112W        W42316   6.768   9.534   1.241  0.1941  0.3930  0.0734
24113W        W42317   7.661  15.758   3.470  0.0646  0.1573  0.1926
24114W        W42318   2.773   0.239  13.678 -0.1893  0.1557 -0.1806
24115W        W42319   2.449  14.592   4.491 -0.0983  0.2481  0.3664
24116W        W42320  14.503   1.077  13.743 -0.2042  0.0352 -0.0369
24117W        W42321  15.747   3.815  15.556  0.0886  0.2052 -0.1126
24118W        W42322   1.647   0.694   2.995  0.0279  0.3098  0.2954
24119W        W42323   1.282   9.379   4.600 -0.0182  0.0331 -0.1499
24120W        W42324   1.158   4.710   4.446  0.1550 -0.2883  0.2933
24121W        W42325  14.927   0.218  15.001 -0.0234 -0.1026 -0.0975
24122W        W42326  12.505  17.710   5.014 -0.2187  0.2015 -0.0197
24123W        W42327  12.993  13.072   2.060  0.1766 -0.0764 -0.1017
24124W        W42328   4.267   2.160   4.112 -0.1992 -0.0513 -0.0582
24125W        W42329   6.486  14.533  13.642  0.0465 -0.0153  0.0344
24126W        W42330   9.572   6.544  11.846  0.0476  0.0705 -0.0152
24127W        W42331  11.498   8.374   0.187  0.2914 -0.2989  0.2762
24128W        W42332  12.455   5.859  12.652  0.2726 -0.0234  0.2303
24129W        W42333  15.217  16.725  12.843 -0.2990  0.0540  0.0090
24130W        W42334  13.949  12.547  14.018 -0.1210  0.0230 -0.2497
24131W        W42335   5.061   0.660  11.970  0.0798  0.1253 -0.0474
24132W        W42336   7.834  13.575   0.153 -0.1129 -0.0506  0.0014
24133W        W42337   7.088   7.436   3.515  0.1219 -0.0222  0.1956
24134W        W42338  17.317   3.618   1.805 -0.0281 -0.0150 -0.0044
24135W        W42339   8.578   3.250  11.957 -0.0366 -0.1793  0.0322
24136W        W42340  15.353   8.480   1.138  0.0609  0.0119 -0.0677
24137W        W42341   4.373   6.815  12.432 -0.0397  0.1030  0.0900
24138W        W42342   1.610   0.337   1.181  0.0215 -0.0960 -0.0273
24139W        W42343  17.870  12.179  16.177  0.2785 -0.0737  0.0536
24140W        W42344  10.015  15.503   4.574 -0.0367  0.1043  0.0380
24141W        W42345   5.503   2.796   3.786  0.0711 -0.2901 -0.0402
24142W        W42346   5.805  12.588   0.183  0.3799 -0.0502 -0.0896
24143W        W42347  17.510   0.160  13.205 -0.0981  0.1420  0.1226
24144W        W42348   7.568  15.844  15.264 -0.1120 -0.1091 -0.0888
24145W        W42349   6.881   7.231  15.179 -0.1041  0.0942  0.1508
24146W        W42350  14.463   3.218  12.874 -0.0994 -0.0102  0.2190
24147W        W42351  10.165  13.505   2.916  0.3332  0.2545  0.2016
24148W        W42352   4.420  12.183  12.954 -0.1503  0.0341 -0.0838
24149W        W42353  14.808   0.737   0.633  0.4199 -0.2071  0.3189
24150W        W42354  16.968  13.587   0.530  0.2686  0.1276 -0.0603
24151W        W42355   9.316  17.737  11.487  0.3496  0.2810 -0.0694
24152W        W42356   3.647   6.148   0.811  0.0693 -0.0115 -0.0621
24153W        W42357  13.449   4.703  15.854  0.3962 -0.0078  0.1698
24154W        W42358   3.892   7.236   3.922 -0.0673  0.0826  0.0876
24155W        W42359  11.660  15.264   1.225 -0.1862  0.0429  0.0712
24156W        W42360   9.514  13.240  14.302  0.0121  0.0731  0.1517
24157W        W42361   1.503   2.150   0.635 -0.2192  0.1489  0.1903
24158W        W42362   2.182  15.366  13.913  0.1492  0.0423 -0.0256
24159W        W42363  17.514   1.701  11.152  0.0338  0.1040 -0.2131
24160W        W42364   4.064   8.320   1.795 -0.2913  0.6536 -0.1002
24161W        W42365   5.918  10.091   3.733  0.1090 -0.4132 -0.2737
24162W        W42366  10.936  13.495   1.299  0.0825  0.2734 -0.4041
24163W        W42367   5.622   1.063  14.575 -0.3715  0.0907 -0.0293
24164W        W42368  16.933   8.566  13.946 -0.2008 -0.1665 -0.0641
24165W        W42369  16.546  17.509  13.990  0.0642 -0.0244  0.0147
24166W        W42370  15.951  12.313  13.052  0.1986  0.0865 -0.0263
24167W        W42371   6.671   2.289   2.040  0.0488  0.1798 -0.0390
24168W        W42372   8.319   4.891   0.609  0.3208 -0.0123 -0.0841
24169W        W42373   8.539   6.849  11.547 -0.2210 -0.0894 -0.1100
24170W        W42374   1.232  15.871  15.818 -0.0323  0.0448  0.0252
24171W        W42375  11.694   2.011  16.151  0.5528 -0.2321  0.0738
24172W        W42376  16.548  10.870  11.932 -0.0458  0.4948  0.0935
24173W        W42377   3.027   6.193  13.416  0.0379  0.0508 -0.2184
24174W        W42378   5.622   1.387   5.083  0.1705  0.0525  0.0362
24175W        W42379  15.376   2.666   1.259 -0.0135 -0.0545  0.0606
24176W        W42380   4.230   8.903   3.133 -0.2879 -0.0255  0.3995
24177W        W42381  15.475  16.846  10.969 -0.0070 -0.1905  0.3454
24178W        W42382  14.515  15.116   0.697 -0.0705  0.1075 -0.2066
24179W        W42383  17.485   0.379  11.466 -0.2976 -0.0687  0.0021
24180W        W42384   4.772   0.022  10.918 -0.0989  0.0348 -0.2077
24181W        W42385   4.263   1.323  14.232 -0.1322 -0.2016  0.1611
24182W        W42386   5.877   6.832   1.941  0.0060  0.2226 -0.1340
24183W        W42387  10.589   7.041   1.439 -0.1403 -0.0422  0.2393
24184W        W42388   8.138  15.866   0.235  0.2998  0.0987 -0.1082
24185W        W42389  16.690  12.673  15.128 -0.2467  0.1529 -0.0700
24186W        W42390   2.636  13.582  12.723 -0.0585 -0.2087 -0.1120
24187W        W42391  17.587   4.896  11.614  0.1417 -0.2476  0.2163
24188W        W42392   8.668  10.869   2.190 -0.0007  0.0253  0.1711
24189W        W42393   0.113   7.750   3.409 -0.3146  0.2676  0.3238
24190W        W42394  12.017   6.069  15.499 -0.3230 -0.0585  0.1713
24191W        W42395  17.799  14.581  10.584 -0.0490  0.1686  0.1794
24192W        W42396   2.879   6.065  12.196  0.0206  0.0972  0.1103
24193W        W42397   0.409   1.072  12.768  0.0675  0.1001 -0.1968
24194W        W42398   1.184  16.354   3.300  0.0143  0.4603 -0.1564
24195W        W42399   9.004  10.401  15.655  0.1808  0.3439 -0.1693
24196W        W42400   3.790   0.699  14.961  0.0129  0.1813 -0.1191
24197W        W42401   5.100  11.803   3.094 -0.0497 -0.0874 -0.1537
24198W        W42402  14.562   5.535  12.975  0.2016  0.0246 -0.1059
24199W        W42403   3.637  15.617  13.506 -0.1690 -0.0205  0.1371
24200W        W42404  11.325  17.745   4.325  0.1975  0.3458  0.0857
24201W        W42405   5.072   8.120   4.422 -0.0526 -0.0371  0.0477
24202W        W42406  10.009   5.199   1.201  0.4323 -0.0707  0.1099
24203W        W42407   8.466   1.168  15.398 -0.1937 -0.1424  0.2513
24204W        W42408  13.884  17.729  15.953  0.4432 -0.1644 -0.0627
24205W        W42409   6.870   9.438   0.455  0.0027  0.2839 -0.0201
24206W        W42410  10.915  11.177  15.981  0.0652  0.0443 -0.2374
24207W        W42411   0.773   8.555  13.055  0.1752 -0.3458 -0.0655
24208W        W42412   9.515  15.244   0.617  0.0964  0.2384 -0.2058
24209W        W42413   3.876  17.399  13.327  0.0638 -0.0370 -0.0641
24210W        W42414   8.992   7.976   1.799  0.0456 -0.1472 -0.3234
24211W        W42415   6.214   9.768  13.184  0.0161 -0.1307 -0.1225
24212W        W42416  12.477   8.588   2.591 -0.1057  0.0880 -0.0464
24213W        W42417   5.265  17.036  12.420  0.0591 -0.1473  0.0563
24214W        W42418  12.115  16.283  12.557 -0.0804  0.3436  0.2164
24215W        W42419   4.362  17.079   4.211  0.0474 -0.0970  0.2239
24216W        W42420   2.874  14.318   4.303 -0.0083  0.0843 -0.4732
24217W        W42421  13.362  11.582   1.963  0.0215 -0.1014 -0.1544
24218W        W42422  13.525   6.655   2.814 -0.0933 -0.2092  0.0481
24219W        W42423  10.432  16.177   4.703 -0.0488  0.0032  0.1232
24220W        W42424  17.068   7.581  12.165 -0.0929  0.1909 -0.0033
24221W        W42425  14.046   0.011   0.922 -0.0608 -0.0187 -0.3165
24222W        W42426   1.448  12.032  11.939  0.0163 -0.1175  0.0058
24223W        W42427   4.192   1.936  12.010 -0.1275 -0.0370 -0.0436
24224W        W42428   2.510   8.692   0.169 -0.1301  0.1120  0.0474
24225W        W42429   8.315   2.659  14.851 -0.0395  0.1167 -0.2021
24226W        W42430   9.709   3.405  11.547 -0.0759  0.0030 -0.1400
24227W        W42431   1.832   6.466   0.520 -0.2311 -0.0079 -0.1774
24228W        W42432   3.034   4.428  14.263 -0.0807 -0.0917 -0.1424
24229W        W42433   8.835   9.180  14.708  0.0432 -0.1413 -0.1935
24230W        W42434   6.661  17.909   3.238  0.2049  0.0575  0.1752
24231W        W42435   3.945  17.102  15.140 -0.3075  0.0239  0.0136
24232W        W42436  14.140  15.718  14.761  0.1473 -0.2681 -0.1732
24233W        W42437  11.475   5.617   1.368  0.1027 -0.1238  0.2377
24234W        W42438  14.363   0.589   1.443  0.1403  0.0444  0.0389
24235W        W42439  16.683  15.133   4.849  0.2125 -0.2803  0.2583
24236W        W42440   6.819  15.519   1.633  0.0724 -0.3079 -0.0819
24237W        W42441  10.178   4.954  15.311 -0.2116 -0.1589 -0.0578
24238W        W42442   6.318   9.734   1.391  0.1241 -0.1142  0.0405
24239W        W42443  15.229  14.496  13.355  0.1246  0.0532 -0.3541
24240W        W42444  17.370   7.042  14.668 -0.2432  0.2593  0.1061
24241W        W42445   0.628   6.409  11.877 -0.0428 -0.2043  0.1811
24242W        W42446  13.035   8.158   4.628  0.1176  0.1295  0.2026
24243W        W42447  11.064   9.137  15.827 -0.0462  0.2437  0.0695
24244W        W42448   0.337   8.530  14.342 -0.0283 -0.0747 -0.0668
24245W        W42449  12.942   6.968  13.912  0.0699  0.1586 -0.3098
24246W        W42450   9.658   9.022   3.456 -0.0399 -0.0166 -0.4086
24247W        W42451  15.563   7.537   1.354  0.5954 -0.0111 -0.0482
24248W        W42452  11.669   6.793   3.695  0.1022  0.3374 -0.2909
24249W        W42453   3.872   8.919  15.778  0.0651  0.0619 -0.0352
24250W        W42454   6.550   6.976  11.249 -0.3201 -0.1481  0.0637
24251W        W42455   3.884   0.136   3.192  0.4754 -0.1950  0.4205
24252W        W42456   6.827   0.972   4.232 -0.1193 -0.0224 -0.0347
24253W        W42457  10.971   6.724  14.114  0.2355  0.0743 -0.2138
24254W        W42458   0.509   0.841   4.809 -0.1766 -0.0584 -0.2395
24255W        W42459  10.178   3.641  15.585  0.3154  0.0016 -0.0343
24256W        W42460   3.607   1.747   2.450  0.1313 -0.0021 -0.1325
24257W        W42461  17.295   5.574   4.273  0.0572  0.1951  0.1964
24258W        W42462  11.598   2.936   0.117 -0.1735 -0.2870  0.3342
24259W        W42463  11.761  17.900  13.865 -0.0654  0.2184  0.3290
24260W        W42464  11.163   6.863   0.219  0.0237  0.0898  0.1615
24261W        W42465   6.652  12.017  12.076 -0.1729  0.1853 -0.2734
24262W        W42466   9.331   5.835  12.336  0.0157 -0.0130 -0.0418
24263W        W42467   4.844  14.598  14.231  0.1587  0.1648  0.1213
24264W        W42468   7.013  15.066   2.541 -0.2059 -0.2921 -0.1916
24265W        W42469  14.026   7.964  13.811 -0.0846 -0.1245 -0.1107
24266W        W42470  14.692   1.004  13.207  0.1067 -0.1132  0.0016
24267W        W42471  11.594   5.864  13.839  0.1230 -0.0973  0.2305
24268W        W42472  16.770  11.824   5.280 -0.0588 -0.1648  0.1464
24269W        W42473   9.600  16.179   4.499  0.2027 -0.1368 -0.1502
24270W        W42474   3.644  15.094   0.442 -0.3608 -0.2236 -0.1516
24271W        W42475  17.984   1.598   5.248 -0.1680 -0.0061 -0.0500
24272W        W42476   1.061  15.045  13.188 -0.2418 -0.0465 -0.0067
24273W        W42477  14.360  13.699   2.083  0.2524  0.2235 -0.3791
24274W        W42478  10.455  13.778   0.979  0.0983 -0.0364 -0.0240
24275W        W42479  14.920  12.052   6.051 -0.1638 -0.1968 -0.0482
24276W        W42480  13.577   8.897   3.662 -0.0483  0.1471 -0.2314
24277W        W42481   0.499   1.281   0.882  0.0656 -0.0107 -0.0642
24278W        W42482  15.815  16.735  12.977  0.0544  0.0536 -0.4894
24279W        W42483   7.172   7.447  11.874 -0.1985  0.0340 -0.3294
24280W        W42484  15.450  12.570  11.867 -0.2104  0.2453 -0.1632
24281W        W42485  15.987  17.742   1.303 -0.1950  0.2173 -0.1683
24282W        W42486   8.271  15.814   2.241  0.0370 -0.0785 -0.2898
24283W        W42487   4.551  12.922   4.731  0.0562 -0.0592  0.0716
24284W        W42488   4.535  17.821   3.979  0.1739  0.3764 -0.0573
24285W        W42489  16.133   6.633   1.415  0.1768 -0.0250  0.0534
24286W        W42490  13.113   1.495  13.749 -0.1829  0.0048  0.1066
24287W        W42491   5.750  15.924  15.963 -0.0438 -0.0033  0.1111
24288W        W42492   1.979  16.186   1.753  0.0603  0.0049  0.0584
24289W        W42493  11.277   1.521  11.906  0.4184  0.0960  0.1962
24290W        W42494   3.404   1.948  15.545  0.1205 -0.0170 -0.4190
24291W        W42495  15.451   6.071  13.082 -0.3628 -0.1028 -0.0630
24292W        W42496   9.132  14.358   4.136 -0.2111 -0.0178 -0.2176
24293W        W42497   9.521   1.282   2.409 -0.0686  0.0271  0.2110
24294W        W42498  14.014  16.146   1.757  0.0248  0.1879  0.3693
24295W        W42499   2.720  12.637   0.555  0.1671  0.0526  0.0118
24296W        W42500  11.456   9.731   2.170  0.1252  0.1715  0.1137
24297W        W42501   8.114   6.162   0.158  0.0222 -0.1977  0.1730
24298W        W42502   3.953   7.727  12.061  0.2216  0.2235 -0.1147
24299W        W42503   4.086   1.526   2.469 -0.1943  0.0985  0.0570
24300W        W42504  11.929   8.677   4.464  0.0127  0.0583 -0.0538
24301W        W42505   1.873   6.092   0.166 -0.1665  0.0176  0.2238
24302W        W42506   1.423  11.071   0.751 -0.2623 -0.3104  0.0372
24303W        W42507  10.836  13.938   2.064 -0.2734 -0.2961  0.1312
24304W        W42508   7.493   0.418  15.738  0.1065  0.1895  0.1466
24305W        W42509   5.601   8.395   1.288  0.0204 -0.2331  0.0866
24306W        W42510   1.607  13.359   4.791 -0.0997 -0.1810  0.2075
24307W        W42511  12.042   5.208   5.406 -0.0950  0.0208 -0.2353
24308W        W42512  16.940   1.838  13.448  0.1675 -0.0131 -0.2856
24309W        W42513   7.672  11.627   2.920  0.1954  0.2394 -0.2449
24310W        W42514   8.105  14.235   1.985  0.2810 -0.0031  0.1347
24311W        W42515   3.877  11.363   1.651 -0.2854  0.0581 -0.1840
24312W        W42516   2.961  17.626   1.152  0.2725  0.0437 -0.0880
24313W        W42517  17.248  17.982  14.588  0.2642  0.2799 -0.0646
24314W        W42518   7.918   4.422  16.035 -0.0640 -0.0658  0.0264
24315W        W42519   1.602  14.145   0.768 -0.3273 -0.2233 -0.2724
24316W        W42520  10.127  13.771   1.758  0.3054 -0.5365  0.1230
24317W        W42521  13.216   3.076  13.852  0.0907 -0.0787  0.1351
24318W        W42522   8.804  15.454  13.241  0.0197 -0.0889  0.0628
24319W        W42523   8.933   3.037   0.468 -0.1192  0.0075  0.3952
24320W        W42524   9.406   0.323   0.661 -0.1286 -0.0290  0.2719
24321W        W42525  11.252   9.304   2.964 -0.0746 -0.0767  0.3001
24322W        W42526   5.427   2.320   3.601 -0.3233 -0.0750  0.0214
24323W        W42527   4.042   6.879   2.260 -0.2080 -0.2681 -0.1650
24324W        W42528  12.191  16.114   0.958 -0.2378 -0.0687 -0.2668
24325W        W42529  10.403   3.710  11.070  0.0578 -0.0145 -0.0819
24326W        W42530   8.629   0.259  15.710  0.0590  0.1029  0.0448
24327W        W42531   6.806   2.185   2.972 -0.1408  0.0779 -0.1184
24328W        W42532   0.654  16.027   3.784  0.0275 -0.2251  0.0822
24329W        W42533   6.911   8.819   4.705  0.1408 -0.2608  0.0555
24330W        W42534   2.595  17.371   1.852 -0.1295 -0.0368 -0.4417
24331W        W42535  11.545   9.868   3.302  0.0310  0.2292  0.0543
24332W        W42536   0.177   1.021  16.151 -0.0180  0.0444  0.4780
24333W        W42537  17.553   5.781  13.747  0.3258 -0.1453 -0.1630
24334W        W42538   8.601   9.395  15.146  0.3166  0.0657 -0.1661
24335W        W42539  11.534   6.416  11.402 -0.1493  0.0847 -0.3345
24336W        W42540  16.110   5.252   3.936 -0.5577  0.2162  0.0222
24337W        W42541   2.150   8.459  14.331 -0.1326 -0.4665  0.2800
24338W        W42542   3.986  11.307  13.317 -0.0284 -0.1315  0.1440
24339W        W42543  16.750  17.405  12.027 -0.1489 -0.3729  0.1732
24340W        W42544   4.969   0.658  13.543  0.0152 -0.0298  0.0201
24341W        W42545   9.572  15.611  10.719  0.0078  0.1108  0.1118
24342W        W42546   7.983   5.962  13.722 -0.0884  0.2604 -0.0919
24343W        W42547  12.958  17.499   4.075  0.0210 -0.2345 -0.3361
24344W        W42548  10.829   7.315   4.142  0.0104  0.0860  0.1554
24345W        W42549  16.521   2.379  12.119  0.0084  0.0658 -0.0026
24346W        W42550   6.338   3.417  15.431  0.1625  0.0078  0.0581
24347W        W42551   7.799   4.843  14.231 -0.0636 -0.1820 -0.2405
24348W        W42552   2.300  16.082  12.242  0.3176  0.3324  0.1176
24349W        W42553  12.630   9.866   4.103 -0.0117 -0.2308 -0.1170
24350W        W42554  18.037   3.673  14.953  0.0947  0.0749  0.3859
24351W        W42555   0.233   0.380   3.441 -0.1997  0.0666  0.3589
24352W        W42556   3.195   0.572   2.451  0.2330 -0.1941 -0.0764
24353W        W42557   9.512   7.154  13.012  0.0762 -0.0884  0.0631
24354W        W42558  13.315   4.688   0.587  0.0188  0.2095 -0.0372
24355W        W42559   6.368   0.170   4.667 -0.0145 -0.1403 -0.0028
24356W        W42560  15.336   5.140  14.830  0.0834  0.1442 -0.1045
24357W        W42561  10.550  15.232   3.971 -0.0626  0.1240 -0.1275
24358W        W42562  16.558   4.289   1.377 -0.2011 -0.2184  0.3025
24359W        W42563   8.678   9.565  13.379 -0.0609 -0.1487  0.1623
24360W        W42564  17.010   9.848   2.623  0.1168 -0.0857  0.1177
24361W        W42565  12.004   3.395   2.144  0.0571 -0.1098 -0.0734
24362W        W42566   3.410  16.208   2.083  0.0933  0.0289 -0.2365
24363W        W42567   5.831   3.549  15.546  0.3251  0.1692 -0.1068
24364W        W42568  14.611   4.976  14.779  0.1997  0.2273 -0.0333
24365W        W42569  15.732   6.394   5.649  0.1365  0.3299  0.0621
24366W        W42570   7.371  16.275   2.104  0.4290 -0.0177 -0.3867
24367W        W42571   6.559   8.310   3.169 -0.4052 -0.1523 -0.3254
24368W        W42572   5.572   5.670   3.228 -0.0495  0.1005 -0.0368
24369W        W42573   1.241   8.570  11.659  0.0099  0.2605 -0.0283
24370W        W42574  16.057   8.142   2.945  0.1459  0.0301  0.3166
24371W        W42575  10.958   1.146   5.989  0.0801 -0.1321 -0.1649
24372W        W42576   7.028  10.141   4.872  0.0513  0.0843 -0.0626
24373W        W42577  17.318   6.390  15.264 -0.2413  0.1801  0.0055
24374W        W42578  15.962   3.826  11.607  0.1831  0.0700  0.0283
24375W        W42579  11.729  10.675   5.695  0.0001  0.0761 -0.2010
24376W        W42580   8.096   0.924   3.491  0.2890 -0.0555 -0.1824
24377W        W42581   3.592  17.240   1.884 -0.2328  0.0951 -0.2761
24378W        W42582  10.428   3.974  14.979  0.0867 -0.2255 -0.1010
24379W        W42583   0.851  14.061  15.044 -0.0607  0.0908  0.2516
24380W        W42584  11.999   1.465  10.343 -0.0233 -0.0662 -0.3537
24381W        W42585   1.887   5.071   3.996  0.0613  0.2544  0.0749
24382W        W42586   3.556  16.781   0.519  0.0541 -0.0059 -0.4001
24383W        W42587  12.704   4.495  13.428  0.1538  0.4119  0.1066
24384W        W42588  12.016  16.521   3.234 -0.6251  0.0984 -0.0206
24385W        W42589  15.637   5.276   1.668 -0.1398 -0.2796 -0.2557
24386W        W42590  14.997   0.794  13.622  0.3346 -0.0477 -0.2886
24387W        W42591   1.010  17.853   1.323  0.2718 -0.0654  0.1361
24388W        W42592  11.569  10.208  11.507  0.0894  0.0872 -0.3157
24389W        W42593  11.787  13.691  12.102 -0.0760 -0.0798 -0.0647
24390W        W42594  17.482  15.859   0.774  0.1619  0.1843 -0.3318
24391W        W42595   7.864   2.407   1.497  0.0772 -0.1443 -0.2396
24392W        W42596  11.511   1.918   3.413 -0.3128 -0.1939  0.2308
24393W        W42597   2.492   7.058  13.317 -0.1261  0.1343  0.0702
24394W        W42598  12.046   1.042  14.417  0.1510  0.0369 -0.0598
24395W        W42599  16.255  13.332   4.746 -0.1143 -0.1418 -0.3057
24396W        W42600  10.513  17.540   2.168 -0.0448  0.2516  0.3149
24397W        W42601  16.112   8.862   0.238 -0.1471  0.0127  0.1934
24398W        W42602   8.330   9.639  14.787 -0.1697  0.0940 -0.0998
24399W        W42603   3.734  17.642   3.876  0.1524 -0.0795 -0.0529
24400W        W42604   5.130  12.104   1.570 -0.2311  0.0959  0.3575
24401W        W42605  17.869   9.054  11.568 -0.0137 -0.0436 -0.1541
24402W        W42606   5.676   8.036   0.415  0.0454  0.0876  0.1741
24403W        W42607   3.874  17.091  11.971 -0.4762  0.0034 -0.1306
24404W        W42608   7.998  14.497  12.206  0.2815 -0.0163  0.2217
24405W        W42609  11.789   8.343  13.696  0.0714  0.1302  0.0393
24406W        W42610   8.814   2.037  12.823 -0.1558 -0.2590  0.0275
24407W        W42611  10.044  13.916  11.662 -0.1850 -0.1942 -0.0580
24408W        W42612  16.288   6.909   4.796 -0.0082  0.2498  0.2144
24409W        W42613  10.857   7.794  14.134  0.2920 -0.1577  0.2770
24410W        W42614  11.622  15.566   2.179  0.1120 -0.2176 -0.0103
24411W        W42615   6.347   5.742   1.171  0.1979  0.2996  0.0307
24412W        W42616   2.745  15.421  10.236  0.1086  0.3592 -0.0854
24413W        W42617  16.332   3.119  11.258 -0.0887 -0.2247 -0.1583
24414W        W42618   0.058  17.787   2.662 -0.2798 -0.2516 -0.0987
24415W        W42619  17.982   5.163   3.022  0.0391  0.1192  0.0751
24416W        W42620   4.887   3.058   3.096  0.1429 -0.2194 -0.0669
24417W        W42621  11.486   3.537  15.662  0.2532 -0.3177 -0.0021
24418W        W42622  17.883  15.483   5.515  0.2793 -0.2925 -0.0235
24419W        W42623  10.866  10.368   4.176  0.1156  0.0841  0.0697
24420W        W42624  16.123  12.571  15.977 -0.0318  0.3288  0.0022
24421W        W42625   4.326   1.002   4.317  0.0217  0.0823  0.0016
24422W        W42626   5.425   6.322   0.560 -0.0633  0.3801  0.0938
24423W        W42627  13.324   1.491   1.303 -0.3659  0.0150  0.1118
24424W        W42628   4.719  10.923   2.554  0.1332  0.0799 -0.2247
24425W        W42629  14.350  11.565  14.782 -0.1230  0.1664 -0.0995
24426W        W42630   4.029   3.656  11.694  0.1745  0.0636 -0.0538
24427W        W42631  11.649   2.694   2.650  0.1058  0.0116 -0.1562
24428W        W42632  13.992  15.174  13.339 -0.4752  0.0698 -0.1612
24429W        W42633   0.471  11.289   2.967  0.0056 -0.0983 -0.0579
24430W        W42634   8.499   6.680   0.842 -0.1637 -0.0722 -0.0622
24431W        W42635  12.476   0.559  15.917 -0.1101 -0.1020 -0.4310
24432W        W42636   9.435  11.869   1.454 -0.0528  0.1466  0.1894
24433W        W42637  17.818  11.141  14.340  0.0581 -0.0946 -0.1415
24434W        W42638   2.732   9.832  12.287  0.2367  0.1118  0.1443
24435W        W42639   1.596   0.937  13.413 -0.2896  0.1292  0.2590
24436W        W42640   8.553   5.612   1.205 -0.1017 -0.1975 -0.1528
24437W        W42641  14.594   5.844  11.896  0.1007 -0.0768  0.3062
24438W        W42642   2.981  17.166  11.707 -0.1815  0.0270 -0.0437
24439W        W42643   0.904   1.199  16.137 -0.2672 -0.1608 -0.2663
24440W        W42644   7.206  16.438  16.006 -0.0864 -0.0733  0.0509
24441W        W42645  11.945   9.846  12.124  0.3657  0.0004 -0.1967
24442W        W42646   7.842  17.860   4.023 -0.2250 -0.0903  0.3590
24443W        W42647   1.850  18.010  15.996  0.1931  0.1905 -0.0211
24444W        W42648  15.476  16.105  10.908 -0.1269  0.0955 -0.0286
24445W        W42649  13.689  16.165   3.551 -0.1981  0.0531 -0.3813
24446W        W42650  14.339   2.069   0.890 -0.0415 -0.1656 -0.2091
24447W        W42651   8.215   7.463  12.204 -0.0191 -0.2010 -0.0396
24448W        W42652  11.641  12.723  12.011 -0.4422 -0.0244  0.2979
24449W        W42653   1.614  14.213   4.056 -0.3321 -0.0764 -0.2632
24450W        W42654  11.442  13.182  15.203  0.0726  0.1609 -0.1465
24451W        W42655  14.675  13.831  11.323 -0.1592  0.0573 -0.0862
24452W        W42656   9.096   7.455   2.925 -0.0449  0.0659 -0.0192
24453W        W42657  10.008  13.195  13.021 -0.3924 -0.0273  0.0694
24454W        W42658  13.925   1.419  15.076 -0.0629  0.1646 -0.1640
24455W        W42659   7.034   8.473   3.011 -0.2289  0.2739  0.0767
24456W        W42660   6.392   8.578   0.719  0.0812  0.0065 -0.1319
24457W        W42661  10.011   8.560  12.497 -0.1102  0.0886 -0.2134
24458W        W42662   8.793   0.067  13.410  0.1885  0.0509  0.1142
24459W        W42663  16.988  14.311  14.880 -0.0524 -0.0285  0.0552
24460W        W42664   7.448   9.512   3.457 -0.1221  0.0480 -0.2975
24461W        W42665   3.440   2.716   4.148 -0.2280  0.0439 -0.2833
24462W        W42666  14.100   6.304   0.321 -0.0122  0.0653 -0.2874
24463W        W42667   3.067  11.959   4.682  0.0981 -0.0914  0.3257
24464W        W42668  14.477  10.538   5.675  0.0020  0.0739 -0.2574
24465W        W42669   3.186   8.706   1.246  0.0614  0.2090 -0.1695
24466W        W42670   7.438  17.396   0.776  0.3781  0.1530 -0.2037
24467W        W42671  13.674  16.145  15.159 -0.2681  0.0506  0.2328
24468W        W42672  11.710   5.116  14.432  0.1937 -0.1409 -0.3427
24469W        W42673  15.786  16.424   9.918 -0.2793 -0.1781  0.0697
24470W        W42674   9.993   0.162   1.977 -0.0986  0.0374 -0.2001
24471W        W42675  15.817  12.382   0.176  0.0375 -0.3245 -0.1867
24472W        W42676  10.972  16.513   2.019 -0.0405 -0.1665  0.1708
24473W        W42677   3.394  18.016   1.839 -0.0426 -0.1088  0.5035
24474W        W42678  16.097  14.364   3.159 -0.0597 -0.1320  0.1365
24475W        W42679  11.385  15.686  13.923 -0.1462  0.2137  0.0581
24476W        W42680  16.414   5.990   2.469  0.2034 -0.0257 -0.3436
24477W        W42681  11.999  14.812   5.639 -0.1658 -0.0199 -0.2445
24478W        W42682  16.667   5.143   4.744 -0.2742 -0.0994 -0.1205
24479W        W42683   9.984  16.031   5.452 -0.0349 -0.1339  0.1011
24480W        W42684   7.838  17.344  11.748 -0.2221  0.1768  0.1876
24481W        W42685   8.232   5.318  15.414  0.3075 -0.1307 -0.1315
24482W        W42686  14.026   3.434   1.699 -0.0912  0.2418 -0.0761
24483W        W42687  17.324   3.756   0.531 -0.0685 -0.2034 -0.0338
24484W        W42688   6.849  15.871  14.983  0.0698 -0.1034  0.0965
24485W        W42689   5.124   9.539  11.316 -0.1476 -0.3863 -0.0285
24486W        W42690   5.816   3.974  16.017 -0.2112 -0.0153 -0.1468
24487W        W42691  17.888   8.627   2.672 -0.0646  0.2188  0.0677
24488W        W42692  16.938  13.023   1.825 -0.1986 -0.2071  0.1822
24489W        W42693  13.226  16.098   1.323  0.3043 -0.1636  0.0146
24490W        W42694  17.382  13.295  15.064  0.3487 -0.1918 -0.1002
24491W        W42695  13.036  17.286   2.317  0.0305 -0.3860  0.0792
24492W        W42696   4.654  14.254  14.576 -0.1142  0.0026  0.1072
24493W        W42697  11.635   1.709   0.783 -0.0264  0.0509 -0.0591
24494W        W42698   2.983   4.658  12.419  0.0604 -0.6054 -0.1401
24495W        W42699   7.356  17.175   2.376  0.1319 -0.2495 -0.1784
24496W        W42700   1.189  16.956   3.322  0.3796  0.2215  0.3574
24497W        W42701  16.146   8.893  14.830 -0.1236 -0.1667 -0.1682
24498W        W42702   1.697  12.195   2.038 -0.3077  0.0012  0.1126
24499W        W42703   7.808  14.104   4.552  0.3843 -0.2123 -0.0842
24500W        W42704   4.682  16.264  11.111 -0.0213 -0.0651 -0.0288
24501W        W42705   6.787   1.700   0.707  0.0317  0.0358 -0.1743
24502W        W42706   6.372  12.774   4.671  0.0016  0.0796  0.1847
24503W        W42707   1.018   2.000  12.898  0.0918  0.1689 -0.1669
24504W        W42708   7.903  11.239  13.846 -0.0476  0.1571 -0.0502
24505W        W42709   6.120  12.766  12.125  0.0256 -0.1798  0.0588
24506W        W42710  10.824   1.559   2.338  0.3238  0.0390 -0.2261
24507W        W42711  17.541   7.802  13.193 -0.4048  0.3226  0.0004
24508W        W42712  14.730   2.793   2.057 -0.1988  0.1823 -0.0396
24509W        W42713   0.589  12.106  13.221  0.2224  0.0412  0.1869
24510W        W42714  13.199  17.358   4.504 -0.0768 -0.0709  0.0761
24511W        W42715  16.405  17.920   4.190 -0.0124 -0.1383  0.0471
24512W        W42716   9.651   8.560  11.550  0.1043 -0.0556 -0.0372
24513W        W42717   4.684  15.258   3.357  0.0249  0.0647 -0.3093
24514W        W42718   9.553  15.476  12.796 -0.1142  0.0595 -0.2429
24515W        W42719   4.404   3.896   4.185 -0.1476 -0.2187 -0.0908
24516W        W42720   0.238  17.663   9.980 -0.2993 -0.1049 -0.2634
24517W        W42721  10.504   0.606   3.668  0.2608  0.2140 -0.0047
24518W        W42722  16.145  16.761   1.961  0.0191  0.0250  0.0403
24519W        W42723   6.703   9.697   5.008  0.0387 -0.0677  0.2087
24520W        W42724  13.171  11.757   4.792  0.2621 -0.0934  0.4464
24521W        W42725  17.713  14.431  14.037 -0.1346  0.2716 -0.0632
24522W        W42726   4.388  14.030  10.398  0.3962  0.2055  0.1845
24523W        W42727  16.171  16.228  12.114 -0.0214 -0.0083 -0.0161
24524W        W42728   6.145  16.084   2.844 -0.3312  0.1542 -0.2446
24525W        W42729  14.844  14.345  11.460 -0.0240 -0.1604  0.0786
24526W        W42730  13.960   7.043  14.932  0.1264 -0.1407 -0.0149
24527W        W42731   8.817  16.896  11.470  0.3410 -0.1500 -0.2795
24528W        W42732  14.133   2.254  13.056 -0.0167  0.0441  0.1699
24529W        W42733  14.307  13.081  14.811 -0.1160  0.0823  0.1159
24530W        W42734   4.231   0.079   1.594  0.0271 -0.0592 -0.2516
24531W        W42735  10.294  10.511  15.776 -0.3354  0.0191  0.1663
24532W        W42736  15.442  14.641   0.485 -0.1266  0.1708 -0.0001
24533W        W42737   8.527   2.105   1.491  0.1301 -0.0902  0.2187
24534W        W42738   8.647   3.339  13.210  0.0369 -0.0112  0.0864
24535W        W42739   1.678  11.406  14.329 -0.0521  0.2888  0.0887
24536W        W42740   6.209   7.519  14.054 -0.0808  0.0560 -0.1937
24537W        W42741   3.852   1.240  12.595  0.2317  0.2347  0.0554
24538W        W42742   0.458  13.509  12.284 -0.0295  0.1367  0.0029
24539W        W42743  14.267  14.369  12.189 -0.4041 -0.4280 -0.3781
24540W        W42744   9.906  17.450  16.123  0.4106 -0.0098  0.3390
24541W        W42745   4.510   7.427  14.582  0.1143 -0.1833 -0.0773
24542W        W42746   5.610   0.509   2.182  0.0793  0.3847  0.2600
24543W        W42747   9.050   1.980  14.249  0.2939  0.3775 -0.0118
24544W        W42748  11.542   4.069   2.575 -0.2093 -0.1822  0.1011
24545W        W42749   0.480   0.461  11.436  0.0344 -0.0070  0.1958
24546W        W42750  13.611   3.653   0.373  0.0129  0.0696  0.0364
24547W        W42751   7.860   3.374  11.217 -0.1041  0.0643  0.1793
24548W        W42752  13.186  17.726  14.874  0.0802 -0.1464  0.1918
24549W        W42753  10.820   6.418  11.716  0.1297  0.1110 -0.1768
24550W        W42754  12.089   6.150  15.012  0.3912 -0.0196  0.0604
24551W        W42755  14.639   7.594   0.375 -0.0033  0.0101 -0.2949
24552W        W42756   6.288   2.082  11.185 -0.2361  0.2756 -0.1249
24553W        W42757  13.436  13.341  13.073  0.0188 -0.0852 -0.2704
24554W        W42758   2.842  17.205  14.631  0.0852  0.0424  0.0610
24555W        W42759   4.181   7.843  14.646 -0.2012  0.1232 -0.0424
24556W        W42760  11.017   3.135  14.707  0.0919  0.1966 -0.0982
24557W        W42761   8.818   3.474   1.579 -0.0083 -0.1645  0.2623
24558W        W42762   7.066   3.101  11.531  0.2383 -0.0363  0.1995
24559W        W42763  13.204  10.180  12.928 -0.0831  0.1077  0.0035
24560W        W42764   7.128  12.809  12.610  0.3435 -0.0408  0.2432
24561W        W42765   5.902  14.558  12.908  0.3674  0.1480 -0.2075
24562W        W42766   4.956  12.217   1.096  0.0573  0.2764  0.0467
24563W        W42767   2.216  14.939  14.993  0.1061 -0.1882 -0.3782
24564W        W42768   3.281   0.539  12.648 -0.2349  0.1091  0.1120
24565W        W42769  12.121  17.148  15.651 -0.2166  0.1637  0.1202
24566W        W42770   5.290   7.732   0.511 -0.0414 -0.1051 -0.0688
24567W        W42771   3.371  13.232  14.030 -0.1181  0.2479 -0.0040
24568W        W42772   4.412   8.222  14.923 -0.3864  0.1222 -0.1724
24569W        W42773   1.498   3.822  11.307 -0.0743  0.0930 -0.2688
24570W        W42774  13.201  16.459   2.042 -0.0730  0.1853 -0.0219
24571W        W42775  10.622  14.903  16.117 -0.0230 -0.0406  0.1239
24572W        W42776   2.133   4.119   1.661 -0.2012 -0.1228 -0.2265
24573W        W42777   1.099  16.584  11.185 -0.0747  0.0063 -0.0780
24574W        W42778  16.147   6.441   3.868  0.1908 -0.1015 -0.0826
24575W        W42779   8.010   6.753   2.229  0.1433 -0.0346 -0.1666
24576W        W42780   2.675   0.446   5.598 -0.1387  0.3564  0.2272
24577W        W42781  12.778   5.509   0.890  0.1301 -0.0724  0.1409
24578W        W42782   9.399   6.815   4.967 -0.3634  0.1849 -0.0099
24579W        W42783   6.883  16.584   2.914 -0.0116 -0.2780 -0.0577
24580W        W42784  15.456  11.249   1.429  0.0547 -0.0798  0.0994
24581W        W42785   8.473   5.115   2.047  0.1304  0.1057 -0.1970
24582W        W42786   4.181   4.203  15.559  0.3831 -0.1921 -0.1634
24583W        W42787   5.570   6.879   2.375  0.2447  0.4054  0.0651
24584W        W42788  16.506  10.355   0.981  0.3359  0.0999  0.0400
24585W        W42789  12.546  14.328   1.377  0.1169  0.1444 -0.0871
24586W        W42790  10.713  17.300  11.619  0.0191 -0.0839  0.0551
24587W        W42791   2.638  16.032  12.772 -0.1344 -0.1834  0.0124
24588W        W42792   9.481  11.761   4.236 -0.0836  0.2236 -0.1855
24589W        W42793  14.076   3.160   0.044  0.0640  0.1091  0.1703
24590W        W42794  17.200  10.967   4.694  0.0480 -0.0769  0.1034
24591W        W42795  16.928   7.254  13.093 -0.0590 -0.4161  0.2778
24592W        W42796   8.739   6.362  13.439  0.3155 -0.4188  0.2376
24593W        W42797   2.297  10.913   0.530 -0.0790 -0.1947 -0.2995
24594W        W42798  13.100  10.262   4.163  0.2482  0.0561 -0.0898
24595W        W42799   3.678   6.765   5.548 -0.0988  0.0197 -0.1607
24596W        W42800   1.869  11.754  13.046  0.1319 -0.3566  0.1860
24597W        W42801  17.457   8.543   0.177 -0.2490  0.3551  0.0466
24598W        W42802   4.368   6.266   4.833 -0.1713  0.0378  0.1572
24599W        W42803   4.633  14.660   5.457  0.1350 -0.1469  0.0743
24600W        W42804   5.726  12.052  12.076  0.0361  0.0973  0.1160
24601W        W42805   1.037   6.067  11.688  0.0077 -0.3208  0.0496
24602W        W42806   9.988   1.028  12.937 -0.0159 -0.1132 -0.1890
24603W        W42807   5.628   1.651  12.561 -0.1059 -0.2166  0.0781
24604W        W42808   1.312   6.381  12.865  0.2506  0.2183  0.1875
24605W        W42809  12.480   0.408  13.691  0.0661 -0.0956 -0.0581
24606W        W42810   2.370   2.536   2.277 -0.1236 -0.0186  0.0726
24607W        W42811  16.781   1.200  11.643 -0.0273  0.1171  0.0635
24608W        W42812   1.084   4.632   1.663  0.2037 -0.0555  0.0393
24609W        W42813   3.110  10.419  15.405  0.0138 -0.0817 -0.0159
24610W        W42814   0.978   6.973   2.016 -0.3686 -0.0942  0.1107
24611W        W42815   2.901  14.432   1.514 -0.2318 -0.0769 -0.0376
24612W        W42816   9.541  14.765  13.202  0.2852 -0.1817 -0.0573
24613W        W42817  16.158  13.917  11.984  0.0124  0.2265 -0.1245
24614W        W42818   4.205   7.510   0.739 -0.0130  0.3692  0.4108
24615W        W42819   7.200  10.319   2.954 -0.3246 -0.0701  0.2077
24616W        W42820  16.733   9.669   6.052  0.2036  0.1053 -0.0751
24617W        W42821   7.588   2.311  15.762  0.0434 -0.1654 -0.0426
24618W        W42822  16.800   8.323  11.954  0.0373 -0.0034  0.1043
24619W        W42823   6.642   1.259  10.540 -0.2404 -0.2647 -0.1636
24620W        W42824   3.441  14.872   4.778 -0.0458 -0.1252 -0.0719
24621W        W42825  17.524   9.508   0.206  0.0560  0.2085  0.2341
24622W        W42826   4.739   1.081  11.712 -0.0264  0.2875 -0.0286
24623W        W42827  17.399   7.721  15.480 -0.1006 -0.0541  0.1060
24624W        W42828   6.328   2.216   3.099 -0.1558 -0.1053 -0.0880
24625W        W42829   3.730  17.986  15.398 -0.0298  0.2107 -0.2558
24626W        W42830  10.570  13.783  15.309  0.0369  0.0320  0.1460
24627W        W42831  10.621  17.057   3.364  0.1057 -0.1580  0.0127
24628W        W42832   1.695   5.516   4.578  0.4597  0.0205  0.3336
24629W        W42833  14.937  11.550   3.473  0.0654 -0.0997 -0.3386
24630W        W42834   4.643  10.800   4.856  0.4414  0.5784  0.1748
24631W        W42835  12.526   1.137  11.706  0.1632  0.2439 -0.0661
24632W        W42836  14.253  16.024   3.164 -0.2827  0.3098  0.0419
24633W        W42837   1.705   0.869   4.220 -0.0709 -0.0978  0.0780
24634W        W42838  16.845   7.464  12.644 -0.4993  0.2964 -0.1607
24635W        W42839   2.521  11.738   0.852  0.3044  0.4417 -0.2022
24636W        W42840   7.067   5.367   5.177  0.1866 -0.0970  0.3025
24637W        W42841   2.615   5.384  12.515  0.4234  0.0262 -0.1675
24638W        W42842   6.840  14.993  15.734 -0.1113 -0.2219  0.0283
24639W        W42843  16.208   8.935  12.306 -0.0471 -0.4316  0.0300
24640W        W42844  12.637   5.385   1.353 -0.3278  0.2321 -0.1501
24641W        W42845   0.390   0.771   0.865 -0.1036  0.2231  0.2623
24642W        W42846  11.742   5.398  13.592 -0.1516 -0.1905 -0.1653
24643W        W42847   6.911  14.126   4.070 -0.0084 -0.0064  0.0164
24644W        W42848   7.627   6.655   4.109  0.1064 -0.1294 -0.0908
24645W        W42849  16.038  11.807  13.036  0.0493 -0.3103  0.0601
24646W        W42850   4.734   4.419  12.124 -0.2299 -0.4338 -0.0020
24647W        W42851   6.687  10.912  14.302  0.2448  0.2423  0.0676
24648W        W42852  14.325   8.841  13.461  0.0351 -0.0233  0.2215
24649W        W42853   8.339   9.064   0.194  0.0547  0.1408  0.1029
24650W        W42854  17.944   7.673  15.955 -0.1029  0.0467  0.3180
24651W        W42855   2.747   5.375   0.400 -0.0679 -0.0734 -0.0527
24652W        W42856  12.995   1.093  11.966  0.1469 -0.2552 -0.0187
24653W        W42857   5.369   2.864   3.301  0.0092 -0.2427  0.0678
24654W        W42858   4.797  12.099   4.644 -0.1606 -0.1651  0.0242
24655W        W42859  11.562   0.937  13.281  0.1035  0.0353 -0.3176
24656W        W42860  15.625   9.772   3.232  0.5142  0.2173 -0.1390
24657W        W42861  10.565  14.484   2.234 -0.0190 -0.1499  0.2126
24658W        W42862   8.588  16.257   0.938  0.0478  0.0212  0.0406
24659W        W42863   3.543  11.450   2.221 -0.0127  0.0053  0.0470
24660W        W42864   9.395  14.486   2.514 -0.0277  0.2162  0.1025
24661W        W42865   1.959   3.665  12.556  0.0751 -0.2340  0.2410
24662W        W42866  12.691   8.817  12.011  0.2123  0.2428  0.0869
24663W        W42867   2.643   4.271   1.745 -0.0139  0.1857  0.2235
24664W        W42868   5.386   0.557  11.516 -0.0719  0.2817 -0.0574
24665W        W42869   3.887  10.174  11.933  0.0814 -0.1832 -0.1137
24666W        W42870  10.904  12.950  13.563 -0.0937  0.6734 -0.0278
24667W        W42871  11.269  16.954   2.612  0.3634  0.1234 -0.0307
24668W        W42872   2.891   9.055  13.078  0.0033 -0.1432 -0.2037
24669W        W42873   1.027  12.257  11.204  0.0593 -0.1310 -0.0222
24670W        W42874   8.878  14.097   1.481 -0.1305 -0.0128 -0.1315
24671W        W42875   0.373  16.996   4.147 -0.4787  0.0462  0.0001
24672W        W42876   2.934   3.524   1.420  0.0515  0.2150  0.0973
24673W        W42877  13.066  10.154   1.219 -0.0765  0.0835  0.0490
24674W        W42878   3.329  17.987  14.420 -0.1410 -0.1428  0.2911
24675W        W42879   7.587   8.281  16.103 -0.2724 -0.0353 -0.0823
24676W        W42880  11.585   8.075  13.266  0.0217 -0.0391 -0.2836
24677W        W42881   7.404   7.661   1.397  0.3934 -0.3363 -0.0242
24678W        W42882  16.694   9.246   1.414 -0.1184 -0.2647 -0.1837
24679W        W42883   3.410  15.686  15.454  0.0513  0.1232 -0.4005
24680W        W42884  12.194   2.263  14.850 -0.0067 -0.1540 -0.0394
24681W        W42885   2.438   4.993  15.859  0.1056 -0.1424  0.1420
24682W        W42886  14.507   5.127   1.450  0.1397  0.1639 -0.1826
24683W        W42887   0.854  15.172  11.586 -0.0033 -0.0232 -0.1458
24684W        W42888   2.486   3.117   0.373 -0.1039 -0.1745 -0.1429
24685W        W42889  11.777   5.756   2.472 -0.2553  0.1314 -0.2197
24686W        W42890   5.291   1.840   1.050  0.0306  0.0261  0.1803
24687W        W42891  15.439   0.617   3.019 -0.4443 -0.1343 -0.0101
24688W        W42892   2.933   6.855   3.532 -0.0900  0.2010 -0.1716
24689W        W42893  15.342  10.349  13.258  0.0523  0.1905 -0.1912
24690W        W42894  12.357   4.073   4.104 -0.0703 -0.0552  0.0105
24691W        W42895  16.259  11.689  13.461  0.0927 -0.1989 -0.1990
24692W        W42896  12.743   4.212   2.756  0.1555 -0.0067 -0.0411
24693W        W42897  12.812   1.277   0.428 -0.0279  0.2533  0.0064
24694W        W42898   3.371   3.574   1.908  0.0381  0.3003  0.0209
24695W        W42899  17.850   3.616  13.081 -0.2759  0.2955 -0.1063
24696W        W42900   2.144   5.849   5.593  0.2692  0.0175  0.0887
24697W        W42901  14.809  10.666  14.594 -0.0207 -0.0840  0.0785
24698W        W42902  17.174  13.751   3.681  0.3246 -0.0309  0.3391
24699W        W42903  15.622   8.299   1.560  0.2539 -0.2864  0.0104
24700W        W42904  12.921   4.552   0.884 -0.1518  0.2919 -0.2456
24701W        W42905  17.121  13.932  14.602 -0.1541  0.1025 -0.1221
24702W        W42906  11.962  11.803   3.350  0.1796 -0.0270 -0.0114
24703W        W42907  12.197   6.223   4.154  0.0011  0.1104 -0.0256
24704W        W42908  13.797   3.237   5.110  0.0943 -0.1909 -0.0374
24705W        W42909   0.817   3.936   4.070  0.0244  0.0757 -0.0396
24706W        W42910   9.700  17.696  15.667 -0.3723 -0.0160 -0.1733
24707W        W42911   9.008   9.663  10.303 -0.1483 -0.1277 -0.2553
24708W        W42912   5.999  17.475   4.810 -0.3834  0.2062  0.1449
24709W        W42913  12.462   8.264   2.160 -0.1207  0.1630  0.1036
24710W        W42914   5.215   2.067   3.057  0.0809 -0.0010 -0.0672
24711W        W42915   3.971  16.567  13.208 -0.1063 -0.1281 -0.1768
24712W        W42916   2.436  11.302   3.539  0.2506 -0.0562  0.2754
24713W        W42917   6.233  14.367   0.147 -0.1769  0.0758  0.0437
24714W        W42918  16.225   6.004  15.925 -0.0516 -0.2453 -0.2432
24715W        W42919  15.174   6.960   2.731  0.1765 -0.0189  0.0227
24716W        W42920  17.528  16.346  14.221 -0.0507  0.1780 -0.0264
24717W        W42921  12.153   0.362  12.634 -0.1459 -0.0776 -0.1026
24718W        W42922  13.595   5.881   4.401 -0.1580 -0.2124 -0.1867
24719W        W42923  14.182  14.453  13.220 -0.1834 -0.1665 -0.0163
24720W        W42924   3.285   9.425   0.625  0.0846  0.2941  0.0196
24721W        W42925   8.279   6.668  16.177  0.0141 -0.2769  0.2196
24722W        W42926  13.404  17.642  13.786 -0.1610 -0.1679  0.0097
24723W        W42927   1.676   0.261   2.133 -0.1477 -0.1548  0.0522
24724W        W42928   9.621  11.130  11.170 -0.0599  0.0216 -0.0798
24725W        W42929   4.798  17.399   5.192 -0.1453 -0.1778 -0.3097
24726W        W42930   0.742  17.959   2.165  0.1202  0.1845 -0.0304
24727W        W42931   5.005   0.874   3.862 -0.1041 -0.0227  0.2484
24728W        W42932   4.633  10.114  14.301  0.3677 -0.2331 -0.1606
24729W        W42933  17.784   4.324   3.085 -0.0295  0.3186 -0.1787
24730W        W42934   0.506   3.242  12.507  0.2450 -0.1143  0.1034
24731W        W42935   4.428   5.541  11.904 -0.0783  0.1491  0.0037
24732W        W42936   0.761  16.966  15.752  0.0156 -0.1544 -0.0889
24733W        W42937   5.225  15.395   0.375  0.1692  0.0831  0.3309
24734W        W42938  14.438   1.183  11.311 -0.0496 -0.0191  0.2434
24735W        W42939   1.387  12.244   3.816 -0.3068 -0.0000  0.0948
24736W        W42940   4.340  10.168  16.052 -0.0851  0.0611 -0.1267
24737W        W42941   9.067  17.472  15.111  0.3839 -0.1071 -0.0218
24738W        W42942  13.705  10.331   2.870  0.1839  0.1331  0.3266
24739W        W42943   5.190  13.770  11.595 -0.2603 -0.1694  0.2624
24740W        W42944  13.823  16.296  10.790 -0.2381  0.2093 -0.0758
24741W        W42945   0.848  12.996   2.324 -0.1261  0.0502  0.1531
24742W        W42946  11.794  16.894  11.647  0.1222  0.0634 -0.0285
24743W        W42947   6.039  11.353  14.237  0.0062  0.2470 -0.0881
24744W        W42948  10.863   6.292  15.865  0.4649 -0.0404  0.0908
24745W        W42949   6.239   5.392  13.304 -0.1478  0.0162 -0.2467
24746W        W42950  16.960  12.046  12.206 -0.0596 -0.0550 -0.0929
24747W        W42951  15.755  14.895  15.842 -0.0945 -0.1867 -0.2299
24748W        W42952   8.798  14.349  14.891  0.1118  0.1588  0.3074
24749W        W42953   7.578  16.349   0.578  0.0428 -0.2958 -0.3950
24750W        W42954  11.743   5.786   4.986 -0.2020 -0.3018  0.0208
24751W        W42955   2.745  11.522  14.451  0.0445  0.1449  0.0602
24752W        W42956  16.257  16.218   9.825 -0.0964  0.1331 -0.2676
24753W        W42957  10.018   2.561  16.104  0.1958  0.1257  0.1609
24754W        W42958  10.614   4.582  15.266 -0.1261 -0.2837 -0.3788
24755W        W42959   5.752   1.048   1.254  0.0766  0.0061 -0.0994
24756W        W42960   2.622   5.577   1.446  0.0534  0.0239 -0.1836
24757W        W42961   7.977   4.593  15.559 -0.0088  0.2111 -0.1072
24758W        W42962   9.352   6.360  11.462  0.0754 -0.0178  0.1199
24759W        W42963   4.827   3.154   2.556  0.0222 -0.1150 -0.2530
24760W        W42964   1.599   9.786  13.084  0.3027  0.1343 -0.0070
24761W        W42965   0.920  16.584  12.935 -0.0129  0.2250 -0.1635
24762W        W42966   6.446  10.652   2.969  0.0707  0.0493 -0.0053
24763W        W42967  14.913   8.742   4.459 -0.0741  0.0185  0.0088
24764W        W42968  11.234   3.950  14.323  0.0085 -0.2305 -0.2416
24765W        W42969  14.010   1.296  12.826  0.0735  0.2677  0.2257
24766W        W42970   0.939   7.499   0.796  0.0265 -0.0532  0.2249
24767W        W42971   4.932  17.557   2.442  0.2870  0.0836 -0.0484
24768W        W42972   9.129  15.288  14.145  0.0726 -0.1697  0.0076
24769W        W42973  14.961   9.017   1.567 -0.0014 -0.0211  0.2677
24770W        W42974   6.651  14.702   0.049 -0.0861  0.0902  0.3086
24771W        W42975   7.790  16.422   2.543  0.0742  0.1204 -0.1810
24772W        W42976  11.484   3.805   6.115  0.0591  0.1602  0.0150
24773W        W42977   6.915  14.161   4.600 -0.0118  0.3636 -0.0386
24774W        W42978   7.158   5.919   1.288  0.0338 -0.2671  0.4633
24775W        W42979  15.753  15.339  14.228  0.0498 -0.1087  0.0366
24776W        W42980  16.299   1.954   3.626  0.3608 -0.0175 -0.0021
24777W        W42981  10.106   9.321  16.167  0.0662 -0.2760 -0.0192
24778W        W42982  17.378  11.721   0.681 -0.2527 -0.0029 -0.1203
24779W        W42983  11.265   3.562  13.934 -0.1203 -0.2303 -0.0548
24780W        W42984   2.461   7.404  16.018 -0.1147  0.1160  0.2129
24781W        W42985  16.767   5.363  16.011 -0.1026 -0.2081  0.0826
24782W        W42986   5.186  11.332  11.648  0.0437 -0.1204  0.1794
24783W        W42987  13.282  13.102  12.482  0.3946 -0.0947  0.1585
24784W        W42988  14.151   9.175  12.458  0.1750 -0.0544  0.2813
24785W        W42989  10.525  10.005   4.227  0.0317 -0.0078 -0.1843
24786W        W42990   2.493  17.860   1.062 -0.1804 -0.0630  0.0492
24787W        W42991   4.287  13.406  11.119 -0.0619  0.1447  0.1930
24788W        W42992   8.067  16.699  13.895 -0.2185  0.0829  0.2177
24789W        W42993  17.889  14.458   4.117 -0.0841  0.1837 -0.2808
24790W        W42994  11.844   4.933  13.456  0.2648 -0.1207 -0.1395
24791W        W42995  10.090  13.805  12.926 -0.1441 -0.0133 -0.0362
24792W        W42996  12.002  17.557   2.307 -0.0909  0.0020  0.1128
24793W        W42997  16.103   6.144   5.339 -0.4188 -0.1560  0.2603
24794W        W42998   0.149   9.612   4.062 -0.3331 -0.2309 -0.2676
24795W        W42999   7.130  12.084  12.784 -0.0442  0.1773 -0.1360
24796W        W43000   8.072  16.131   3.155 -0.1410  0.0213 -0.0660
24797W        W43001   7.148   4.874   3.354  0.1389 -0.0088  0.1939
24798W        W43002  12.309  16.898  11.500  0.0223 -0.1357 -0.1360
24799W        W43003  13.427  17.478  13.221 -0.0578  0.1462  0.2964
24800W        W43004   4.372  15.615   1.765  0.0477  0.0837 -0.1372
24801W        W43005   4.768   8.512  14.684 -0.3048  0.1926 -0.2302
24802W        W43006   0.237   8.131  15.318 -0.1309 -0.0829 -0.0681
24803W        W43007  16.561   8.059   3.220 -0.0341  0.1686  0.1724
24804W        W43008  13.585  17.163  11.757  0.0068 -0.1742  0.0483
24805W        W43009  12.533   7.579  12.691 -0.1821 -0.0950  0.1314
24806W        W43010  12.701  17.569   2.658  0.0015  0.1916 -0.1332
24807W        W43011   8.078  13.180  14.469  0.1284 -0.1533  0.1866
24808W        W43012  10.274   1.122   4.413 -0.0955 -0.2031  0.1804
24809W        W43013  17.829  10.057   3.383 -0.0669  0.0619 -0.1305
24810W        W43014   1.624  12.980   1.432  0.2481  0.0355 -0.2270
24811W        W43015   0.490   5.644  12.474 -0.1428  0.0548 -0.0041
24812W        W43016  12.600   2.063  15.108 -0.3720  0.3756 -0.0156
24813W        W43017   9.683   9.599   3.606  0.1033 -0.1879 -0.1430
24814W        W43018  17.044   8.142  14.605 -0.1672  0.0892 -0.0244
24815W        W43019   4.768   6.455   1.389 -0.1168  0.1865 -0.2421
24816W        W43020   4.490   7.864   0.442 -0.0330  0.0101 -0.3177
24817W        W43021  15.434   7.250   4.644 -0.0345 -0.2367  0.2177
24818W        W43022  10.802   9.576  15.715 -0.1027 -0.1505 -0.2407
24819W        W43023   3.222   1.085  15.956  0.1433 -0.2819  0.0038
24820W        W43024   2.999   9.612   5.149 -0.0322  0.1947  0.0547
24821W        W43025  14.689   1.841   1.926 -0.0950 -0.2753  0.1208
24822W        W43026   9.736  14.742  12.354  0.1568  0.0198  0.3076
24823W        W43027  11.310  10.661  12.487 -0.1152  0.2635  0.1631
24824W        W43028  16.170   2.671   4.754 -0.0627 -0.4445 -0.1905
24825W        W43029   2.163  13.921  14.849  0.0111  0.1195  0.4508
24826W        W43030   0.370  13.526   2.628  0.1193 -0.3288  0.1303
24827W        W43031   5.503  17.502   2.318 -0.1319  0.1072  0.1449
24828W        W43032   9.876   4.655   1.146 -0.0705 -0.2267  0.0595
24829W        W43033   3.861  13.690   2.927 -0.0737  0.0250 -0.1610
24830W        W43034   4.818   5.469   4.452 -0.3229 -0.3765 -0.0043
24831W        W43035  16.068   1.351  15.784  0.0074  0.0506 -0.0119
24832W        W43036   7.774  11.749   2.048 -0.1539 -0.1997 -0.1569
24833W        W43037  10.749   8.784  12.963 -0.2062 -0.1576  0.1375
24834W        W43038  16.642   8.745  13.031  0.3994 -0.0083  0.0727
24835W        W43039   2.875  11.528   4.382 -0.1278 -0.2242 -0.3020
24836W        W43040   5.943   7.840   4.589 -0.0175 -0.0056  0.0394
24837W        W43041   2.770  12.887  10.353  0.0009 -0.0928  0.1568
24838W        W43042  17.186   5.631  11.299 -0.1019 -0.3507  0.0540
24839W        W43043  10.093   7.942   0.221  0.3432  0.0601  0.2212
24840W        W43044   9.049  16.226   5.695 -0.1535 -0.2338  0.0495
24841W        W43045   7.957  15.506  12.974 -0.1671 -0.1706 -0.2048
24842W        W43046  15.552   1.668   3.104 -0.1238 -0.1994 -0.1447
24843W        W43047  14.571  12.667   1.733 -0.1309  0.2917 -0.0644
24844W        W43048   8.823   9.964  13.613  0.0716  0.2150 -0.0599
24845W        W43049   1.254   8.264  15.796 -0.2339  0.1499  0.1322
24846W        W43050  12.353  13.424   0.962  0.2229 -0.1670  0.1715
24847W        W43051   9.853   7.687   3.096  0.0261  0.1199  0.1775
24848W        W43052  12.899  12.739  15.302 -0.2548  0.0466  0.1002
24849W        W43053   4.048  17.356   2.079 -0.0208  0.0140 -0.1835
24850W        W43054   4.725  10.514  11.630  0.0819 -0.0013 -0.1351
24851W        W43055   4.732   0.334  11.639 -0.0351  0.3173 -0.0359
24852W        W43056   6.730   7.526   0.704  0.0251 -0.1131  0.0226
24853W        W43057  12.187   7.363   1.054 -0.4326  0.1953  0.0313
24854W        W43058   3.615   6.987   2.545 -0.1156  0.1835  0.0827
24855W        W43059   9.626  17.984   3.556 -0.2049  0.3650 -0.0953
24856W        W43060   0.582  16.997  13.973  0.0003 -0.2812  0.6351
24857W        W43061   6.025   6.783   2.589  0.2697 -0.1822  0.2362
24858W        W43062  16.487  13.369   0.327  0.1472  0.0247  0.4006
24859W        W43063   0.522   9.954  15.756 -0.1026  0.1214  0.0966
24860W        W43064   5.133  15.444   1.239 -0.0478  0.0244  0.1058
24861W        W43065  17.867   1.100  12.602  0.1170  0.1240  0.0470
24862W        W43066  15.055   7.642   4.501  0.1544  0.1069 -0.1853
24863W        W43067   9.327   7.342   3.340  0.0676 -0.0737 -0.2417
24864W        W43068   8.736  13.877  11.693  0.0270 -0.0113  0.4459
24865W        W43069   9.675   5.007   4.695  0.0302  0.2791 -0.1814
24866W        W43070  17.525   3.766   3.671  0.3160 -0.0061 -0.0786
24867W        W43071  13.842  16.319   0.862  0.1086 -0.2367 -0.2750
24868W        W43072  17.790   9.142  12.518 -0.0417  0.1097 -0.1760
24869W        W43073   0.405   8.501   3.521  0.0705 -0.0215 -0.0968
24870W        W43074   1.844   1.701   0.601  0.2721  0.1491 -0.1892
24871W        W43075   6.310   6.839   3.638  0.1368  0.2551 -0.0682
24872W        W43076  17.472  12.857   1.022 -0.0793 -0.5503 -0.1528
24873W        W43077   2.693   1.476   5.779  0.0318  0.2355  0.1469
24874W        W43078  11.075  10.390  13.496 -0.1283 -0.0464 -0.1583
24875W        W43079   1.007   3.381  12.545 -0.1461  0.0608  0.0964
24876W        W43080   0.676  10.761  10.480  0.1216 -0.0884 -0.3056
24877W        W43081   0.054   9.501  10.484 -0.1580 -0.2876 -0.1681
24878W        W43082  11.422   4.980   1.402  0.0720 -0.2157  0.2588
24879W        W43083   2.781   9.445   2.069  0.1589 -0.1382  0.3360
24880W        W43084   4.058   4.399  12.638 -0.2164 -0.0417  0.0984
24881W        W43085   5.549  16.644  12.680 -0.1507 -0.1032 -0.1365
24882W        W43086   8.157   0.022  11.245  0.2547 -0.3667 -0.0286
24883W        W43087  10.855   8.276  12.092 -0.2818  0.2015  0.0294
24884W        W43088   2.168   0.815   0.036 -0.0323 -0.1410 -0.2309
24885W        W43089   8.953   9.951   0.591 -0.0628  0.0362  0.1249
24886W        W43090  17.534  16.686   0.649 -0.2169  0.4238  0.2138
24887W        W43091  10.109  13.448  12.534  0.0773  0.3790  0.0124
24888W        W43092   5.559   2.782  11.307  0.0822 -0.1195  0.1984
24889W        W43093  15.906  13.751  11.035  0.1217 -0.2396 -0.0170
24890W        W43094  14.868  13.147   2.044  0.1876  0.0586  0.0617
24891W        W43095   6.348   8.911  13.446 -0.0927 -0.0703  0.0125
24892W        W43096  15.731  15.947  12.274  0.2714  0.0430 -0.4304
24893W        W43097   7.501   4.218  14.873  0.1348 -0.0375  0.0724
24894W        W43098   1.278   3.351  11.341  0.1663  0.1012  0.0169
24895W        W43099  12.847  14.180   4.802  0.0767  0.1785 -0.1537
24896W        W43100   6.771   3.789  13.933  0.0771 -0.2298 -0.1733
24897W        W43101   3.437  13.652   3.604 -0.6388 -0.0294  0.1420
24898W        W43102  16.215  12.521   0.916 -0.2249 -0.1220  0.1516
24899W        W43103  12.940  11.782   2.225 -0.0389  0.0278  0.2317
24900W        W43104  16.034   7.658   3.192 -0.0293  0.0241  0.1939
24901W        W43105   2.420  13.043  12.185 -0.3074 -0.3009 -0.2091
24902W        W43106   9.137  11.871  13.927  0.0153 -0.1281 -0.1080
24903W        W43107   7.052  10.878  12.231 -0.1664  0.2454  0.0908
24904W        W43108   2.198   3.384  11.694  0.1757 -0.2202 -0.2611
24905W        W43109  13.981  17.271  16.039 -0.2712  0.1373  0.0513
24906W        W43110  15.568   8.327   0.703 -0.0709  0.3481  0.2133
24907W        W43111  12.380   7.644   2.023 -0.1687 -0.1125 -0.0526
24908W        W43112   8.256   6.789  12.514 -0.0159  0.2690  0.0501
24909W        W43113   3.870   1.827   4.261  0.2308  0.0971 -0.0214
24910W        W43114   1.326  14.392  15.393  0.0551  0.2390  0.1618
24911W        W43115   9.827   4.836   5.128  0.0587  0.0410 -0.0539
24912W        W43116   0.670   9.428   2.529  0.0635 -0.3605  0.0652
24913W        W43117  12.149  13.959  11.918  0.1531 -0.0689 -0.1992
24914W        W43118   0.341   5.516   1.155 -0.1902  0.1660 -0.0406
24915W        W43119  12.369   5.138   2.214  0.1719  0.2860  0.0810
24916W        W43120  16.770   0.398   3.888 -0.0376  0.0373 -0.0521
24917W        W43121   4.223   3.625   1.965  0.0531 -0.0744 -0.1532
24918W        W43122  10.788  17.315  12.452  0.3410  0.4780  0.0882
24919W        W43123  17.651   5.218   5.089 -0.1921 -0.1035 -0.0589
24920W        W43124  13.454  11.330   0.453 -0.1550 -0.0929  0.0633
24921W        W43125  15.530  16.079  15.780 -0.4793  0.1102 -0.0882
24922W        W43126  14.253   9.925  15.039  0.2342  0.0242 -0.1619
24923W        W43127  10.150  17.752  13.476  0.0352 -0.0341  0.2513
24924W        W43128   8.445   6.302  12.413  0.1927  0.0576  0.1262
24925W        W43129   6.594  17.686  15.041 -0.0937  0.0983  0.3239
24926W        W43130  11.764   6.568  11.924  0.0799  0.3049 -0.1707
24927W        W43131   1.567   8.491  15.362 -0.2225  0.0796 -0.0195
24928W        W43132   1.686   5.627   0.271  0.0836 -0.0157  0.0445
24929W        W43133   3.588  13.904  12.337 -0.0681  0.0229 -0.0324
24930W        W43134   8.668  10.836  13.964  0.0498  0.3440  0.1626
24931W        W43135   7.805  13.511  15.823 -0.0682  0.3789  0.1505
24932W        W43136   6.116   7.371  16.175 -0.1991  0.1143 -0.0511
24933W        W43137  17.561  16.170   0.445  0.0092 -0.1946  0.0272
24934W        W43138   3.441   6.847  14.395 -0.2518 -0.1779  0.0722
24935W        W43139   6.441   3.086  12.818 -0.1558  0.0266 -0.2524
24936W        W43140   3.085  16.826   1.531  0.1501  0.1939 -0.1858
24937W        W43141  12.663   0.622  11.679 -0.2911 -0.1661 -0.0227
24938W        W43142   5.941   6.101   4.083 -0.1594  0.0066 -0.1113
24939W        W43143   1.585   9.810   3.672 -0.0875  0.1758  0.1663
24940W        W43144   8.287  16.543  14.344  0.1572  0.2259  0.0874
24941W        W43145   9.895   9.242  12.996  0.2575 -0.4259  0.1116
24942W        W43146  13.067  13.600   2.077 -0.0002 -0.1075  0.0564
24943W        W43147   1.257  16.509  15.131  0.0874 -0.1074  0.2636
24944W        W43148  16.452  11.354  11.958 -0.0134  0.2415 -0.0002
24945W        W43149   3.755  12.097  12.279  0.3210 -0.1231 -0.0067
24946W        W43150  13.138  16.778  14.433 -0.3846  0.3349 -0.3383
24947W        W43151   3.904  15.410   1.677  0.2369  0.4564 -0.2785
24948W        W43152  15.032  13.616   2.822  0.2110  0.3485 -0.1883
24949W        W43153   0.543  14.732   3.122 -0.3632 -0.0472 -0.0521
24950W        W43154   5.744   5.228  11.614 -0.0664 -0.0573  0.0306
24951W        W43155   0.056  16.476   1.844  0.0688 -0.0478 -0.0052
24952W        W43156  10.910   1.016   3.134 -0.3025 -0.0119  0.1042
24953W        W43157   1.225   7.390   2.113 -0.1259  0.2427  0.2750
24954W        W43158   7.860   8.064  11.560  0.0946 -0.0822  0.1000
24955W        W43159  14.460   9.646   4.539 -0.1474 -0.0052 -0.0237
24956W        W43160  10.561   3.236   5.165 -0.1833 -0.0813  0.0568
24957W        W43161   0.439  16.889  12.509  0.2976 -0.2386  0.0150
24958W        W43162   5.749   3.190   1.331  0.0001 -0.1458 -0.1670
24959W        W43163  10.092   3.608  12.876  0.0614 -0.0484 -0.0235
24960W        W43164  10.929  17.370   4.372 -0.2981 -0.3470 -0.0940
24961W        W43165  13.903  12.172   2.763 -0.0048  0.1886 -0.1761
24962W        W43166  17.238   0.604  13.184 -0.1767 -0.1144  0.2245
24963W        W43167   2.476  15.211  15.470  0.1670 -0.0102 -0.3215
24964W        W43168  11.117  18.023  11.475 -0.0031 -0.5083  0.0001
24965W        W43169  14.274  15.517   3.157 -0.1990  0.0448  0.1653
24966W        W43170   1.562  17.365  14.734  0.0061  0.0541  0.0510
24967W        W43171  17.291   8.234  15.393 -0.0134 -0.1947  0.1863
24968W        W43172   2.016  17.473  14.485 -0.1613  0.2445 -0.0479
24969W        W43173   7.239  13.940  14.555  0.0998 -0.1648  0.1039
24970W        W43174   7.051  11.834  14.792 -0.1679  0.0084  0.1425
24971W        W43175  14.180   6.168   2.166  0.2709 -0.2569 -0.0218
24972W        W43176   3.957  17.772   2.897  0.1028  0.1933  0.0979
24973W        W43177   1.205   6.586  13.374 -0.0336  0.0658  0.1324
24974W        W43178   8.942  12.106  12.992 -0.0711  0.1780 -0.3009
24975W        W43179   7.422   4.096   3.259 -0.0549 -0.3060 -0.1686
24976W        W43180   7.083  15.831  11.298 -0.1676  0.0149  0.0140
24977W        W43181   5.583  15.831  12.329 -0.0081 -0.1242  0.0870
24978W        W43182   5.237   5.243   0.317  0.2755 -0.0724  0.3347
24979W        W43183  14.906   3.276  13.648 -0.3931 -0.1543 -0.0799
24980W        W43184  10.757   1.415   4.321 -0.0101  0.3255  0.2493
24981W        W43185   2.042   3.644   2.960  0.0049  0.0511  0.1777
24982W        W43186  12.719  13.077  12.998  0.1634  0.2467 -0.0301
24983W        W43187   5.823   1.013   3.365 -0.1196  0.0322  0.2961
24984W        W43188   5.975  14.970   2.103 -0.2420  0.0641  0.0974
24985W        W43189   8.528   2.484   5.001  0.1181  0.0343 -0.2694
24986W        W43190   3.677   9.462   0.905 -0.2285  0.1586 -0.1469
24987W        W43191   5.362  12.540   3.932 -0.0024 -0.2472  0.0075
24988W        W43192   0.525  11.828  14.133  0.0398  0.0060  0.0807
24989W        W43193  16.902   6.010   4.707  0.0090  0.3833 -0.1299
24990W        W43194   0.603   3.993  15.445 -0.3000  0.0791 -0.0160
24991W        W43195   0.153   1.124  15.132  0.1969 -0.1933 -0.2003
24992W        W43196  13.952   9.837   3.808  0.1294  0.2461 -0.2279
24993W        W43197   0.827   3.010   3.057 -0.1382  0.3092  0.0043
24994W        W43198  10.008  17.795   4.500 -0.1356  0.0170  0.3397
24995W        W43199   1.897   4.505   1.912 -0.2942 -0.2304  0.0944
24996W        W43200   3.296   3.779   3.137  0.3593 -0.3463  0.1346
24997W        W43201   8.906   4.078   0.693 -0.0012 -0.0336  0.2235
24998W        W43202   3.191  17.119   5.057  0.1057 -0.2018  0.0112
24999W        W43203   4.429   9.263   1.290 -0.0031  0.0692  0.2251
25000W        W43204   1.786   6.519   4.373 -0.3673 -0.0716 -0.0594
25001W        W43205  13.886   6.081   5.089  0.2231 -0.0201 -0.0030
25002W        W43206   7.653   1.802  12.019 -0.2533  0.0461 -0.0563
25003W        W43207   8.449   1.655   3.698 -0.1007 -0.1336 -0.0720
25004W        W43208   2.658   3.110   4.749  0.0312  0.1037 -0.3436
25005W        W43209  13.159   7.167   1.541 -0.1269 -0.1162 -0.0438
25006W        W43210  16.778  16.154  13.092  0.1553 -0.3632  0.2583
25007W        W43211   0.362  12.330   2.520 -0.1637  0.0499  0.0675
25008W        W43212  10.586   2.067   3.232 -0.2156 -0.1004  0.0122
25009W        W43213  17.821  11.649   4.152  0.1687 -0.2175 -0.1560
25010W        W43214  13.614  12.877  11.491  0.0864 -0.1009 -0.3149
25011W        W43215  17.551  11.021   1.445 -0.1041 -0.4855 -0.0644
25012W        W43216  13.044   7.694   5.340  0.0631  0.4151 -0.2886
25013W        W43217  14.743   6.849  13.438  0.0838  0.0406  0.1960
25014W        W43218  13.998  17.196   4.905  0.0781 -0.0908 -0.0836
25015W        W43219   5.728   4.085  14.761 -0.2368 -0.1416  0.0245
25016W        W43220   7.883   3.662   0.149  0.0222  0.2212  0.1463
25017W        W43221  17.602   5.817   3.424 -0.2820 -0.0920 -0.0616
25018W        W43222   1.455  14.980  12.756 -0.2723 -0.4442 -0.1166
25019W        W43223   8.415   7.625  16.084 -0.1238  0.1882 -0.0074
25020W        W43224   5.746   6.342  13.212  0.2040 -0.0230 -0.0062
25021W        W43225   6.114   2.437   0.734  0.3692  0.0966  0.1192
25022W        W43226   1.049  15.035   3.218 -0.1190 -0.2007 -0.1135
25023W        W43227   4.794  16.862   3.615  0.0376  0.1074 -0.1495
25024W        W43228   5.630   9.169  15.440  0.2133  0.0240 -0.0191
25025W        W43229   5.126   1.489  12.378 -0.2110  0.0132  0.1952
25026W        W43230   6.381  11.336  12.072  0.0628 -0.1778  0.1305
25027W        W43231   2.955  12.815   4.604  0.0215  0.1473 -0.1327
25028W        W43232  12.040  14.754   2.066  0.1816  0.0752  0.1472
25029W        W43233  17.152   9.255  12.184  0.2707 -0.0710  0.2953
25030W        W43234  15.938  13.839   2.614 -0.1185 -0.2017  0.1034
25031W        W43235  11.558   3.618   3.377  0.2197 -0.1113  0.1707
25032W        W43236   7.670  15.800  14.623  0.0813  0.0114 -0.2601
25033W        W43237  11.206  12.758  14.250  0.1976  0.1650  0.1759
25034W        W43238   5.400   9.129  13.271 -0.1380 -0.3902  0.1108
25035W        W43239  10.125   0.054   1.018 -0.0215 -0.2758 -0.2014
25036W        W43240  10.953   4.549   0.752 -0.0457 -0.0285  0.1435
25037W        W43241  15.763   6.811   2.255  0.0538 -0.0231 -0.2040
25038W        W43242  13.402   6.777  11.030  0.0137 -0.3220 -0.2135
25039W        W43243  13.648  15.634   4.809 -0.2543 -0.0579  0.0637
25040W        W43244  11.207   9.990   2.501 -0.1233  0.0820  0.0926
25041W        W43245  14.413   7.820   6.108 -0.2238  0.0184  0.1703
25042W        W43246   6.319  10.614  14.081  0.0151 -0.0605 -0.1553
25043W        W43247   6.506   6.043   2.970  0.0343 -0.0967  0.3043
25044W        W43248   3.647  17.497  10.479 -0.1463 -0.0813  0.2167
25045W        W43249   1.785  15.513  15.070  0.2114  0.2061 -0.2046
25046W        W43250  13.993  15.447  12.131 -0.2147  0.4303 -0.0777
25047W        W43251  11.233   2.489   2.513  0.1596 -0.1497  0.0022
25048W        W43252   6.976   9.948   3.189  0.0445  0.1664  0.1574
25049W        W43253   5.545  14.631   0.012 -0.0215 -0.0682 -0.0632
25050W        W43254  17.545  17.443  12.753  0.0390  0.1515  0.0773
25051W        W43255   8.596   4.211   0.220  0.1332  0.3251 -0.3456
25052W        W43256   3.274  12.128  11.924  0.0249 -0.0769  0.1878
25053W        W43257  12.895  12.204   2.480 -0.0336 -0.1996  0.0948
25054W        W43258  14.235  10.010  15.635  0.1954  0.1382 -0.5683
25055W        W43259   4.560  14.849   1.857 -0.3354 -0.2317 -0.2377
25056W        W43260   7.739  16.410  12.036 -0.0907  0.1433 -0.0360
25057W        W43261  16.149   9.304  13.784 -0.0656 -0.0845  0.1777
25058W        W43262  17.873   8.332  14.537  0.1822 -0.2702 -0.1117
25059W        W43263  12.758  16.337  15.956 -0.3011 -0.2500 -0.0839
25060W        W43264   9.540   1.634   2.764 -0.0242 -0.0409 -0.1681
25061W        W43265  12.248  10.178   4.213 -0.0638  0.0125 -0.0473
25062W        W43266   9.012   1.013  16.153 -0.1482 -0.2436 -0.1667
25063W        W43267   5.585   5.052  12.602  0.2576 -0.0375  0.1733
25064W        W43268   7.207   6.384   2.291  0.0794  0.3261 -0.1512
25065W        W43269   7.167   4.004   1.617  0.1294 -0.2255  0.3042
25066W        W43270   4.024  16.906  11.082 -0.1318 -0.1127  0.0216
25067W        W43271  14.800   5.320   5.137 -0.0703  0.2821 -0.3499
25068W        W43272   1.837   9.286   2.101  0.0762  0.2760 -0.1340
25069W        W43273   7.319  11.255  12.402 -0.2658  0.0006  0.1359
25070W        W43274  12.476   1.040  13.251  0.0863  0.1874 -0.2435
25071W        W43275  13.186  12.131  14.489  0.0963 -0.2978 -0.0792
25072W        W43276   2.310   2.772   4.403 -0.0103 -0.0190 -0.1238
25073W        W43277   6.660  12.915   3.597 -0.2897 -0.0717 -0.5022
25074W        W43278   7.663  13.091  16.150  0.3247  0.0262  0.1658
25075W        W43279  12.269  17.221  12.264 -0.2762 -0.2212  0.0496
25076W        W43280   8.772   7.490  13.318  0.2321  0.0701  0.2330
25077W        W43281  13.688   8.672   4.401 -0.3123  0.3635 -0.2951
25078W        W43282   5.598  17.650  11.343  0.0583 -0.1257  0.1893
25079W        W43283   9.943   3.536  13.534  0.0521  0.1435 -0.1934
25080W        W43284  16.496   1.150  15.995  0.0325  0.1038 -0.0611
25081W        W43285  16.511  13.243   2.995 -0.2605  0.1399  0.1387
25082W        W43286   6.572  17.824  14.146  0.2267 -0.1199 -0.0189
25083W        W43287   4.788   1.072   0.119 -0.0408 -0.0523 -0.1297
25084W        W43288   7.028   2.268  13.736  0.3996  0.0184  0.0227
25085W        W43289  13.156   5.129  15.014 -0.0050  0.1074  0.1384
25086W        W43290   2.509  10.528   2.895 -0.0077 -0.1649  0.1311
25087W        W43291  13.306   8.277   2.403 -0.2038  0.3323 -0.2362
25088W        W43292  12.595   7.778   3.973  0.1257  0.0417  0.2748
25089W        W43293   3.186  10.968   1.572  0.1865  0.0915  0.2747
25090W        W43294   1.978  16.719   1.858 -0.0857 -0.1468 -0.3688
25091W        W43295  12.344   6.339   1.373 -0.0865 -0.1729  0.0678
25092W        W43296   0.192  11.375   4.112  0.0493 -0.0962 -0.2258
25093W        W43297   0.996   9.736   3.587  0.0575 -0.2506  0.2096
25094W        W43298  16.660  13.238  13.076  0.0277 -0.0586  0.3164
25095W        W43299   4.304   9.655   2.222  0.1367 -0.2162 -0.0421
25096W        W43300  12.157   3.367   5.235 -0.0554 -0.1446  0.1175
25097W        W43301   1.308   0.400  14.779 -0.0187  0.2112 -0.0820
25098W        W43302  15.248   3.685  16.139  0.0534  0.3346  0.1648
25099W        W43303  10.070   7.478   4.869  0.0469  0.1415  0.0632
25100W        W43304  17.416  14.023   4.607 -0.3895  0.0208 -0.2488
25101W        W43305   4.394   1.846  14.238 -0.0276  0.2571 -0.0651
25102W        W43306   1.267   2.465   4.762 -0.0525 -0.2605  0.0762
25103W        W43307  16.616  12.913   3.573  0.0601 -0.0724 -0.0605
25104W        W43308   2.031  15.329   2.933 -0.0715 -0.0262  0.3301
25105W        W43309   5.611   6.365   1.085  0.0087  0.0749 -0.0333
25106W        W43310  11.478  13.905   4.843  0.1528  0.3768 -0.1151
25107W        W43311  12.491   0.006  15.771  0.0034  0.1888  0.1216
25108W        W43312  10.502   1.363  15.092 -0.1721 -0.0101 -0.1688
25109W        W43313   4.679   1.633   2.856 -0.0030 -0.4282 -0.2066
25110W        W43314  17.988  14.731  15.752  0.1177 -0.3667  0.3114
25111W        W43315   8.235  13.178  15.218 -0.1516  0.1519 -0.0284
25112W        W43316   1.517   9.041   1.755 -0.3239 -0.0097 -0.1859
25113W        W43317   4.909   7.497  14.245 -0.0753  0.2441  0.1410
25114W        W43318  16.802   0.351  12.313  0.0188 -0.2115  0.2815
25115W        W43319  13.355  15.642  16.052 -0.3564 -0.1369  0.3395
25116W        W43320  12.648   0.531   2.854  0.0766 -0.3662  0.1499
25117W        W43321   9.895  10.095   2.131 -0.0842 -0.0239 -0.0102
25118W        W43322   4.152   3.060   3.828 -0.0320 -0.1184 -0.0437
25119W        W43323   6.249   3.274   1.327 -0.0224 -0.0061  0.0487
25120W        W43324  16.331   0.385  13.702 -0.1578 -0.2672 -0.1742
25121W        W43325  16.053  11.350   3.613  0.0442  0.1716  0.1886
25122W        W43326  14.805   3.804   3.272  0.0574 -0.1466 -0.1753
25123W        W43327  15.263   8.336  13.363  0.0236  0.1020  0.4107
25124W        W43328  12.879   3.398  12.462 -0.2206  0.1124  0.0067
25125W        W43329   4.068   2.219   0.791 -0.3114 -0.1258  0.1525
25126W        W43330   7.096  15.292   4.092  0.1433 -0.1206  0.6772
25127W        W43331   6.180  16.158   0.615  0.5471 -0.1555 -0.0842
25128W        W43332   7.991  14.042   0.309 -0.2572  0.1115 -0.1536
25129W        W43333  16.660  15.009   1.175 -0.1803  0.0275  0.0587
25130W        W43334  13.671  13.285   0.797 -0.4508 -0.0966 -0.1788
25131W        W43335   1.272  15.162   2.661  0.0204  0.0713  0.0945
25132W        W43336   7.896  10.434  14.883  0.0966  0.2647  0.1987
25133W        W43337  17.260   9.755  15.853  0.1370 -0.0802 -0.0140
25134W        W43338   2.776   2.386   0.756  0.0463 -0.0100 -0.1073
25135W        W43339  13.654   0.664  11.030 -0.0591  0.1810  0.1046
25136W        W43340  14.508   2.314  12.087  0.0239 -0.0805  0.2866
25137W        W43341   1.036  15.652   1.494  0.0828  0.0222 -0.0810
25138W        W43342   9.881   1.978  12.114  0.0053  0.2082  0.2349
25139W        W43343  14.973   7.793  13.705 -0.0334 -0.0509  0.0600
25140W        W43344   9.682   6.961   1.108 -0.0607 -0.2739  0.0027
25141W        W43345   8.490   6.996  12.908 -0.2474  0.2090 -0.0889
25142W        W43346  14.227   4.856   0.257 -0.0722 -0.0877 -0.0074
25143W        W43347   3.827  12.131  15.125  0.3656 -0.1307  0.0416
25144W        W43348   9.653  15.586   4.216 -0.1659  0.1064  0.0039
25145W        W43349  12.124   2.162  13.768 -0.0676  0.1574 -0.1235
25146W        W43350  11.371  12.179   4.864  0.2822  0.0139  0.1250
25147W        W43351  16.372  15.365  14.001 -0.0672 -0.1077 -0.1675
25148W        W43352   6.023   5.971  15.522 -0.4180  0.0895 -0.0092
25149W        W43353   0.315   3.572  12.087  0.0532  0.0259  0.0149
25150W        W43354  15.048   0.661   2.746  0.2175  0.0121 -0.1632
25151W        W43355   9.548  17.704  14.140  0.0902  0.0903 -0.3128
25152W        W43356   5.241  15.106   1.631 -0.3889 -0.0916 -0.0755
25153W        W43357  11.666  11.070   0.875  0.5372 -0.0592 -0.1485
25154W        W43358  10.573  10.317  14.717 -0.0317 -0.0304  0.1471
25155W        W43359   8.790  12.268  12.398 -0.0275 -0.0218  0.2967
25156W        W43360  17.850   5.185   1.286  0.0807  0.2187  0.3252
25157W        W43361   7.662   9.728   1.207  0.1270  0.0458  0.1625
25158W        W43362   3.857  16.126  12.820  0.0858  0.0502 -0.0015
25159W        W43363   3.295  12.549   0.535  0.0604 -0.0307 -0.0734
25160W        W43364   8.674  16.557   5.946  0.0520  0.2848  0.1771
25161W        W43365  14.938  10.315  12.293 -0.0277 -0.0967 -0.0105
25162W        W43366  14.295   7.482  11.879  0.3074 -0.0613 -0.0049
25163W        W43367   7.501   9.323  15.890  0.0200  0.2666 -0.2012
25164W        W43368   7.435  12.588   3.749  0.0542  0.1038  0.0031
25165W        W43369  12.701  10.983  15.217  0.1816  0.1918  0.1094
25166W        W43370  12.556   1.556  13.163  0.1151 -0.1155 -0.3180
25167W        W43371   7.989  14.214  14.919  0.1781  0.2589 -0.1587
25168W        W43372   4.807   1.004  15.710 -0.0378  0.0876 -0.1488
25169W        W43373   9.841   0.056   4.082 -0.3681 -0.2377  0.2612
25170W        W43374   5.704   5.011   0.278 -0.0777  0.1151 -0.2376
25171W        W43375   6.111  15.971   1.997 -0.1250 -0.1806 -0.2088
25172W        W43376  15.760   3.567  15.124 -0.1394 -0.0112 -0.1114
25173W        W43377  15.420   9.195  16.101  0.3487  0.0392  0.0817
25174W        W43378  15.990  11.113   1.316  0.0081  0.2851  0.0331
25175W        W43379   0.579  11.671  11.944  0.0189 -0.1351 -0.1770
25176W        W43380   7.999   8.036   0.811  0.1361 -0.1325 -0.0759
25177W        W43381   8.375   7.844   5.442 -0.2535  0.3877  0.2223
25178W        W43382   9.262   9.802   2.814 -0.1589  0.2913  0.1287
25179W        W43383  11.956  10.791  12.584  0.3279 -0.0060  0.2725
25180W        W43384  14.290   2.868   2.951  0.1261 -0.0880  0.0407
25181W        W43385  11.721   9.212   2.942 -0.1772 -0.1248  0.1209
25182W        W43386   6.969   3.533   0.379  0.1572 -0.0976  0.0511
25183W        W43387   0.355  16.845   3.618  0.0591 -0.1166  0.2991
25184W        W43388  17.545   6.862  13.180  0.2480 -0.0057 -0.0956
25185W        W43389  10.346  16.471   3.499  0.3014 -0.0385  0.1649
25186W        W43390  14.075  10.981  12.534  0.1718 -0.0228  0.0725
25187W        W43391  12.339  14.984  14.316 -0.1554  0.0525  0.0521
25188W        W43392  12.950   6.678  11.883  0.1701  0.1342 -0.1174
25189W        W43393   5.589  16.535   3.242  0.2298 -0.1696 -0.0638
25190W        W43394   1.465  13.565  14.323  0.0792  0.1603  0.0230
25191W        W43395  10.117  10.199  11.533 -0.1388 -0.0200 -0.2487
25192W        W43396  14.765  11.066   2.429  0.0821  0.0472 -0.0243
25193W        W43397   2.117   7.227  15.690 -0.1313  0.1732 -0.4904
25194W        W43398  12.662   8.704   2.016 -0.1292  0.0894 -0.1669
25195W        W43399   3.857   5.417   0.939  0.0608 -0.1461  0.0009
25196W        W43400  15.962  13.947   0.818 -0.0053 -0.0332  0.0893
25197W        W43401   0.660  16.740  13.548  0.1908  0.0405 -0.2002
25198W        W43402  17.820  17.129  11.680  0.2585  0.1922 -0.2533
25199W        W43403  17.769  10.137  12.110  0.2368 -0.1019  0.1457
25200W        W43404  16.478   0.054   3.175  0.3018 -0.0825  0.0260
25201W        W43405   3.602  13.398   4.888  0.1205 -0.1564  0.2258
25202W        W43406   7.624  11.638  13.483 -0.0423 -0.2274  0.3454
25203W        W43407  16.777  17.777  13.044 -0.0810  0.0514 -0.0479
25204W        W43408   7.429   9.130  12.538  0.0566  0.5318 -0.0638
25205W        W43409   2.531  12.619   1.806  0.0354  0.1790 -0.1163
25206W        W43410  15.327  12.123   0.894 -0.1675 -0.4446  0.1442
25207W        W43411   2.910  16.786   3.232 -0.0518  0.0379 -0.3591
25208W        W43412  10.341   4.526  12.754  0.1532 -0.0589  0.0053
25209W        W43413  10.799  10.314   0.314 -0.0986  0.0545 -0.0212
25210W        W43414   9.330  15.001   3.227  0.1140  0.1621  0.1143
25211W        W43415   2.206  13.579  13.961  0.1217 -0.0379  0.3113
25212W        W43416   3.845   6.431   3.581 -0.1152  0.2281 -0.1783
25213W        W43417  11.016   3.996  14.768  0.0369  0.4508  0.2514
25214W        W43418  10.612  15.372   0.741  0.2122  0.1293 -0.2239
25215W        W43419  15.758   5.406   2.570  0.2020  0.0956  0.0619
25216W        W43420   6.885   4.827   2.880 -0.2366 -0.3078  0.0489
25217W        W43421   4.021  16.382   3.996 -0.2185 -0.0508 -0.0092
25218W        W43422   2.189   9.760  14.736  0.0992 -0.1648 -0.0489
25219W        W43423   6.741   4.903   0.327  0.0351 -0.3581 -0.0594
25220W        W43424   5.267   2.698   0.943  0.3410  0.2395 -0.1965
25221W        W43425   4.375   5.370   0.036  0.1753  0.0876  0.2221
25222W        W43426   5.135  16.913   5.097  0.1566 -0.3587 -0.0637
25223W        W43427  14.485  15.276   1.407  0.1062 -0.0619 -0.2836
25224W        W43428   7.536  11.529   0.072 -0.1623 -0.2619  0.0037
25225W        W43429   3.190  15.107   0.928 -0.0722 -0.0692 -0.2488
25226W        W43430   8.539   1.975   0.869  0.1110  0.1303  0.1797
25227W        W43431  10.289   9.716  11.729  0.1991 -0.1295 -0.0774
25228W        W43432   7.621  10.162  15.982  0.1693  0.0720 -0.2404
25229W        W43433  10.658  10.416   1.576  0.0605 -0.1021  0.0118
25230W        W43434   5.998  12.349   0.972  0.1229  0.5212 -0.2123
25231W        W43435   2.165   4.491  12.377  0.2423 -0.3181  0.0450
25232W        W43436   4.295  17.525   1.502  0.1046  0.1564 -0.0583
25233W        W43437   3.656  14.830   5.763  0.0289 -0.0891 -0.0598
25234W        W43438   8.374  14.270   1.426 -0.2916  0.1551  0.0323
25235W        W43439  14.275   2.756  12.055  0.0196  0.0103 -0.4121
25236W        W43440   6.414   9.486   4.601 -0.0985 -0.1899 -0.0959
25237W        W43441  11.845  13.371   0.222  0.0871  0.1212  0.1741
25238W        W43442  16.791   0.832   0.745 -0.1894 -0.2730  0.1756
25239W        W43443  15.956   7.677   0.297 -0.3740  0.1202 -0.1220
25240W        W43444   0.134  11.705  13.725 -0.1426 -0.1398  0.1354
25241W        W43445  15.616  17.766  13.705  0.2812  0.0227 -0.0257
25242W        W43446  17.356  10.497   3.244 -0.1636  0.1354 -0.0672
25243W        W43447   6.831   0.287  15.294 -0.0723  0.3909 -0.2432
25244W        W43448   7.325  16.203   2.734 -0.1797  0.0602 -0.0721
25245W        W43449   7.018  13.905  15.990 -0.2358  0.2585  0.2403
25246W        W43450  15.280  15.659   4.639  0.1002 -0.2727 -0.1399
25247W        W43451  11.699  12.570   2.812  0.0735  0.0068 -0.1874
25248W        W43452   0.139   4.038  11.658  0.0092 -0.2431 -0.3411
25249W        W43453   6.849  16.140  12.415  0.0197  0.0634  0.1648
25250W        W43454   0.219   9.776  14.423  0.3467 -0.1038 -0.0734
25251W        W43455   4.386   4.799  15.266  0.0220  0.2576 -0.0722
25252W        W43456  16.272  13.029   0.065 -0.0280  0.2081 -0.0071
25253W        W43457   3.134   9.130  13.973 -0.1584  0.1221  0.0493
25254W        W43458  10.306   1.566  13.409 -0.1096  0.1359 -0.0872
25255W        W43459  11.058   3.436  13.073  0.3515 -0.2445  0.1383
25256W        W43460   6.760   2.254  12.365  0.0165 -0.2088  0.1785
25257W        W43461   9.428  12.508   4.220  0.4448  0.1268  0.2080
25258W        W43462   1.229  10.752  15.137 -0.0539 -0.0656  0.0192
25259W        W43463   4.901  10.563   5.679 -0.1067  0.4788 -0.1121
25260W        W43464  15.126   9.231  12.450  0.1406  0.4320  0.3366
25261W        W43465  14.195   4.252  14.973 -0.1595 -0.1655  0.2076
25262W        W43466  11.056  14.333   2.644 -0.0514  0.1277  0.1009
25263W        W43467  16.300  15.075   3.147  0.0728 -0.0797  0.1043
25264W        W43468   3.429   4.238  15.972  0.0046  0.0133 -0.0052
25265W        W43469  17.741   8.803   5.071  0.5131 -0.0924  0.1566
25266W        W43470   4.541   0.292  12.256 -0.2423  0.1092  0.0931
25267W        W43471  10.500   9.932  14.959  0.0113 -0.1430  0.1716
25268W        W43472   8.765   7.529   2.369  0.2902  0.2007 -0.0741
25269W        W43473   7.893  15.195  15.831  0.0813  0.2356  0.1840
25270W        W43474  16.472   0.530   1.466 -0.1895  0.1615  0.3472
25271W        W43475   6.459   9.205   1.497 -0.0304 -0.3693 -0.0415
25272W        W43476  11.106  15.698   0.189 -0.0186 -0.0670 -0.2336
25273W        W43477   2.488  11.801  15.220  0.0966 -0.1559  0.1650
25274W        W43478  13.721  10.831  15.684  0.0535 -0.0397 -0.1662
25275W        W43479   9.517   4.684  15.810  0.1305  0.2307  0.2033
25276W        W43480  14.450  10.831   4.768  0.4064  0.2365 -0.2844
25277W        W43481   7.393  12.007   1.384 -0.1326  0.1206 -0.2392
25278W        W43482   1.911   6.226   1.166  0.0670  0.0537 -0.0575
25279W        W43483   5.876  10.571   0.916  0.2443  0.2550  0.0557
25280W        W43484   9.736  16.062   3.921  0.1051  0.2230  0.1204
25281W        W43485   5.069   2.846  14.841 -0.2530 -0.0779 -0.0890
25282W        W43486   0.266   5.664   0.273 -0.0051 -0.0475  0.2001
25283W        W43487   7.604  17.583  13.293  0.1267 -0.0421 -0.0277
25284W        W43488   1.842   9.443   0.265  0.0192 -0.1348 -0.0724
25285W        W43489   9.865  11.593  11.122 -0.1760 -0.0591  0.1990
25286W        W43490  17.234  16.794   2.171  0.1065 -0.1070  0.1460
25287W        W43491   1.986   2.081  15.025 -0.1418  0.1710  0.2193
25288W        W43492  14.308   6.890  15.327  0.0576 -0.1342 -0.2068
25289W        W43493   6.921   7.243   1.695 -0.0745 -0.1177 -0.1809
25290W        W43494  17.546  11.321   3.325 -0.0403  0.0050 -0.1639
25291W        W43495  11.572   3.956   2.095  0.0216 -0.0455  0.3571
25292W        W43496   9.902  12.147  11.391 -0.2119 -0.1082 -0.0431
25293W        W43497   7.580  15.816   5.047 -0.0059 -0.0741  0.1202
25294W        W43498   0.626   9.071  13.230  0.0625  0.2101 -0.4789
25295W        W43499  17.025  14.948  14.419 -0.0066 -0.1854  0.1372
25296W        W43500  14.966  16.141  15.467  0.0063  0.1296  0.0967
25297W        W43501  10.092   7.324  14.365 -0.1499  0.1749  0.0191
25298W        W43502  13.874   6.502  13.776 -0.1624 -0.1615  0.1878
25299W        W43503   1.435  17.700   0.003  0.1888 -0.1069 -0.0813
25300W        W43504   2.705   5.717  13.532  0.0464 -0.0993  0.2490
25301W        W43505   2.345  10.428  12.925  0.3543 -0.1483  0.3334
25302W        W43506  16.516   6.512   0.201 -0.0280 -0.1434  0.0876
25303W        W43507  11.737   3.622  15.120 -0.0487 -0.1679  0.2546
25304W        W43508  15.944  10.791  15.854 -0.0394 -0.3816 -0.0041
25305W        W43509  11.470   5.677   2.870  0.1831 -0.1458 -0.1679
25306W        W43510  14.140  16.972  13.759  0.1623 -0.0219  0.0172
25307W        W43511  10.001   8.481   4.010  0.0154 -0.1523  0.0366
25308W        W43512   8.012  16.135  13.715 -0.0390  0.0604  0.0693
25309W        W43513  12.614   1.925  13.701  0.1137 -0.1773  0.1860
25310W        W43514  10.809   5.346  16.143 -0.1476  0.1548  0.2993
25311W        W43515   7.592   9.693  12.035 -0.1646  0.0406 -0.1896
25312W        W43516   4.100   9.518  12.694  0.0026  0.0847  0.2150
25313W        W43517   4.419   8.917   3.630 -0.0195 -0.0139 -0.3314
25314W        W43518  13.180   7.564   1.221 -0.1148  0.1098  0.1867
25315W        W43519   7.299   7.293   0.762 -0.0540  0.0337 -0.0723
25316W        W43520   9.404   7.190   5.365  0.2845 -0.3406 -0.0193
25317W        W43521  11.950   3.895   4.791  0.0341 -0.0968 -0.2930
25318W        W43522  16.178  15.433   3.534  0.2514  0.3093  0.0295
25319W        W43523   3.904  13.300  13.291  0.0961 -0.0942 -0.0856
25320W        W43524   4.092  14.402   2.579 -0.0554  0.0043 -0.0507
25321W        W43525  16.193  15.940   1.170  0.0831  0.3661  0.0237
25322W        W43526  15.118   6.714  12.009 -0.2088 -0.0685  0.2602
25323W        W43527   7.860  13.215  12.262 -0.0827 -0.0598  0.3053
25324W        W43528  16.080  16.678   2.656 -0.3735  0.1497 -0.4395
25325W        W43529  16.793   2.329  13.189  0.1697  0.0039 -0.0218
25326W        W43530   9.410   1.170  11.101  0.1116  0.1990  0.1259
25327W        W43531  17.005  15.678   3.065  0.3943  0.1524 -0.1639
25328W        W43532  11.766   9.778   0.173 -0.0096  0.1589  0.1438
25329W        W43533  15.606   0.493  11.793 -0.0548  0.0994  0.1533
25330W        W43534   5.618   2.249  15.719 -0.0852 -0.0060  0.1795
25331W        W43535   8.858   6.598   2.590  0.0960 -0.0395  0.1153
25332W        W43536   5.596  12.704  12.881  0.0572 -0.4080  0.0510
25333W        W43537   1.957  16.758   4.105  0.0488 -0.0506  0.0642
25334W        W43538   3.326   0.843  14.829  0.0095 -0.0331 -0.5652
25335W        W43539   6.913   5.087   1.090 -0.0542  0.3745 -0.2808
25336W        W43540   9.635  16.400  11.611 -0.3617 -0.0840 -0.0789
25337W        W43541  14.843   2.550  15.265  0.2301  0.0543 -0.1903
25338W        W43542  14.074   7.166  14.448  0.0762 -0.1306  0.0660
25339W        W43543   7.280   4.804  11.442  0.0635  0.0399 -0.0674
25340W        W43544   0.269  12.453  14.246 -0.0911  0.1663  0.4792
25341W        W43545   1.701  12.566  12.358  0.1415  0.0837  0.1625
25342W        W43546  10.913  17.707  13.759  0.0013 -0.0807  0.0214
25343W        W43547  13.666   6.230   1.733  0.1346  0.1423  0.2022
25344W        W43548  10.898  11.484   2.462 -0.2052 -0.1555  0.1452
25345W        W43549  10.227  11.341   1.692 -0.1407 -0.1510  0.1174
25346W        W43550  15.772  12.879  16.174 -0.0195 -0.1135  0.2930
25347W        W43551   7.179   8.137   3.803  0.4849 -0.0126  0.2062
25348W        W43552   7.541  14.445  13.289  0.0218  0.1184 -0.0324
25349W        W43553  12.917   3.213   0.715  0.0956 -0.0188  0.2029
25350W        W43554   4.803   7.272   1.078  0.2126  0.1705  0.0094
25351W        W43555  11.857   8.708   0.148  0.0055  0.0760 -0.0845
25352W        W43556  16.372   5.190   1.362 -0.4199 -0.0257  0.1579
25353W        W43557  12.958   1.960   5.328 -0.0002  0.4982 -0.0950
25354W        W43558  12.654   7.455  13.747  0.4764  0.1634 -0.1414
25355W        W43559   3.562  10.561   3.314  0.1170 -0.2601  0.0313
25356W        W43560  11.606  18.029  11.318 -0.0778 -0.5083 -0.1533
25357W        W43561   7.140   3.633  12.531 -0.0525  0.0189  0.0566
25358W        W43562  16.531  13.279  15.879  0.2884 -0.3137 -0.1557
25359W        W43563  17.349   7.868  11.463  0.0840  0.1252 -0.0586
25360W        W43564  16.430   5.538   2.215 -0.1823  0.2552  0.1395
25361W        W43565   7.684  14.346   4.118 -0.2744  0.2355 -0.0846
25362W        W43566  12.947  16.239   9.615 -0.0758 -0.2811 -0.1343
25363W        W43567  12.567   4.028  12.701  0.1242 -0.0418  0.0656
25364W        W43568  13.516   7.281  12.931 -0.0681  0.0578  0.3821
25365W        W43569  13.119  14.051  13.577 -0.1641 -0.1078 -0.1506
25366W        W43570  13.499   4.256  14.096 -0.0214  0.1347 -0.4326
25367W        W43571   4.523   5.549  15.737 -0.3111 -0.2106  0.0571
25368W        W43572   2.424   4.546   3.668  0.1444  0.0900 -0.1750
25369W        W43573  17.334  15.723  15.245  0.0679  0.1417  0.1432
25370W        W43574   7.711   8.107  13.857  0.1453 -0.3450 -0.0726
25371W        W43575   1.371   3.480   1.379 -0.0586 -0.0188 -0.0057
25372W        W43576   3.597  10.499  12.268 -0.0083 -0.0908  0.0405
25373W        W43577  17.473   5.810  12.237 -0.0988  0.2668  0.3089
25374W        W43578  12.949   7.896  12.970 -0.0402 -0.1847 -0.1993
25375W        W43579  16.413  15.118  13.582 -0.0044  0.0346  0.0461
25376W        W43580   5.942   4.706  13.837 -0.2800  0.2806  0.2885
25377W        W43581   1.087  15.387   0.478 -0.1556 -0.3148 -0.2304
25378W        W43582   2.809  14.159  13.709 -0.1011 -0.2050  0.3535
25379W        W43583  10.761  17.061   1.965  0.0886  0.1576  0.0217
25380W        W43584  14.317   8.262  12.347 -0.0618 -0.0378  0.1763
25381W        W43585  12.513   5.452  12.347  0.2813 -0.2022  0.0213
25382W        W43586  17.527   1.807   0.210  0.0618 -0.3388  0.0679
25383W        W43587  13.307   2.112  13.555  0.1834 -0.0010  0.1470
25384W        W43588   8.308  13.354   0.808 -0.0378  0.1691 -0.0561
25385W        W43589   9.511  16.590  11.129 -0.0335 -0.0525  0.1504
25386W        W43590   7.946   8.178  14.479  0.2804 -0.3186  0.0567
25387W        W43591   8.332  16.960   3.188 -0.0998 -0.1802 -0.3164
25388W        W43592   0.902   1.924  14.133 -0.0117 -0.0210 -0.1539
25389W        W43593  11.830   8.502   3.987 -0.3097 -0.0423  0.0614
25390W        W43594   1.870   6.862   4.000 -0.0573 -0.0651 -0.1934
25391W        W43595  17.036  13.235  15.818  0.1086 -0.1574  0.0678
25392W        W43596  12.786   7.151  15.028 -0.2426  0.1517  0.1064
25393W        W43597   7.095   5.318  13.376  0.2324 -0.1679  0.1462
25394W        W43598  12.009   9.840   2.339 -0.0901 -0.0208  0.0673
25395W        W43599   1.732   0.443  11.791 -0.0181 -0.0321  0.0089
25396W        W43600   4.252   7.349   2.009  0.1171  0.0312  0.1889
25397W        W43601   3.043  11.550  14.062 -0.0016  0.0351 -0.4279
25398W        W43602   7.312   9.782  15.995  0.1619  0.1218  0.0035
25399W        W43603  16.896   2.233   2.143 -0.1559  0.1747  0.2110
25400W        W43604  10.950  13.173  12.416 -0.0583 -0.1726 -0.2473
25401W        W43605   4.524   7.396   1.592  0.0136 -0.0745 -0.0261
25402W        W43606   0.559   4.607   3.403  0.0723 -0.1504 -0.1939
25403W        W43607  10.272   8.271  12.137 -0.2514  0.1454  0.5065
25404W        W43608   2.885   4.600   1.167  0.0348  0.3182 -0.3646
25405W        W43609   1.608   3.044  15.772  0.0301 -0.2042  0.0157
25406W        W43610  12.735   8.131  13.985  0.0262 -0.0323  0.2342
25407W        W43611  16.198   5.313  11.968  0.2408 -0.0490 -0.0113
25408W        W43612  17.403  15.737  12.476  0.2788 -0.0949 -0.1724
25409W        W43613  16.565   4.125  15.749  0.0935 -0.0315 -0.0376
25410W        W43614   0.833   4.980   4.864  0.0695  0.1199  0.0680
25411W        W43615   1.508  15.132  13.407  0.0921 -0.1029  0.1389
25412W        W43616   8.770   4.191  14.994 -0.4319 -0.2378 -0.2726
25413W        W43617   2.335  10.126   2.608 -0.1109 -0.0269  0.0478
25414W        W43618  16.578   6.712   3.733 -0.0964  0.1186  0.1087
25415W        W43619  13.381  14.294   0.042 -0.0492  0.1002 -0.0888
25416W        W43620  13.693  11.786  10.959 -0.0561  0.3035 -0.1138
25417W        W43621   0.123   1.103   4.292 -0.0646 -0.0006 -0.3814
25418W        W43622   0.884  16.090  14.268 -0.1232  0.0153  0.2037
25419W        W43623   4.917  15.872  15.714 -0.1822 -0.0885  0.1759
25420W        W43624   2.109   1.601  11.038 -0.0874  0.0172 -0.1639
25421W        W43625   0.070   7.907  13.662 -0.0014 -0.0404  0.1036
25422W        W43626  15.921   0.582   0.906  0.0308 -0.1573 -0.0162
25423W        W43627   5.863   2.674  15.475  0.1902  0.1458  0.2697
25424W        W43628  13.706  12.154  15.306  0.1761  0.1068  0.0968
25425W        W43629   4.821  17.493   4.264  0.3009  0.1531 -0.3056
25426W        W43630   4.286  13.256   2.104  0.1954 -0.1945  0.0687
25427W        W43631   2.463  17.040   0.095  0.0178  0.1366 -0.1652
25428W        W43632  15.539  11.576   3.663  0.0028 -0.1406  0.0815
25429W        W43633   7.753  11.299  11.617  0.0593  0.0110 -0.1203
25430W        W43634   2.101   1.658  15.718  0.2693  0.3076 -0.0199
25431W        W43635  17.892   2.491  14.462 -0.1859  0.0233  0.2930
25432W        W43636   3.404  12.269  12.523 -0.0305  0.0317  0.3588
25433W        W43637  16.978  16.841  12.084  0.1664 -0.3794  0.1200
25434W        W43638  13.335   6.842  14.903 -0.1826 -0.1074  0.0425
25435W        W43639   0.985   0.970   3.107 -0.3385 -0.0519 -0.3645
25436W        W43640   2.444  15.485   0.897  0.2316 -0.3588 -0.0150
25437W        W43641   5.799  17.309   3.535  0.1408 -0.0375  0.0208
25438W        W43642  11.769   6.521   4.075  0.0858  0.1529  0.0601
25439W        W43643   3.935  13.839   0.294 -0.1487 -0.0506  0.0238
25440W        W43644   3.010  13.646   0.605 -0.0343 -0.1225 -0.0088
25441W        W43645   5.712  10.980   3.991  0.1564  0.0495 -0.0185
25442W        W43646  10.555  14.240   4.791 -0.0185  0.0697 -0.1442
25443W        W43647   3.188   0.877   3.548 -0.1149 -0.1475 -0.0508
25444W        W43648   0.790   6.968  15.084 -0.1904  0.2056 -0.2741
25445W        W43649   9.923  10.604   2.083  0.1004  0.0108 -0.1703
25446W        W43650  13.105   0.097  15.528 -0.1837 -0.2747 -0.0091
25447W        W43651  11.532   4.471   4.271 -0.1438  0.1825  0.2078
25448W        W43652   0.685  13.586  14.379  0.2390 -0.1423 -0.1116
25449W        W43653  17.971  16.826  12.119  0.1587  0.1106 -0.1909
25450W        W43654   6.952   4.510   2.508 -0.2911 -0.1921  0.3628
25451W        W43655   4.952   3.568   2.350  0.0455 -0.0006 -0.0743
25452W        W43656   8.409  16.449  13.524 -0.0394  0.3517  0.0821
25453W        W43657  15.334   2.280  11.408  0.0756  0.0510  0.0051
25454W        W43658  17.039   4.888   1.949  0.2588  0.1484 -0.0053
25455W        W43659   9.631  17.009   2.562 -0.0953  0.0557  0.1489
25456W        W43660   7.189   9.802  13.939  0.0575  0.0986 -0.0986
25457W        W43661   6.974   4.346   3.393 -0.2416  0.2803  0.0569
25458W        W43662  15.214  16.653  14.896  0.2295  0.1175 -0.1437
25459W        W43663  14.929   5.945   0.580 -0.1605  0.0982 -0.2245
25460W        W43664  13.122   8.252  13.685  0.2517  0.2105  0.2025
25461W        W43665  14.582  16.043  14.767  0.2724  0.2705  0.0436
25462W        W43666   4.700  11.226  14.013  0.2742  0.2534 -0.5230
25463W        W43667   9.023   3.276   0.947 -0.2127  0.1570  0.2041
25464W        W43668   7.673  12.691  11.411 -0.0526 -0.0150  0.3355
25465W        W43669   0.654  17.503  11.733 -0.1561 -0.1243 -0.0555
25466W        W43670   0.174   4.386   2.258 -0.0515 -0.1997  0.1789
25467W        W43671   3.942   0.434  14.569 -0.2020 -0.0343  0.0529
25468W        W43672   1.417   1.124  12.910 -0.3027 -0.2754 -0.0101
25469W        W43673   8.056   9.675   3.458 -0.3020  0.0632 -0.0943
25470W        W43674  12.329  14.537  14.143 -0.0246  0.5130  0.1924
25471W        W43675   6.818   1.180   0.632 -0.0620  0.0771 -0.0900
25472W        W43676  17.861  17.214   4.134 -0.0792 -0.1087  0.2733
25473W        W43677  10.977   6.795   1.227 -0.0182  0.0003  0.1387
25474W        W43678   7.883   4.531   1.730 -0.2591  0.1088 -0.0751
25475W        W43679   3.638  13.833  16.093  0.1673  0.0548  0.1320
25476W        W43680   6.388   1.409   0.635  0.0336 -0.0507 -0.1200
25477W        W43681   7.837  17.259   1.746  0.2598 -0.1653  0.0174
25478W        W43682  14.969  11.976   4.780 -0.0111 -0.0089 -0.2112
25479W        W43683  10.334   0.098  12.023 -0.0581  0.2205  0.1826
25480W        W43684  12.121  13.608  12.572 -0.0316  0.0166  0.1967
25481W        W43685   8.391  10.078   0.752  0.0114  0.1454 -0.0138
25482W        W43686   2.424   0.427   4.614 -0.1580  0.3884 -0.0652
25483W        W43687  16.968  14.973  13.524 -0.2841  0.1581  0.1119
25484W        W43688  10.269   5.010   3.913  0.1957  0.0016  0.0396
25485W        W43689   9.146  10.702  13.140  0.0719  0.1187 -0.0273
25486W        W43690  13.965   4.311   3.476 -0.0202  0.0121 -0.2494
25487W        W43691   5.318   4.463   0.866  0.0460 -0.0324 -0.1665
25488W        W43692  10.702   3.647  15.273  0.0001  0.0268  0.0953
25489W        W43693  15.298   5.522  14.532 -0.2182 -0.1731  0.0251
25490W        W43694  10.151   2.813   4.077 -0.0579 -0.4110  0.2340
25491W        W43695  16.877   0.634  12.765 -0.0132  0.3289  0.1005
25492W        W43696  10.367  11.621  12.722  0.2046  0.0269  0.0006
25493W        W43697  15.815  11.603  14.289  0.3204 -0.3595 -0.1471
25494W        W43698  17.367  13.866  15.043  0.2655  0.0446 -0.0069
25495W        W43699  16.332  10.866   3.570 -0.1490 -0.1130 -0.0535
25496W        W43700   3.117  14.371  15.252 -0.1674 -0.0485  0.1038
25497W        W43701  17.175   2.260   3.777  0.0362  0.0841 -0.0434
25498W        W43702   3.156   6.379   3.461  0.2610 -0.1201  0.1203
25499W        W43703  12.815   9.717   1.314 -0.0973  0.0888 -0.0169
25500W        W43704  14.117  10.356   0.338 -0.0501 -0.0784  0.2053
25501W        W43705   6.745   3.279  13.188  0.1752  0.0030  0.1806
25502W        W43706   2.305  17.647   4.316  0.0807  0.0102 -0.2322
25503W        W43707   7.212   8.844   2.181 -0.1939  0.0714 -0.0754
25504W        W43708  10.232  11.025   4.033 -0.0951 -0.0798  0.3124
25505W        W43709   9.804   7.738   4.485  0.0127 -0.2422 -0.2481
25506W        W43710   5.874  15.038   3.911  0.1479 -0.0356 -0.0358
25507W        W43711  12.470   2.480   2.655 -0.0558  0.0975 -0.2857
25508W        W43712  10.791  16.785   0.482 -0.3053 -0.1377  0.1930
25509W        W43713  13.034   4.060  14.133 -0.1078 -0.0226  0.3251
25510W        W43714  14.582   5.670   1.181 -0.0098 -0.0715  0.0462
25511W        W43715   7.677   6.321   2.517  0.2692  0.0880  0.0259
25512W        W43716  13.420  15.240  15.059  0.5732  0.0584  0.0113
25513W        W43717   2.861   1.468  16.143 -0.0142 -0.0380 -0.1744
25514W        W43718  11.717  15.875  12.992  0.0295  0.2787 -0.0377
25515W        W43719  15.633   2.902  12.446  0.2022  0.0140  0.1153
25516W        W43720   5.013   6.787   2.425 -0.0001 -0.0874 -0.1868
25517W        W43721   7.138  14.663   1.374  0.0934 -0.0813  0.0024
25518W        W43722  13.938   5.125  15.087  0.1256 -0.1079 -0.1199
25519W        W43723   2.770  14.242  12.204  0.0267  0.1065 -0.2279
25520W        W43724   0.839   7.563   3.098  0.0803 -0.2730 -0.2560
25521W        W43725   2.866   7.371  15.048 -0.0135  0.1447  0.0662
25522W        W43726  13.303  17.502   0.973 -0.1225 -0.0166 -0.0206
25523W        W43727  12.410   0.802   1.131  0.0994  0.2546  0.0119
25524W        W43728  11.787  11.605  14.451 -0.0700  0.0369  0.4244
25525W        W43729  10.892   1.915  13.881  0.0257  0.0720  0.1747
25526W        W43730   3.225   9.582   3.216 -0.2756  0.2613 -0.0628
25527W        W43731   7.234   6.511  15.287 -0.2787 -0.0715  0.0869
25528W        W43732  15.904  11.038   0.795 -0.0119  0.2204  0.0175
25529W        W43733   5.635  12.328  11.648  0.3269 -0.1783 -0.0664
25530W        W43734   1.839   9.592   0.985 -0.0237  0.1844  0.2477
25531W        W43735  17.326   8.385   0.700 -0.1088  0.0191  0.1138
25532W        W43736  12.250  12.578   1.903 -0.0933 -0.0097  0.1223
25533W        W43737  14.907  16.454   0.251 -0.1579 -0.0536  0.0305
25534W        W43738   9.080  10.525  13.957 -0.0142 -0.1158  0.0108
25535W        W43739  13.321   1.268   0.216  0.0986 -0.2918  0.1278
25536W        W43740  15.937   3.299   0.149 -0.2585 -0.0700  0.0194
25537W        W43741  17.481   1.416  12.843 -0.2454  0.0248 -0.0796
25538W        W43742   3.865   3.040   4.401 -0.2263  0.2364 -0.2530
25539W        W43743  14.022   4.953  15.971 -0.1001  0.3054 -0.1118
25540W        W43744   6.771  12.803   0.989 -0.4871  0.2910  0.1174
25541W        W43745   9.842  14.221   1.592  0.3587  0.1782  0.0257
25542W        W43746  16.633  13.905   2.311 -0.1066 -0.1171 -0.0891
25543W        W43747  16.738  13.446  15.428  0.2911  0.1168 -0.2289
25544W        W43748   6.200  15.888  11.407  0.0715  0.1857  0.1807
25545W        W43749  17.122   3.176   4.202 -0.2304 -0.0570 -0.1298
25546W        W43750   6.359  11.392   0.934  0.0054  0.0085  0.1042
25547W        W43751   8.939   8.298  14.274 -0.1932 -0.2617  0.3207
25548W        W43752  17.522   2.299  12.447  0.2640  0.0529 -0.1184
25549W        W43753   7.565   0.876  12.728 -0.2170 -0.0977  0.0978
25550W        W43754  16.865   3.553  12.502  0.2229  0.0180  0.2904
25551W        W43755   1.810  17.597   0.304  0.2455 -0.0133 -0.4016
25552W        W43756   3.336  11.605  13.666  0.0540 -0.1679  0.2056
25553W        W43757   8.103   8.697   2.019 -0.0818  0.0968 -0.2149
25554W        W43758   3.863   4.237   0.375  0.2977 -0.0327 -0.3622
25555W        W43759   8.886   1.489   3.985  0.4921  0.2130  0.1063
25556W        W43760  10.866  15.359  14.143  0.1341  0.0842  0.3166
25557W        W43761   6.612   2.605   2.798 -0.2310 -0.0079 -0.0266
25558W        W43762   6.827  16.747  14.642 -0.0815  0.0339 -0.0878
25559W        W43763   7.714  16.930   2.616 -0.1431  0.0335  0.1433
25560W        W43764  12.843   0.883   2.496 -0.1523  0.0851  0.1105
25561W        W43765   4.509  11.009   0.911 -0.0111 -0.0547  0.0761
25562W        W43766   6.413   1.793  13.214 -0.0353 -0.2698 -0.1249
25563W        W43767   9.598   1.373  14.695  0.1114  0.0789  0.0011
25564W        W43768   2.987  16.437   1.882 -0.0816 -0.0279 -0.1525
25565W        W43769  15.608  10.649   6.033 -0.0458 -0.1849 -0.0049
25566W        W43770  14.942  14.613  14.741 -0.1903 -0.0823 -0.3235
25567W        W43771  11.067  14.083   5.072  0.1678 -0.1053 -0.1067
25568W        W43772  10.046  15.549  12.047  0.0157 -0.0269 -0.0636
25569W        W43773  16.484   7.806   1.553  0.1067 -0.0561 -0.4492
25570W        W43774   7.017  11.673   4.548  0.0558  0.1875 -0.1117
25571W        W43775  10.210   2.731  12.699  0.2660 -0.1072 -0.1227
25572W        W43776   6.194   2.467  12.507 -0.0295  0.2415  0.0373
25573W        W43777  13.132  16.555   2.505  0.0365  0.1773  0.1128
25574W        W43778  16.323   1.205  11.457  0.2358 -0.0873  0.1672
25575W        W43779  17.159   2.343   3.303  0.1093 -0.0506  0.1176
25576W        W43780   6.278  15.946   4.126 -0.1647  0.1464  0.0410
25577W        W43781   9.058   3.976  12.745  0.2735  0.0999  0.1238
25578W        W43782  14.056  14.814   1.478 -0.0421 -0.3597  0.1041
25579W        W43783  14.491   9.602  14.111 -0.2774  0.0671 -0.0001
25580W        W43784  15.205   3.344   4.460 -0.1961  0.5306  0.1925
25581W        W43785   0.553   7.081   4.543  0.0204 -0.0351  0.0532
25582W        W43786   3.815  15.180  15.109  0.0728 -0.0109  0.0885
25583W        W43787   4.493   1.590  11.814 -0.0420 -0.0885  0.0619
25584W        W43788   3.500  13.106  12.404 -0.1734  0.1252  0.0943
25585W        W43789   7.368   5.495   5.614 -0.1092  0.0053  0.2050
25586W        W43790   2.414   2.906   1.898 -0.0053 -0.0936  0.0493
25587W        W43791  15.534  10.759   1.006  0.3118 -0.0703  0.1633
25588W        W43792   5.985   5.777  12.395  0.0655 -0.1615 -0.2287
25589W        W43793  12.943  10.498   1.589  0.0758 -0.0442  0.0127
25590W        W43794   4.205  15.343  13.490  0.2070  0.1706 -0.0279
25591W        W43795  11.560   1.722  15.709 -0.0759  0.1031 -0.0994
25592W        W43796  17.666  15.069   4.269 -0.2728 -0.1070  0.0003
25593W        W43797   6.170  15.118  13.659  0.0194 -0.1634  0.1133
25594W        W43798  15.193   2.811   4.718 -0.2240 -0.0425 -0.2047
25595W        W43799   4.320   7.890  13.388 -0.0787 -0.0669  0.0262
25596W        W43800  17.557  11.633  13.192  0.3712  0.0650  0.0021
25597W        W43801   2.050   7.159  14.487  0.2516  0.1563  0.1755
25598W        W43802  15.872   4.070   0.913  0.1324 -0.2165  0.1897
25599W        W43803   2.979  11.951  15.442  0.2680  0.0093 -0.0690
25600W        W43804   0.439  16.420  15.117  0.1321  0.2246  0.0958
25601W        W43805  11.339  16.343  14.612 -0.0935 -0.3199 -0.2832
25602W        W43806   5.005   9.728   1.874  0.1141  0.1341 -0.2403
25603W        W43807   7.769   0.118   4.501 -0.2378  0.0320 -0.0851
25604W        W43808   7.001   0.227   1.087  0.1834  0.0121 -0.2167
25605W        W43809   8.837   0.197  14.311 -0.0541  0.1590 -0.0975
25606W        W43810   9.578   4.218  12.346 -0.0356 -0.0773 -0.1960
25607W        W43811  13.426   1.588   1.961  0.2881  0.0080  0.0927
25608W        W43812   3.534   9.851  13.545 -0.0094 -0.0159  0.1548
25609W        W43813  10.373  17.434  13.163  0.1794 -0.1234 -0.0707
25610W        W43814   0.501   0.055  15.808 -0.7118 -0.0655  0.0906
25611W        W43815   5.954   1.430   1.604 -0.0715 -0.3009  0.0960
25612W        W43816   6.942   0.249   3.254 -0.3738  0.1160  0.2260
25613W        W43817   0.345  10.424  13.584  0.2233 -0.1107  0.1897
25614W        W43818   4.019  11.420  14.345  0.1588 -0.0743  0.2322
25615W        W43819  13.073   2.734  11.909 -0.0426  0.2385 -0.0951
25616W        W43820   4.240  11.029  14.804  0.2622 -0.0835  0.1305
25617W        W43821   3.624  11.980   2.318  0.0320 -0.0014 -0.2046
25618W        W43822   6.321  10.747  14.603 -0.0039  0.0436 -0.1283
25619W        W43823   7.928  11.747  12.560 -0.0114 -0.0528 -0.1182
25620W        W43824  12.145  15.880   3.611 -0.1553 -0.0807  0.1235
25621W        W43825   0.133  11.896   2.854  0.2027 -0.1490 -0.0788
25622W        W43826   0.070  12.319  13.305  0.0658  0.1366 -0.3389
25623W        W43827  15.919  13.048   3.775 -0.2451 -0.1241 -0.1175
25624W        W43828   3.066  12.861   0.103  0.1882  0.2213  0.1665
25625W        W43829   7.395  16.124   3.676  0.1971 -0.1638 -0.0911
25626W        W43830  13.447   6.000   4.905  0.1362  0.0384  0.1436
25627W        W43831   9.322  10.882   5.333  0.0557  0.1452 -0.0327
25628W        W43832   6.119   7.159   3.960 -0.0226 -0.1024  0.1151
25629W        W43833   8.368  17.205  11.446 -0.0317 -0.2927 -0.0370
25630W        W43834   2.503   3.571   3.808 -0.0801  0.0435  0.3657
25631W        W43835  10.369   7.203  14.848 -0.0601  0.0010 -0.0470
25632W        W43836   5.119   9.174  12.036 -0.0799 -0.0273  0.1983
25633W        W43837   6.554  14.371   0.527  0.0109  0.0942 -0.1233
25634W        W43838  17.865   6.174   1.247  0.0465 -0.0575 -0.1730
25635W        W43839   1.506   3.919  12.625 -0.2667  0.1983 -0.1067
25636W        W43840  10.477   4.427   4.447 -0.0461  0.1513  0.0859
25637W        W43841   8.664  11.783  14.037  0.0814 -0.1144  0.2254
25638W        W43842   8.043   4.407   0.840  0.1492 -0.0705 -0.1456
25639W        W43843   5.181   0.003   3.559  0.0322 -0.1393  0.2089
25640W        W43844   8.984  15.051   3.608  0.1149  0.0814  0.0425
25641W        W43845  17.195   5.060  14.126 -0.2246 -0.2650 -0.2346
25642W        W43846   7.976   6.906  13.959 -0.0175 -0.1560 -0.1192
25643W        W43847   2.419  10.258  15.354  0.0499 -0.2766  0.1385
25644W        W43848   1.856  11.070   1.108  0.2124 -0.1963 -0.1729
25645W        W43849  13.391   7.624   0.729  0.0765  0.1793  0.0155
25646W        W43850   8.672   0.696  14.263  0.1616 -0.1568 -0.4116
25647W        W43851   4.808  13.123  13.990 -0.2680  0.2879 -0.0296
25648W        W43852  11.589  11.088   1.911  0.2643 -0.0119 -0.0885
25649W        W43853   2.116  14.797  14.545 -0.3547  0.1478  0.1728
25650W        W43854  10.475   4.411  13.862 -0.0963  0.2841 -0.0746
25651W        W43855   3.221   7.602   4.679  0.1160  0.1005 -0.3169
25652W        W43856   9.955  17.080   5.377 -0.2490 -0.1261  0.0362
25653W        W43857   1.290  15.798   2.506 -0.0346 -0.0596 -0.1382
25654W        W43858   9.529   5.907   3.177 -0.1575  0.4159 -0.0730
25655W        W43859  14.149   8.068  15.459  0.0830 -0.4087  0.2125
25656W        W43860   4.646  11.884   0.335  0.1996 -0.4370  0.3259
25657W        W43861   9.988   9.852   2.544 -0.2291 -0.1499 -0.1510
25658W        W43862   9.807   8.049   3.471 -0.0453  0.0058  0.0224
25659W        W43863  16.582   1.949   5.413  0.1799 -0.1507 -0.2274
25660W        W43864   4.082   8.386  12.506  0.2107 -0.0452 -0.0129
25661W        W43865   5.092  13.488  12.621  0.2963 -0.0504 -0.2631
25662W        W43866  16.358   7.079   1.157  0.1803  0.2693 -0.1177
25663W        W43867  14.509  16.812   1.484 -0.2849 -0.1757  0.0935
25664W        W43868  11.762   2.649   1.384  0.0805 -0.1194  0.0990
25665W        W43869  14.764   8.425  11.827  0.1124 -0.1133 -0.0151
25666W        W43870  14.657   9.206  13.663  0.3066 -0.0177 -0.1880
25667W        W43871   5.529   1.755   1.874  0.3885  0.3665  0.1912
25668W        W43872  18.033   3.548   2.370  0.1631  0.0020  0.0817
25669W        W43873   9.430   4.205   2.033 -0.1240  0.0192  0.2232
25670W        W43874  13.999  17.812   1.464  0.1220  0.1662 -0.0327
25671W        W43875   3.844   9.836  15.344  0.0309  0.0164  0.1403
25672W        W43876  13.732   4.417   5.565 -0.0152 -0.1990 -0.5493
25673W        W43877  10.671   9.862   2.617 -0.1152 -0.0392 -0.3431
25674W        W43878   6.875  11.876  13.930  0.1408 -0.1634 -0.2243
25675W        W43879   9.305   8.488  15.058  0.2007 -0.0615  0.2827
25676W        W43880   1.589   1.738   1.514  0.0303  0.0233 -0.0541
25677W        W43881  16.582  14.954  14.991 -0.0918 -0.3210 -0.2620
25678W        W43882   1.384  16.447  15.634 -0.1890 -0.0384 -0.1119
25679W        W43883  16.390   0.520  12.514  0.1470 -0.1472  0.0210
25680W        W43884  17.279  15.623  13.882 -0.1493 -0.2131 -0.1648
25681W        W43885  11.892   0.707   3.003 -0.2949  0.0203  0.1152
25682W        W43886   9.372  16.701   0.044  0.1409  0.1508 -0.1719
25683W        W43887   2.112   8.622  16.018  0.2428 -0.0116 -0.0796
25684W        W43888   1.401   9.406   3.481  0.0358 -0.2200  0.1695
25685W        W43889   2.651  16.551  12.287  0.1696 -0.0758 -0.2595
25686W        W43890  14.976   4.387   2.475 -0.2541 -0.0395  0.3621
25687W        W43891  17.185   1.348   3.986 -0.2560 -0.0396 -0.1962
25688W        W43892   8.044   6.196  15.260 -0.0512  0.0535 -0.1679
25689W        W43893  12.885   1.234   3.922  0.0300 -0.1527  0.0752
25690W        W43894   7.796   6.258   3.500 -0.0099 -0.0505 -0.0419
25691W        W43895   3.473  13.948   0.377  0.0425  0.0497  0.2978
25692W        W43896   6.417  15.815  15.178  0.3842 -0.0423  0.2320
25693W        W43897  11.748   9.380  12.578  0.2132 -0.1740 -0.2124
25694W        W43898   5.746   3.906   3.951 -0.1287 -0.1185  0.0995
25695W        W43899   8.044  15.272   3.685  0.1757  0.2449 -0.1732
25696W        W43900   7.852  15.049   2.266 -0.1364 -0.0489 -0.1565
25697W        W43901  17.564  17.707  14.283 -0.0131 -0.4386  0.3290
25698W        W43902  13.485   0.783   0.862  0.2500  0.0601  0.2353
25699W        W43903   6.290   9.718  11.734 -0.1601  0.1051  0.0935
25700W        W43904  18.031  17.977  13.178 -0.1248 -0.1473 -0.0721
25701W        W43905   6.919  17.649  14.561  0.0456  0.0056  0.0220
25702W        W43906  13.865   3.542   3.880 -0.0819  0.0630  0.1180
25703W        W43907   0.700   3.022   0.953 -0.0462  0.1451  0.0655
25704W        W43908  15.932  10.268  15.524 -0.0335 -0.0636 -0.1195
25705W        W43909  17.845  17.098  10.407 -0.0882  0.1567 -0.0604
25706W        W43910  17.233   9.634  13.269 -0.1618  0.1242 -0.2317
25707W        W43911   7.154  11.119  14.522 -0.1696  0.0965 -0.1146
25708W        W43912   6.037  11.574  12.826 -0.2334  0.1074  0.2898
25709W        W43913   4.223   9.708   0.708 -0.2246 -0.2117 -0.2645
25710W        W43914   6.284  13.737  15.413  0.0928  0.0260 -0.0668
25711W        W43915  10.842   1.038   2.541  0.2313  0.0623 -0.0767
25712W        W43916  12.457   0.365   2.453 -0.2485 -0.1826 -0.0039
25713W        W43917   9.281  16.257   2.369  0.1661 -0.1126  0.2381
25714W        W43918   2.465  16.673   2.970 -0.1710  0.0886  0.2449
25715W        W43919  15.117  16.824   2.185 -0.1728 -0.0697  0.2835
25716W        W43920  13.822   1.041   3.430 -0.0769 -0.0883  0.1720
25717W        W43921  13.575   8.905  11.845  0.1876  0.1821  0.1014
25718W        W43922   2.208   5.953  15.889  0.1143 -0.2345  0.1408
25719W        W43923   3.535  16.793  15.171 -0.0318  0.3672  0.0327
25720W        W43924   7.479  17.739  11.935  0.3040 -0.0367 -0.0761
25721W        W43925   5.412  12.852   0.345  0.1735 -0.1752  0.3572
25722W        W43926   5.323   7.310  15.377  0.2283  0.4456 -0.0042
25723W        W43927  13.317   4.150  14.589 -0.1400 -0.3251 -0.0452
25724W        W43928  10.829   3.299   2.474  0.3386  0.2418 -0.0595
25725W        W43929   9.313   4.081   2.682 -0.1429  0.1140  0.2392
25726W        W43930   6.652   3.993   2.574  0.1662 -0.1360 -0.2522
25727W        W43931  12.640   6.865  15.432 -0.1608 -0.5475 -0.0564
25728W        W43932   6.360  17.795  14.581  0.1170  0.1194  0.1166
25729W        W43933   2.187   5.498   0.592 -0.0935  0.2521  0.5096
25730W        W43934   4.484   1.207   2.578  0.1185  0.1534 -0.1148
25731W        W43935   9.417   3.485   1.286 -0.0264  0.0931  0.1521
25732W        W43936   9.845   1.732   0.324 -0.2876  0.3413  0.0072
25733W        W43937   5.032   7.254  11.462 -0.0676 -0.1049  0.0672
25734W        W43938   6.343   3.203   3.396 -0.0672 -0.2171  0.0230
25735W        W43939  13.312   3.877  13.247  0.1285 -0.1785  0.0130
25736W        W43940  14.264  10.700  14.810 -0.0615  0.0287 -0.1666
25737W        W43941   3.760   0.473   1.670  0.4612 -0.0863 -0.2716
25738W        W43942  11.613  12.259  15.085 -0.0084 -0.1237  0.0408
25739W        W43943  14.311  15.567   0.992  0.0300 -0.1840  0.0557
25740W        W43944   5.807   9.946  10.606 -0.3026  0.2765  0.0635
25741W        W43945  14.540  14.591  14.477  0.2601 -0.1348 -0.0522
25742W        W43946  10.391   2.851   2.521  0.1414 -0.3141  0.0796
25743W        W43947  14.387   3.783  15.348  0.2274  0.0197  0.0793
25744W        W43948  10.110   9.414   3.802  0.0591 -0.0247  0.0921
25745W        W43949  16.711   7.733   3.817 -0.0721 -0.1338 -0.1097
25746W        W43950   7.473  12.294   4.574  0.0310  0.0045 -0.2703
25747W        W43951   9.092  12.174  11.673  0.2860 -0.0548 -0.2243
25748W        W43952   2.004   0.423  13.566  0.1955 -0.0150  0.1039
25749W        W43953  16.311  12.039   0.906 -0.2276  0.0411  0.0620
25750W        W43954  13.047   0.800   0.633  0.0686 -0.2101 -0.0945
25751W        W43955   0.737   3.911   2.881 -0.0776 -0.0789  0.0235
25752W        W43956  10.348   6.586   0.480 -0.3115 -0.4549 -0.0547
25753W        W43957  10.043   7.980   4.823  0.0689 -0.0474 -0.0268
25754W        W43958   8.025  16.034  14.200  0.1507  0.1791 -0.0277
25755W        W43959  17.823   7.836  14.721 -0.2734  0.0588  0.2268
25756W        W43960   0.587  15.047  12.931 -0.1336  0.2285 -0.1669
25757W        W43961  12.418   0.743   4.578  0.0086 -0.3177  0.1594
25758W        W43962  13.575   1.844  15.061 -0.0968 -0.0135 -0.1355
25759W        W43963  12.042  10.366  12.167 -0.3249 -0.1687  0.1022
25760W        W43964  10.387  10.626   3.070  0.1362  0.1685  0.1628
25761W        W43965   7.383  13.907  14.073  0.0163 -0.0013 -0.2413
25762W        W43966  13.663  13.362   3.400 -0.1184  0.1220 -0.0213
25763W        W43967   2.032   2.080  11.214 -0.2057 -0.2963  0.1151
25764W        W43968   4.993  10.311   3.557 -0.0785  0.0515 -0.1198
25765W        W43969   9.234  14.611   3.567 -0.1556 -0.2628 -0.2382
25766W        W43970  11.178   4.100   0.326 -0.1604 -0.1780 -0.0106
25767W        W43971  13.073  12.958  14.471  0.2246  0.1118 -0.1691
25768W        W43972   5.216  12.195  12.042  0.1604  0.3306 -0.1163
25769W        W43973   0.183  15.929  12.153 -0.0138  0.0558 -0.1224
25770W        W43974   2.726   8.277  16.155 -0.1084  0.2001 -0.0115
25771W        W43975   3.490   4.693   2.602 -0.1013  0.1015 -0.0272
25772W        W43976   1.773  14.768   0.234 -0.2312  0.1164  0.1085
25773W        W43977  17.046   1.570  10.742  0.0647 -0.0603  0.0464
25774W        W43978   9.792  15.781  14.136 -0.3944 -0.0924 -0.1164
25775W        W43979  16.484   9.592   4.735 -0.3161 -0.2256  0.0411
25776W        W43980   6.792  13.706   2.442 -0.2988 -0.3429 -0.2376
25777W        W43981  14.941   3.992   1.678 -0.0389  0.0872  0.0167
25778W        W43982  17.183   1.880  15.540  0.1952  0.0121 -0.0741
25779W        W43983  17.279   6.432   4.693 -0.2668  0.0709 -0.3018
25780W        W43984   6.481   7.320  10.870  0.1380  0.2405  0.1969
25781W        W43985   8.585  17.191   0.058 -0.2732 -0.0090 -0.0745
25782W        W43986  13.316   1.886  14.016  0.5055 -0.1263 -0.1043
25783W        W43987  14.294  11.810  15.612 -0.2705 -0.0471 -0.2603
25784W        W43988  13.835  10.034   4.532  0.0158  0.1364 -0.4079
25785W        W43989   6.091   0.612  13.940 -0.0121 -0.0549 -0.1112
25786W        W43990  17.636   2.051  15.277  0.1076  0.3751 -0.0976
25787W        W43991   7.420  10.241  14.795 -0.0795 -0.2282  0.1684
25788W        W43992   7.437   3.243  12.494  0.0306 -0.1095 -0.3027
25789W        W43993   6.653   7.433  14.415  0.1214 -0.0520 -0.1682
25790W        W43994   8.001   0.965   0.035 -0.2047  0.2921 -0.1790
25791W        W43995   5.137  14.535  11.659 -0.1656 -0.2385 -0.0822
25792W        W43996  16.355  11.749  14.906 -0.1313  0.1292  0.2779
25793W        W43997   6.253   1.055  15.266  0.1614 -0.2123 -0.3739
25794W        W43998  11.903   9.315  12.013  0.0367  0.0327  0.1489
25795W        W43999  16.653  15.808   1.312 -0.1545 -0.1685  0.1402
25796W        W44000   8.666   6.704  15.183 -0.1687  0.1386 -0.2688
25797W        W44001  10.930  16.213   5.026  0.2920  0.0679  0.1583
25798W        W44002  13.640   9.753   1.656  0.0423 -0.2556  0.0943
25799W        W44003  16.972  16.441   1.190  0.2315  0.0221  0.1690
25800W        W44004   6.884  12.060   3.140 -0.3151 -0.0419 -0.2645
25801W        W44005   0.517   5.895   3.856  0.3359  0.0375  0.0037
25802W        W44006  16.832  15.031  12.191  0.0715 -0.3124 -0.1025
25803W        W44007  13.859   1.830   0.044  0.0924  0.0904  0.3072
25804W        W44008  11.992  15.539   2.516 -0.2266  0.0038 -0.0442
25805W        W44009  12.653   1.630   2.683  0.2085  0.0941  0.0857
25806W        W44010   3.347  16.821   3.685 -0.2823 -0.0391  0.0159
25807W        W44011  12.276   4.226   4.555 -0.2195 -0.1978 -0.1505
25808W        W44012  15.961  15.501  12.452  0.0761  0.0661  0.0161
25809W        W44013   0.463  11.393   0.363 -0.1553  0.1817 -0.1116
25810W        W44014   2.171   0.754  11.678 -0.0458  0.4447  0.1967
25811W        W44015  15.568  14.559   0.946 -0.1174  0.0036 -0.0225
25812W        W44016   5.331  14.798   4.431 -0.1255 -0.2191 -0.3006
25813W        W44017   3.603   9.404  15.207  0.0592 -0.0394  0.2232
25814W        W44018   6.407   6.081  12.537 -0.1248  0.0059 -0.0787
25815W        W44019   3.585   3.282   5.538  0.2258 -0.4528  0.0450
25816W        W44020   6.111   4.066   1.825  0.0198 -0.2370 -0.0401
25817W        W44021  14.837   5.491  14.898  0.0797 -0.0339 -0.0873
25818W        W44022  12.317  10.807  13.402 -0.0656  0.1304 -0.1199
25819W        W44023   5.724  16.576  13.479 -0.2715  0.0971 -0.2161
25820W        W44024  13.089   8.979   2.868 -0.3347  0.0738 -0.1263
25821W        W44025   5.538   6.807   0.929 -0.0620 -0.0745  0.1684
25822W        W44026  13.473  17.785   4.064 -0.2381 -0.3975 -0.2601
25823W        W44027   7.839  15.017  12.645 -0.2375  0.0165  0.2407
25824W        W44028   4.980  17.630   1.949 -0.3084 -0.1002  0.0560
25825W        W44029  10.246   1.445  12.861  0.0372 -0.3223  0.2379
25826W        W44030  14.836   5.801   4.990  0.0226 -0.0778  0.0448
25827W        W44031  17.272   6.512   5.553 -0.1977  0.0671 -0.0981
25828W        W44032   1.452  13.869   4.440 -0.0078 -0.2589 -0.0565
25829W        W44033   9.304  14.271   4.621  0.0267  0.0277  0.4624
25830W        W44034  13.165   0.918  14.869  0.0199 -0.2820  0.1259
25831W        W44035   1.492  15.896  12.713  0.3080 -0.3350 -0.1262
25832W        W44036   3.822  17.486  15.481 -0.0504  0.1005  0.3278
25833W        W44037   0.945   6.200  13.133 -0.0010  0.0631  0.0330
25834W        W44038  16.219  13.454   1.770 -0.0715  0.0765 -0.0867
25835W        W44039  13.143   8.104  15.484  0.0456 -0.0361  0.2437
25836W        W44040   6.243  16.268  12.927  0.1981  0.2134  0.0133
25837W        W44041   5.899   1.487   0.641 -0.0960 -0.0680  0.3694
25838W        W44042  11.898   9.916  14.690 -0.4522  0.1209  0.1346
25839W        W44043   4.496  11.373   1.717  0.0598  0.0191  0.0476
25840W        W44044   6.413  15.546   2.047 -0.2788  0.1773  0.0284
25841W        W44045  13.968   2.324   4.707 -0.0819  0.3353  0.1564
25842W        W44046  12.163   0.312   3.385 -0.2358 -0.1316  0.2088
25843W        W44047   5.249  17.222   1.819  0.0488  0.1891  0.1439
25844W        W44048   1.927   7.436   4.771 -0.5209  0.2944  0.0445
25845W        W44049  13.799   0.983   4.355  0.0489 -0.0317 -0.1803
25846W        W44050  13.907   0.670  15.820 -0.0350  0.0337 -0.3102
25847W        W44051   8.865   2.936  13.539  0.0050 -0.1836 -0.1599
25848W        W44052  10.054  11.715  15.137  0.0102 -0.2271  0.0570
25849W        W44053  11.995   3.602  13.299 -0.0212 -0.2183 -0.2553
25850W        W44054  11.181   7.584   1.001  0.0801  0.0454  0.0766
25851W        W44055   4.419   1.648   3.373  0.0317 -0.1497  0.0567
25852W        W44056   7.979   4.013  12.274  0.0656 -0.1367  0.4166
25853W        W44057  15.606   9.584   4.209  0.5391 -0.0174 -0.2311
25854W        W44058   8.628   8.305   2.140 -0.1705 -0.0643 -0.1521
25855W        W44059  14.678   6.083   3.102  0.1676  0.0219  0.0002
25856W        W44060  12.936   7.866  12.353  0.3462  0.1829  0.3168
25857W        W44061   3.913   8.927   0.547 -0.0108 -0.0869 -0.1312
25858W        W44062  11.212   0.827  12.425  0.2007 -0.0156 -0.1678
25859W        W44063  10.941   9.542  14.874  0.2867  0.1851 -0.2438
25860W        W44064  15.675  15.540   3.519  0.1139  0.0196  0.0099
25861W        W44065  10.691  13.831  10.367 -0.2706 -0.0103 -0.2757
25862W        W44066  17.356   3.139   4.872 -0.0139  0.1171 -0.1033
25863W        W44067   9.132   7.220   5.928  0.0555 -0.2095 -0.1784
25864W        W44068   6.503   0.414   0.995 -0.0924 -0.2289  0.3852
25865W        W44069   9.870   0.903  11.972  0.2075  0.0189 -0.0229
25866W        W44070   6.389  16.697   3.075 -0.2417  0.1762  0.2326
25867W        W44071   6.095  17.085   0.358  0.1795 -0.0651  0.4130
25868W        W44072  10.295  16.620   2.596  0.1427 -0.2299 -0.1702
25869W        W44073   4.073   2.965   2.058  0.0987  0.2599  0.0819
25870W        W44074   1.046   0.139  15.303 -0.1343  0.1600 -0.3114
25871W        W44075  16.927   0.527  11.437  0.1003  0.2780  0.1868
25872W        W44076   0.718   6.883  15.728  0.1606 -0.4502 -0.0962
25873W        W44077   9.358   4.181  13.925  0.1982  0.0022  0.2003
25874W        W44078  10.177   3.027   0.027  0.0310 -0.1228 -0.1135
25875W        W44079  16.116   6.346  13.813 -0.0004 -0.0781 -0.0314
25876W        W44080   9.299   7.787  15.707 -0.1060  0.0770  0.0122
25877W        W44081   8.219   1.686   2.425  0.2265  0.2529  0.1391
25878W        W44082  15.202   6.383  13.501 -0.2286  0.2367 -0.0163
25879W        W44083  17.375  11.543  14.504 -0.0846  0.0213 -0.0290
25880W        W44084  16.765   6.718   0.739  0.1760  0.0456  0.1896
25881W        W44085   9.882   9.829  12.062  0.2437 -0.4170 -0.0840
25882W        W44086   6.890   4.766  16.009 -0.0717  0.0613 -0.3236
25883W        W44087  11.033  11.456  13.608 -0.0345  0.0234 -0.1202
25884W        W44088  10.700  14.931  12.396 -0.1268  0.2221 -0.1485
25885W        W44089  10.230  12.064  12.993 -0.2196  0.0825  0.0543
25886W        W44090   2.138  16.994  10.797 -0.2818 -0.1172  0.0538
25887W        W44091  15.067  13.234   3.636 -0.3934 -0.1056 -0.0180
25888W        W44092  12.638  13.712  14.283  0.2594 -0.3057 -0.2617
25889W        W44093   3.392  15.170  15.334 -0.4111  0.0194  0.1904
25890W        W44094  10.409  17.748  14.990  0.3944 -0.0274  0.1350
25891W        W44095   2.861   8.964   3.439  0.1868  0.0760  0.1542
25892W        W44096   7.750   7.949  12.075  0.1193  0.2266 -0.1523
25893W        W44097   4.815  13.500   5.408 -0.0574  0.2844  0.0911
25894W        W44098   6.095   7.811   0.186 -0.0907  0.1279  0.1225
25895W        W44099  16.864  17.037  14.458 -0.3652  0.0962 -0.1874
25896W        W44100  16.084   9.351   0.339  0.2304 -0.1109  0.2381
25897W        W44101   9.224  17.052   2.980  0.0826 -0.0036 -0.0957
25898W        W44102   0.583  13.510   4.386  0.0449  0.1130  0.1095
25899W        W44103   8.714  17.916   4.911  0.2075 -0.3029  0.2266
25900W        W44104  13.779   8.784   4.855  0.1086 -0.0752  0.0966
25901W        W44105  14.446  10.341   3.514  0.3306 -0.0593 -0.0125
25902W        W44106   9.080  10.740   0.288  0.0101 -0.0855 -0.1041
25903W        W44107  10.824  17.861   4.306 -0.2934  0.1692  0.1245
25904W        W44108  13.167   2.036  10.987 -0.1938  0.1840 -0.2077
25905W        W44109  17.390   0.455   0.150  0.0436 -0.1496 -0.0560
25906W        W44110  12.265   3.807  16.060 -0.2091 -0.1563 -0.0431
25907W        W44111   9.980   5.557   5.180  0.0018  0.0256  0.2862
25908W        W44112   0.233  17.962  11.769  0.1922  0.1773  0.0369
25909W        W44113   8.526   9.943   3.347  0.0059 -0.0295 -0.4705
25910W        W44114   1.322  13.078   0.538 -0.1333  0.0951  0.0844
25911W        W44115  15.008  16.924   1.126  0.4102  0.1253  0.0536
25912W        W44116   7.554  14.139   3.282 -0.1804  0.1668  0.0725
25913W        W44117  12.754   7.830   2.932 -0.0747  0.1397  0.0545
25914W        W44118   0.041   5.189  15.079 -0.0559  0.0703 -0.0858
25915W        W44119  17.687  16.616   4.302  0.0953 -0.0606  0.2735
25916W        W44120   9.017   7.130  12.313 -0.0470 -0.0610  0.0308
25917W        W44121   4.018   9.447   5.375  0.2052  0.1274 -0.1622
25918W        W44122   0.248   9.131   4.818 -0.1988 -0.0201  0.0360
25919W        W44123   8.168  17.729  15.404 -0.0335 -0.0131 -0.0386
25920W        W44124   4.319  17.191  12.370 -0.0928  0.0053  0.3217
25921W        W44125   9.040   6.868  16.092  0.3652  0.0801  0.2823
25922W        W44126  17.401   2.365  15.738 -0.3059 -0.1260  0.2080
25923W        W44127   2.781  12.531   3.956 -0.3157  0.1504 -0.1614
25924W        W44128  10.665   4.190  12.862 -0.1559  0.1819 -0.2157
25925W        W44129  13.439  10.827   2.765 -0.2538 -0.4144  0.1035
25926W        W44130   0.809   1.673   0.139  0.1083 -0.0013  0.1219
25927W        W44131  14.940  17.978  14.596  0.1613 -0.0270 -0.0122
25928W        W44132  11.665   4.039  14.050  0.0277 -0.1340  0.0374
25929W        W44133   7.339   2.339   1.008 -0.1290  0.3209  0.0803
25930W        W44134   8.574  15.004   4.346 -0.3586 -0.2154  0.1125
25931W        W44135   5.446   3.716   3.571  0.0768 -0.0002 -0.1494
25932W        W44136  16.381  13.748   2.810  0.2030 -0.2359 -0.3739
25933W        W44137   2.710   1.572   2.592 -0.1333 -0.0417 -0.0210
25934W        W44138  14.131   3.054  15.668 -0.2441 -0.2052  0.1342
25935W        W44139  17.984  12.070   2.372 -0.0476 -0.0693  0.2109
25936W        W44140  16.790   1.210   2.641  0.1431 -0.3049  0.1863
25937W        W44141   5.707   6.567  14.929 -0.0869 -0.2676  0.1261
25938W        W44142   4.099   2.698   0.726  0.0687  0.1999 -0.0991
25939W        W44143  15.422   8.870  12.351 -0.1074 -0.1419 -0.0480
25940W        W44144  13.978   7.016   1.236  0.1117 -0.0855  0.2708
25941W        W44145   7.684   0.030  16.016  0.2611  0.0455 -0.1417
25942W        W44146  13.843   5.608   5.051 -0.3995  0.2577  0.1165
25943W        W44147  15.679  12.724  12.823 -0.2004 -0.1320 -0.3141
25944W        W44148  14.895   2.941   4.294 -0.2190  0.0757 -0.0802
25945W        W44149  18.031  15.877   1.190 -0.0517  0.0596 -0.1774
25946W        W44150   6.880   6.689  14.972  0.1732  0.1752  0.2717
25947W        W44151  17.395   8.687   2.747  0.5208 -0.0859  0.2094
25948W        W44152   3.061   6.522  12.158 -0.0902  0.3727  0.0387
25949W        W44153   4.203  14.168  13.147 -0.4353  0.1727 -0.0189
25950W        W44154   7.984   8.472  11.294 -0.1606  0.1604 -0.2999
25951W        W44155  16.849   1.058   3.504 -0.1754 -0.0265 -0.0990
25952W        W44156  17.954   8.517   1.362 -0.0319  0.0409 -0.0041
25953W        W44157  11.570   2.119  13.424  0.0175  0.0437  0.0085
25954W        W44158  13.651  15.289   0.266  0.1940  0.1630 -0.0881
25955W        W44159  10.778   3.455   5.987  0.0163 -0.3013  0.0567
25956W        W44160   1.940  13.159  12.244 -0.0844  0.0411 -0.1433
25957W        W44161   3.241  13.778  13.999  0.1008 -0.2094  0.0009
25958W        W44162  13.358   6.560  12.194  0.1425 -0.0190 -0.0124
25959W        W44163  18.005   8.489  12.500 -0.1312 -0.1965 -0.1278
25960W        W44164   4.234   6.227  12.761  0.0583  0.0834 -0.0510
25961W        W44165   8.653  11.382  12.769  0.1925  0.1096 -0.0623
25962W        W44166  11.467  12.099   1.314  0.0005  0.2463 -0.0301
25963W        W44167   2.731   1.197  15.720 -0.1025 -0.1064  0.0495
25964W        W44168   1.045  14.600  15.767  0.0526 -0.0628  0.1488
25965W        W44169   8.515   9.599   6.220 -0.0660 -0.1788 -0.2992
25966W        W44170  16.678  16.848   1.042 -0.0430  0.2107  0.1527
25967W        W44171  10.007  14.253  14.160 -0.1524 -0.0861  0.2595
25968W        W44172  15.783   8.407  13.519 -0.0968 -0.0549  0.0489
25969W        W44173   5.807   5.519  12.047  0.1036  0.1987  0.2261
25970W        W44174   5.296  15.836   2.873 -0.2772  0.1289 -0.2464
25971W        W44175   7.659  13.266  11.428  0.0350 -0.1053  0.2876
25972W        W44176  17.455   7.694  12.571 -0.1660 -0.1997  0.0138
25973W        W44177   6.480  16.379   2.718  0.0112 -0.0725  0.1782
25974W        W44178  13.023   1.330   3.487  0.1611 -0.0551 -0.2695
25975W        W44179  17.696   6.826   0.899 -0.0880 -0.2628  0.3749
25976W        W44180   3.782   6.060  12.548  0.0183  0.0387  0.0829
25977W        W44181  14.242  16.909  15.683  0.2310  0.0959 -0.3241
25978W        W44182  17.768   1.552   3.488 -0.0339 -0.1785  0.2139
25979W        W44183  10.401  13.762   3.306  0.2186  0.2208 -0.1987
25980W        W44184  14.958  11.745   1.901 -0.0099  0.0303 -0.0094
25981W        W44185   7.824   9.168   4.476 -0.0202 -0.3021  0.1276
25982W        W44186   2.666  10.656  15.461  0.0926 -0.1967  0.1306
25983W        W44187  12.959   4.011   5.114  0.1053 -0.2131  0.1085
25984W        W44188   1.694   7.891  13.828 -0.0984 -0.0032  0.0237
25985W        W44189  12.668  16.415  14.879 -0.2728  0.0010 -0.1912
25986W        W44190  12.839   9.787  16.138  0.3560 -0.1540  0.1159
25987W        W44191   4.542   6.089  14.113 -0.1214  0.3263  0.2454
25988W        W44192  16.819   0.609  11.891 -0.0054 -0.2579 -0.3889
25989W        W44193   6.596   7.830  15.476  0.0358  0.0103  0.3238
25990W        W44194  11.097   6.849   0.753  0.1061  0.2072  0.1041
25991W        W44195  17.938  16.978  13.092 -0.3580  0.1590 -0.4241
25992W        W44196  10.278   4.912  13.174  0.1500  0.2793 -0.1146
25993W        W44197   7.294   1.486  13.238  0.1034  0.1237  0.1049
25994W        W44198   1.694   3.718  14.389  0.1677  0.2605 -0.1147
25995W        W44199  12.580   1.430  13.667  0.3385 -0.0936 -0.0975
25996W        W44200   6.045   0.582  12.724 -0.4050  0.0223 -0.2298
25997W        W44201  10.170   4.439  14.971 -0.1273 -0.2614 -0.3437
25998W        W44202   8.346   5.892  11.530 -0.0231  0.0634  0.2916
25999W        W44203   4.480   7.623  12.894 -0.2019  0.1749  0.0221
26000W        W44204   4.516  16.592   3.980  0.1814  0.1621  0.5322
26001W        W44205  14.093   3.738  14.891  0.0411 -0.0029 -0.0838
26002W        W44206   2.817   2.569   3.644  0.2496 -0.2617 -0.0471
26003W        W44207  15.659   7.285   5.141 -0.0588  0.3107  0.1242
26004W        W44208   8.754   3.432  15.378  0.1328 -0.1430  0.1185
26005W        W44209  13.260  16.681  10.943 -0.1741  0.4047  0.0042
26006W        W44210   0.687   3.914  13.608  0.0518 -0.1485 -0.0694
26007W        W44211   2.333   2.455   3.440 -0.1449 -0.3535 -0.1270
26008W        W44212   1.337   0.163  16.004 -0.0799  0.0658 -0.0336
26009W        W44213  13.576   7.251   4.145 -0.0684 -0.5079  0.1374
26010W        W44214  17.729  17.605   0.145  0.2073 -0.3094 -0.0470
26011W        W44215  16.727   8.396  10.596 -0.0635  0.0178 -0.1574
26012W        W44216  13.277  15.419  15.600 -0.2621  0.0683  0.2863
26013W        W44217   0.856   8.221   0.565  0.0283 -0.0188  0.1605
26014W        W44218   5.711  14.185  15.278 -0.1071 -0.0873  0.2058
26015W        W44219   7.663  16.579   3.996  0.0926 -0.0664 -0.0084
26016W        W44220  13.723  15.820  10.650  0.0813 -0.0370  0.0056
26017W        W44221  15.879  14.991   3.743  0.1704 -0.1390 -0.1990
26018W        W44222  11.549  13.074   1.245  0.5290 -0.1601  0.2289
26019W        W44223  11.008  11.143   4.981 -0.0317 -0.0070 -0.0180
26020W        W44224   6.647   3.533   3.036 -0.2080 -0.1160  0.4567
26021W        W44225   6.131  15.184  14.389  0.2000 -0.0362 -0.2834
26022W        W44226  17.254  15.982   3.393  0.2473 -0.0638  0.0744
26023W        W44227  12.678  12.361  14.438  0.0325 -0.0895 -0.4190
26024W        W44228  13.679  11.878  12.719 -0.2249 -0.0703  0.1189
26025W        W44229  15.501   8.054  15.647  0.0694 -0.0624  0.0048
26026W        W44230   2.855   6.958  11.498  0.1334  0.2419  0.1307
26027W        W44231   7.064   5.532   3.484 -0.0221  0.3296 -0.1178
26028W        W44232   8.485   0.115   1.217 -0.1599  0.3546 -0.3502
26029W        W44233  16.468   6.753  13.826 -0.3503  0.1772 -0.0903
26030W        W44234  15.917   4.940   1.414 -0.1032  0.0670 -0.0271
26031W        W44235  12.361   8.076  12.582  0.1067  0.0376  0.0133
26032W        W44236  13.647   2.156   2.490 -0.0624  0.3545  0.0401
26033W        W44237   8.196  12.747  12.810 -0.0713  0.1880  0.2384
26034W        W44238  13.514  13.323  15.934 -0.0173 -0.1998 -0.2326
26035W        W44239   1.515  12.992   1.952 -0.1676 -0.3921  0.2235
26036W        W44240  15.498  12.267  14.852 -0.3354 -0.2664 -0.1261
26037W        W44241  15.541   7.868  12.663  0.0655  0.1435  0.2250
26038W        W44242   8.950   2.338   4.839 -0.1280 -0.0854 -0.1475
26039W        W44243  10.414  13.768   4.592  0.0784  0.3771 -0.0650
26040W        W44244   7.544   8.933  13.867 -0.0348  0.2387  0.0646
26041W        W44245   7.332   4.765   1.146  0.0723  0.0330  0.1258
26042W        W44246  14.292   2.453   1.367 -0.0897 -0.0659  0.0843
26043W        W44247   9.154  13.176   1.825 -0.1661  0.2951 -0.0389
26044W        W44248   2.902   0.862  12.427 -0.3357 -0.2107 -0.1097
26045W        W44249   4.046   7.580   5.706 -0.0454  0.0013  0.1502
26046W        W44250  12.948  12.008   3.013 -0.0307 -0.2442  0.0909
26047W        W44251   6.316   5.559   2.939 -0.1277  0.0293 -0.0823
26048W        W44252  10.086   9.061   0.902 -0.1854  0.1668 -0.0296
26049W        W44253   0.764   1.943   1.812  0.0479 -0.2685  0.0780
26050W        W44254   6.604   0.239  12.084 -0.1831 -0.3956  0.1660
26051W        W44255   5.539  12.408  15.238  0.0162 -0.1907 -0.0027
26052W        W44256   2.655   1.657   4.237 -0.1093 -0.3848 -0.2982
26053W        W44257   8.123   7.908  14.008  0.2502  0.1186  0.0469
26054W        W44258   1.834  11.005   2.951  0.0764  0.1729 -0.0152
26055W        W44259   9.956   2.598  14.226 -0.0584  0.0227  0.2546
26056W        W44260  16.769   5.502  12.765  0.3031  0.0828 -0.0844
26057W        W44261   1.960   1.882  12.815 -0.0714  0.0816 -0.3239
26058W        W44262   7.245   0.592  15.369 -0.2126 -0.1684 -0.1553
26059W        W44263  16.473  12.580   0.205 -0.2316 -0.1503  0.0323
26060W        W44264  10.747   5.695   4.966  0.1093  0.2643  0.0876
26061W        W44265  14.823   4.062  15.316 -0.0472 -0.1011  0.0971
26062W        W44266   0.986  13.920   2.139 -0.0754 -0.1548 -0.2452
26063W        W44267  12.095   8.262  14.807  0.3864  0.0854 -0.1973
26064W        W44268   6.584   4.828   2.381 -0.1668  0.0063 -0.2998
26065W        W44269   7.276   2.854   2.176  0.0178  0.1395  0.2073
26066W        W44270  11.482   8.896   3.235  0.0555 -0.0685 -0.0650
26067W        W44271   8.495   7.478  12.871  0.4343  0.0037 -0.0013
26068W        W44272   5.056  13.537   3.072  0.3174  0.0670  0.0490
26069W        W44273  17.773   5.210  11.178  0.2548 -0.1011 -0.1432
26070W        W44274   3.359   4.677   2.070  0.0627 -0.0228 -0.0443
26071W        W44275   7.104   0.037  15.949 -0.2610  0.0177  0.0673
26072W        W44276   7.997   4.108  15.665 -0.0637  0.0707  0.0757
26073W        W44277  14.488   1.904  13.175 -0.0379 -0.0490  0.0919
26074W        W44278  11.803   4.459  13.717  0.1291  0.1312  0.2927
26075W        W44279  16.064  16.700  12.283 -0.2635 -0.0654 -0.0520
26076W        W44280  16.624  16.234   1.596 -0.0476  0.1470 -0.0388
26077W        W44281   7.779   9.534  12.448  0.0888 -0.0426  0.1245
26078W        W44282   5.729   7.931   5.161  0.2750 -0.1340  0.3424
26079W        W44283   9.766   4.873  14.916  0.3746  0.0901 -0.0616
26080W        W44284  14.200   8.805   2.264  0.2756 -0.0478 -0.1102
26081W        W44285   9.518  13.009   5.046 -0.0629  0.0447  0.0398
26082W        W44286   0.226   4.104  13.716 -0.0028 -0.0708 -0.2813
26083W        W44287  10.299  14.610   0.697  0.1013 -0.2970  0.0602
26084W        W44288   7.294  12.771  14.770  0.1910  0.0509 -0.0275
26085W        W44289   3.912   0.959  15.390  0.0241  0.2340 -0.0715
26086W        W44290   3.626   8.030  11.775  0.0730 -0.0007  0.0113
26087W        W44291   3.900  12.481   0.541  0.3151 -0.1112 -0.1611
26088W        W44292  12.471  14.298   2.297 -0.3219  0.2071  0.0249
26089W        W44293   8.319  10.420  14.210 -0.0373  0.0943 -0.0604
26090W        W44294   9.592   3.883   0.040  0.1132 -0.0338  0.1744
26091W        W44295   2.811   7.627  10.325  0.1026  0.1581 -0.0283
26092W        W44296   2.608  13.803   2.266  0.1600 -0.2108 -0.0428
26093W        W44297   3.754   1.690  15.300  0.3342 -0.2069 -0.2855
26094W        W44298   2.279  17.344   1.142  0.2424 -0.0346  0.1184
26095W        W44299   0.653   4.388  13.742 -0.0204 -0.3262 -0.0016
26096W        W44300   9.396   0.360   2.748  0.0504  0.0453 -0.1025
26097W        W44301   6.889   6.436   2.915 -0.1345 -0.0810  0.0875
26098W        W44302  11.591  14.726  12.007 -0.0005 -0.1639  0.2335
26099W        W44303  12.686  10.105   4.532  0.1535  0.2133  0.0429
26100W        W44304   1.386   9.885  13.535 -0.0373  0.1683  0.2540
26101W        W44305   4.839   7.687   0.131  0.0776 -0.0646  0.0500
26102W        W44306  12.414  17.331   0.730 -0.0531 -0.1996 -0.3154
26103W        W44307   4.753  16.620   2.239  0.2983 -0.0351  0.0682
26104W        W44308  16.686   5.550   5.878  0.1361 -0.0926 -0.3042
26105W        W44309  11.578   9.748   2.806 -0.0779 -0.1111 -0.3341
26106W        W44310   0.046   7.485   2.161  0.1398 -0.0274  0.0196
26107W        W44311  15.516  13.251   1.179 -0.0100  0.1223  0.0810
26108W        W44312  14.100   8.442  11.888  0.1572 -0.0903 -0.1001
26109W        W44313  12.299  16.670  15.726  0.0983 -0.0142 -0.0090
26110W        W44314   4.181   3.631   3.211 -0.1471  0.0137  0.2755
26111W        W44315   9.909   3.456  14.023  0.1267  0.1830 -0.1053
26112W        W44316  10.740   5.158  12.337  0.1022  0.3856  0.1096
26113W        W44317   8.933  15.062  11.299  0.1614 -0.1511  0.0511
26114W        W44318  10.437   0.863  15.115  0.1396 -0.1358  0.1766
26115W        W44319   4.492   9.609  13.008 -0.1759  0.2869  0.1256
26116W        W44320  17.267  17.508   0.780  0.2002 -0.0623 -0.0919
26117W        W44321  12.531   5.112  11.783  0.0709  0.1693 -0.1703
26118W        W44322   4.078   8.358   2.880  0.1546 -0.0861 -0.0325
26119W        W44323  16.730   1.106  14.007  0.2055 -0.0589  0.0917
26120W        W44324   2.679  17.770  15.418 -0.1286 -0.0339  0.0508
26121W        W44325   4.705   2.391  12.788 -0.2035 -0.1234 -0.2274
26122W        W44326  11.321  18.015  13.672  0.3194  0.2805 -0.1303
26123W        W44327   4.329   8.819   4.921  0.0694 -0.0434 -0.2519
26124W        W44328  11.050   0.575   4.502 -0.1040 -0.0946  0.1248
26125W        W44329   4.703  11.373  15.312 -0.1455 -0.2484 -0.1516
26126W        W44330   8.919  17.616  13.492  0.0275 -0.1192  0.3369
26127W        W44331   1.126   3.864   3.255 -0.1625 -0.1965 -0.0022
26128W        W44332  14.762  10.600  13.995 -0.1412 -0.0527 -0.3336
26129W        W44333   3.216  12.151  10.903 -0.2861 -0.1297  0.1920
26130W        W44334  15.356   8.310  12.220  0.2220 -0.1494 -0.1352
26131W        W44335  10.348   2.749   5.094 -0.0460 -0.0246  0.2634
26132W        W44336   4.870  10.937  15.733 -0.0226 -0.0214 -0.1365
26133W        W44337   8.857   7.357  13.803 -0.1341  0.0463  0.1686
26134W        W44338  16.364   8.107   2.307 -0.0431  0.1331  0.0884
26135W        W44339  15.675  12.868   4.253 -0.0667 -0.1478 -0.1827
26136W        W44340  15.705  15.220   1.310  0.0339  0.0065 -0.3129
26137W        W44341   1.622  13.532   2.182  0.1108  0.0687 -0.1661
26138W        W44342   8.965   0.328   2.452 -0.1988  0.1129  0.1232
26139W        W44343  10.840   4.131  15.256  0.2713 -0.3078 -0.0319
26140W        W44344   2.460   3.697   1.605 -0.0517  0.0368  0.0908
26141W        W44345   4.972  17.167  10.927  0.1318 -0.0136 -0.1048
26142W        W44346   4.881   4.976   2.046 -0.0518  0.1653  0.1280
26143W        W44347  11.547   8.397  12.844  0.2327  0.1157 -0.3859
26144W        W44348   9.013   8.177   4.150  0.3422  0.0026  0.3945
26145W        W44349  14.959  12.315   1.187 -0.1338 -0.3314  0.4342
26146W        W44350   6.705   6.164  12.993 -0.0417 -0.2012 -0.0393
26147W        W44351   0.602   8.248   2.184  0.1114  0.2562 -0.0652
26148W        W44352  12.398  16.232   1.397 -0.1002  0.0733 -0.1765
26149W        W44353  12.909   7.066   4.960 -0.1606  0.0479  0.2584
26150W        W44354   5.232   8.621   4.382  0.3134  0.1072 -0.0728
26151W        W44355   3.483  14.854  13.894 -0.0091 -0.0160  0.1216
26152W        W44356   1.891   0.899   1.323  0.2686  0.0881  0.1077
26153W        W44357  16.866  16.205   4.695  0.0017 -0.0981 -0.1284
26154W        W44358  15.709   6.202   3.874 -0.1084  0.2408 -0.1563
26155W        W44359  11.166  10.616   1.685  0.2060  0.1046  0.4105
26156W        W44360   0.117   7.946   0.777  0.1877 -0.0881 -0.1795
26157W        W44361   2.953  11.298  15.367  0.0349 -0.2152 -0.2775
26158W        W44362   1.753  13.359  13.908  0.3182 -0.2541 -0.1338
26159W        W44363   7.502  12.745  12.184 -0.1368 -0.0732  0.1686
26160W        W44364  12.549   4.676   2.278  0.1872  0.0916  0.1092
26161W        W44365   1.186  16.630  12.304  0.1103 -0.2220  0.3266
26162W        W44366  11.944   3.137  14.319 -0.0226  0.2585  0.0607
26163W        W44367   8.513  10.180  12.399 -0.1322 -0.0304 -0.0559
26164W        W44368   2.709   5.946   1.085  0.2129 -0.1263  0.1424
26165W        W44369  13.665   4.263  13.543  0.0214  0.0765  0.0151
26166W        W44370   8.916   2.014   3.776 -0.1204  0.2435  0.1616
26167W        W44371  13.346  14.975   0.554 -0.0112  0.2548  0.0725
26168W        W44372  11.391  16.634  10.035  0.1464 -0.0425 -0.1981
26169W        W44373  12.413  12.725  15.269 -0.0444  0.1365 -0.1181
26170W        W44374   3.777   9.589  12.328 -0.2047  0.1682  0.0909
26171W        W44375  14.066   8.796   0.043  0.1818  0.1174  0.2951
26172W        W44376  14.189   3.342   4.785  0.1704  0.2679  0.1164
26173W        W44377  10.037   6.971  15.094 -0.0649  0.0626  0.2088
26174W        W44378  10.162   9.118  14.375  0.2163 -0.0321 -0.2871
26175W        W44379  16.717  11.602  12.748 -0.0188  0.0626  0.0249
26176W        W44380   0.674  14.663  13.292 -0.0621  0.0269  0.0368
26177W        W44381  13.104   0.700   3.992 -0.0115  0.0417  0.1331
26178W        W44382  11.340   1.185  14.836 -0.2695  0.1082  0.2508
26179W        W44383  16.416   7.188  13.364 -0.0950 -0.0064  0.1756
26180W        W44384  18.031   6.598   3.203 -0.0521  0.0420  0.2260
26181W        W44385   7.869  13.744   3.295 -0.3429  0.2990  0.2299
26182W        W44386   1.558  11.665   4.369  0.1911 -0.0170  0.2722
26183W        W44387  15.877   5.491   2.070 -0.1794  0.0569  0.2354
26184W        W44388  15.949  17.492   5.501  0.1237 -0.0092  0.2350
26185W        W44389   2.007   2.127   3.528  0.0698 -0.1232  0.1083
26186W        W44390   8.413   8.034   0.134  0.0449 -0.2894  0.3028
26187W        W44391  14.780  10.074   4.921 -0.3339  0.0037 -0.1539
26188W        W44392   0.645   7.846   4.049  0.0041  0.1309 -0.0732
26189W        W44393   5.601   4.659  12.951 -0.2901 -0.1483  0.0223
26190W        W44394  17.156   2.834  15.150 -0.0284 -0.1339  0.0229
26191W        W44395  11.514   3.849   0.546  0.5897  0.1734 -0.0817
26192W        W44396  15.957  10.093   3.454 -0.1057 -0.1694  0.1910
26193W        W44397   0.091   0.361  15.034 -0.0758 -0.0565  0.0225
26194W        W44398   7.332  17.952   3.123  0.0334  0.2748  0.0492
26195W        W44399  17.441   7.216   3.330 -0.3590  0.1872  0.2329
26196W        W44400   4.447  11.932  11.283  0.1881  0.0273 -0.1424
26197W        W44401  13.331  14.145   0.828  0.0587  0.1176  0.1865
26198W        W44402  17.601  13.690   1.195  0.0521  0.2694 -0.0547
26199W        W44403  16.175  14.723  14.741 -0.0046  0.0701  0.3235
26200W        W44404   0.811   0.690   1.366  0.0592 -0.1486 -0.0122
26201W        W44405   0.224   3.735   0.038 -0.1133  0.1832  0.0384
26202W        W44406  15.665   7.030  12.724 -0.0732  0.3314  0.1741
26203W        W44407   7.946   9.870  12.794 -0.1589  0.3217 -0.0677
26204W        W44408  16.484   5.463  13.423  0.1951 -0.1557 -0.0381
26205W        W44409   9.931  10.993  12.270  0.3070 -0.6557  0.3679
26206W        W44410  16.703   2.988   4.311  0.0472 -0.1002 -0.0930
26207W        W44411   1.847  17.399   4.580 -0.0971  0.1895 -0.0356
26208W        W44412   8.766   3.814  11.536  0.3417 -0.0469 -0.0636
26209W        W44413  13.811  17.929   3.144  0.0040 -0.1984 -0.0196
26210W        W44414   9.564  14.873   1.004 -0.0544 -0.0207  0.3143
26211W        W44415   9.214   1.306   1.981  0.2895 -0.2057  0.0917
26212W        W44416   0.061  13.969  13.813 -0.2415  0.1707  0.2676
26213W        W44417  15.097  13.708  14.734 -0.3642  0.0554 -0.0055
26214W        W44418   4.311  12.314   0.295 -0.0663 -0.0417 -0.3048
26215W        W44419   3.694   1.438   2.850  0.0277 -0.1425 -0.0183
26216W        W44420  13.931   5.899   0.576 -0.1243 -0.1824  0.2837
26217W        W44421   7.400  15.275   2.274  0.3083 -0.0209  0.0774
26218W        W44422   7.459   4.756  15.592 -0.0308 -0.1189 -0.1375
26219W        W44423   4.172   4.871   4.997  0.1755  0.0373 -0.2647
26220W        W44424   0.519  10.821  13.371 -0.3139  0.0721  0.3057
26221W        W44425   6.697   8.454  15.993  0.1920  0.0799 -0.1863
26222W        W44426   5.786  13.297   5.216 -0.1230  0.0280  0.2219
26223W        W44427   1.718  15.075  14.232  0.0894 -0.2129  0.0833
26224W        W44428  17.585  11.622  13.722 -0.3062  0.1408  0.0819
26225W        W44429  11.880   7.859   6.044  0.2234  0.3567  0.0004
26226W        W44430  10.550   6.116   2.906 -0.0757  0.0567 -0.0553
26227W        W44431  17.476  13.070  15.520  0.4006 -0.0608 -0.0369
26228W        W44432   0.759   6.793   2.565  0.1577 -0.0126 -0.0653
26229W        W44433  10.063   4.772   3.490 -0.1747  0.3195  0.2221
26230W        W44434  16.019   2.502  15.582 -0.0683 -0.1377 -0.0953
26231W        W44435   0.625  10.117  12.292  0.1049  0.1499 -0.1622
26232W        W44436   4.682  13.345   0.304 -0.1602 -0.1539  0.2637
26233W        W44437   5.067   8.038  12.600 -0.0437  0.0955  0.2452
26234W        W44438  15.543   5.234   4.509 -0.0400 -0.1218 -0.1392
26235W        W44439  11.802   4.873  12.290 -0.0134  0.0495 -0.1279
26236W        W44440   0.593   9.461  15.585  0.0378  0.1668  0.2508
26237W        W44441   6.362  10.237  11.966 -0.0288  0.1358 -0.0334
26238W        W44442   1.333   4.700  16.125  0.0525 -0.2462  0.0484
26239W        W44443  14.074  18.034   4.636 -0.4260 -0.0214  0.0658
26240W        W44444   3.682   9.648   3.519 -0.0594 -0.3336  0.0089
26241W        W44445  14.794   7.708  11.024 -0.0631  0.0656  0.0334
26242W        W44446   7.608   2.349   2.556 -0.0427  0.2749  0.1581
26243W        W44447   5.892  11.952   3.216 -0.0992 -0.0948  0.1579
26244W        W44448  13.225   6.050  13.285 -0.1473  0.0270  0.3017
26245W        W44449   1.013   5.902   3.752 -0.1217 -0.2401 -0.1892
26246W        W44450   3.955  12.060   3.341  0.2812  0.2209 -0.2980
26247W        W44451  12.773  16.780   2.217 -0.1774 -0.2305  0.0100
26248W        W44452   6.919  17.892   4.932  0.1837 -0.0388 -0.1728
26249W        W44453  11.045   3.791  11.654  0.0170  0.4230  0.2901
26250W        W44454   0.688   8.521   4.850 -0.0709  0.4157 -0.0937
26251W        W44455  13.668  16.324   1.334 -0.2185 -0.0335 -0.2513
26252W        W44456   4.878  15.939   3.988  0.0486 -0.0489 -0.0439
26253W        W44457   3.594  15.235   2.024 -0.1908 -0.3958 -0.2862
26254W        W44458  13.984   7.675  12.613  0.3699 -0.0332  0.0868
26255W        W44459   9.527   8.106   4.689  0.0261 -0.2628  0.2430
26256W        W44460  14.044  12.085  12.305 -0.2752 -0.1057 -0.2126
26257W        W44461  14.501  15.083   3.296 -0.1112 -0.0301  0.1072
26258W        W44462   5.306   4.957   0.716  0.2185  0.2843  0.1190
26259W        W44463  10.602   6.484   2.146  0.0303  0.1451  0.1254
26260W        W44464   4.061   3.065  14.795  0.1355  0.1371  0.0684
26261W        W44465   5.554   6.068   2.505  0.1716 -0.1220 -0.3173
26262W        W44466  14.522  15.994   3.950  0.1074 -0.1384 -0.0349
26263W        W44467  11.674   7.086  13.959 -0.0825  0.0425  0.0525
26264W        W44468   0.844   5.441   4.602  0.1693  0.0589  0.2145
26265W        W44469  12.247   7.514   3.828 -0.0809  0.3209 -0.1968
26266W        W44470   3.524   3.980  13.301  0.1740  0.0792 -0.0957
26267W        W44471   5.650   9.438  10.614  0.2459  0.0091  0.1380
26268W        W44472  10.704   2.643   2.192 -0.3819 -0.0521  0.5486
26269W        W44473  12.374   4.376  14.775  0.1167  0.4274  0.1670
26270W        W44474   3.205  17.485  11.401  0.0337 -0.2464 -0.2231
26271W        W44475   5.982   0.032  11.449 -0.2626 -0.0647  0.3402
26272W        W44476   3.505   8.865  11.942 -0.0976 -0.0504 -0.0660
26273W        W44477   8.123  11.383  12.887  0.2225  0.2239  0.0511
26274W        W44478   9.257   7.046  14.448  0.1947 -0.0165  0.1415
26275W        W44479   0.152   0.914   3.395 -0.0467 -0.4060 -0.1620
26276W        W44480   9.079  15.338  14.630 -0.0259  0.2385 -0.0948
26277W        W44481  10.422  11.331  15.177  0.0701 -0.0244 -0.0779
26278W        W44482  15.222  13.393  11.297 -0.0938 -0.0880  0.0337
26279W        W44483  15.615  11.634   2.622 -0.0689  0.1066 -0.0466
26280W        W44484  11.477  16.094   4.136 -0.1792 -0.2929 -0.3255
26281W        W44485  10.278  17.265  12.353 -0.1542 -0.2384  0.0852
26282W        W44486   9.898   2.051   1.111 -0.0231  0.0998  0.0365
26283W        W44487   9.661   5.966   5.205 -0.0750 -0.2945  0.4333
26284W        W44488   0.688   9.603  14.735 -0.1740 -0.4197 -0.2465
26285W        W44489   6.273  17.376  14.125 -0.0898  0.0440 -0.1209
26286W        W44490   4.542  13.382   1.276 -0.0495  0.0338 -0.1603
26287W        W44491   2.286   7.573  15.198  0.1429  0.0380 -0.0498
26288W        W44492   5.935   4.443   2.119 -0.1901 -0.1145  0.1617
26289W        W44493  11.803  16.247   3.613 -0.0076  0.1197  0.1376
26290W        W44494  16.078  12.789   2.341  0.2171  0.1768 -0.2178
26291W        W44495  14.659  14.861  12.232 -0.0549 -0.0714  0.3159
26292W        W44496   5.027   3.276  12.523 -0.0287 -0.3499  0.2724
26293W        W44497  14.042  16.724   1.471 -0.2128 -0.1102 -0.1608
26294W        W44498   3.181  11.902  14.382 -0.0125 -0.1326  0.0459
26295W        W44499   2.506   1.484  14.036  0.1342 -0.1898  0.1960
26296W        W44500   5.661   9.635   3.403 -0.1821 -0.2823 -0.2395
26297W        W44501  16.926   6.010   1.451 -0.0795 -0.2811  0.2217
26298W        W44502  12.540  11.648  15.662 -0.0243 -0.2446 -0.1052
26299W        W44503  12.112  13.340   2.398  0.0247 -0.0125 -0.0602
26300W        W44504  17.836   2.066   1.707  0.1551 -0.1049 -0.1599
26301W        W44505   6.685   3.089   0.097 -0.0002 -0.3472 -0.1353
26302W        W44506   4.178  18.021  12.277  0.1266  0.1059 -0.0681
26303W        W44507  14.587   3.972  14.895 -0.4245  0.1588 -0.1288
26304W        W44508  13.734  15.911   3.103  0.3091  0.1247 -0.0268
26305W        W44509  16.483   7.270   1.727  0.0463  0.3286  0.0436
26306W        W44510   8.924   2.368  12.012  0.0938  0.0842 -0.0104
26307W        W44511  16.616   6.564  12.814  0.0458  0.0033 -0.2410
26308W        W44512  14.721  10.747   3.537 -0.2975 -0.1187  0.3518
26309W        W44513  11.386  11.948  13.320 -0.4333  0.0878 -0.0190
26310W        W44514   6.409   8.496  12.401 -0.2001  0.2334 -0.1524
26311W        W44515  17.501  16.948  11.990  0.0895  0.0369  0.0823
26312W        W44516  13.091  11.581  13.992 -0.4127 -0.1545  0.1758
26313W        W44517  10.310  12.706   1.597 -0.3544  0.0421 -0.1290
26314W        W44518  13.821  17.078   2.159 -0.0590  0.0966 -0.0409
26315W        W44519  17.446   9.526  15.432 -0.4245 -0.1205  0.1814
26316W        W44520   3.447   4.503   0.329 -0.1428  0.0400 -0.3333
26317W        W44521   8.488   5.719   4.415 -0.0679  0.0934  0.0473
26318W        W44522   3.270   0.341  15.644 -0.0659  0.0607  0.3029
26319W        W44523   6.641   5.347   2.579  0.1101 -0.0976 -0.2851
26320W        W44524  15.327  12.409  13.912  0.1770 -0.0671  0.0012
26321W        W44525   5.837  12.811  13.979  0.3920 -0.0493 -0.1935
26322W        W44526   6.772   5.131  14.004  0.0285 -0.1413 -0.2798
26323W        W44527  15.245   1.438  11.971 -0.0665 -0.1660  0.0209
26324W        W44528   4.891  15.793   0.241 -0.0103 -0.0280 -0.1724
26325W        W44529  15.181   2.722   2.291 -0.1541  0.2104 -0.0774
26326W        W44530  13.393   9.978  15.329  0.0977  0.2370 -0.1878
26327W        W44531  10.897  10.670   2.144 -0.2853  0.0929 -0.3117
26328W        W44532   6.594  15.907  13.397  0.2531  0.0200 -0.1307
26329W        W44533   9.239  16.737   1.631 -0.1492 -0.0446 -0.2005
26330W        W44534  16.271  14.571  15.869 -0.0077 -0.0347 -0.0049
26331W        W44535  16.848   6.925   1.290 -0.3673  0.3584 -0.1295
26332W        W44536   6.175   1.751  12.612  0.4574 -0.2164 -0.0547
26333W        W44537  12.099  13.064  15.408 -0.3221  0.0000  0.1216
26334W        W44538  11.795  11.465   4.294  0.2246 -0.0618 -0.1691
26335W        W44539   4.222   2.294  13.306 -0.3015 -0.0027  0.2277
26336W        W44540  17.727  15.578  14.795  0.0782  0.0256  0.2794
26337W        W44541   7.816   2.914   3.969  0.0083 -0.0727  0.0755
26338W        W44542   7.867   0.824   2.252  0.1575  0.0324  0.0374
26339W        W44543  10.994  13.973  15.492  0.0170  0.0639  0.1248
26340W        W44544  16.074   7.536  13.303  0.2070 -0.0085 -0.1152
26341W        W44545   8.018   0.291   4.116  0.2905  0.0570  0.0384
26342W        W44546  13.123  13.796  13.136  0.3395  0.1049  0.1048
26343W        W44547  17.918   4.147   2.580 -0.3093 -0.1256 -0.1732
26344W        W44548   4.934   4.185  12.917 -0.0548  0.0572 -0.0514
26345W        W44549   1.414   0.318  13.357  0.3018  0.2420  0.0215
26346W        W44550   3.430   3.435   2.621 -0.2642  0.3100 -0.3314
26347W        W44551  11.012  14.947  15.756 -0.3336 -0.1622 -0.2127
26348W        W44552  11.479   9.404   3.360 -0.4197 -0.0662 -0.3287
26349W        W44553  10.098  15.906   0.026  0.0744 -0.1145 -0.1060
26350W        W44554  11.533  11.861   4.532 -0.2657  0.1399  0.0255
26351W        W44555  17.643   0.897   3.681  0.0387 -0.2630  0.2961
26352W        W44556   4.844   6.965   1.451 -0.0809 -0.2833  0.0943
26353W        W44557  17.927  16.968  12.621 -0.1523 -0.0092  0.1305
26354W        W44558   6.793  17.456   2.930 -0.0537  0.0426  0.0538
26355W        W44559   6.565   3.447  13.620 -0.2455 -0.0804  0.0433
26356W        W44560   4.822  15.316   1.634 -0.0053 -0.0036 -0.0587
26357W        W44561   5.697  13.267  13.699  0.1615 -0.2855  0.0399
26358W        W44562  13.871   6.797   0.500 -0.1379  0.0421  0.3792
26359W        W44563   1.146  10.111   0.876 -0.2858 -0.0435  0.1382
26360W        W44564   1.694   9.136   2.570 -0.1314  0.2854  0.0559
26361W        W44565   2.243   0.971   1.788  0.1567  0.0981 -0.0118
26362W        W44566   8.001   0.204  12.704 -0.0609 -0.0692  0.1994
26363W        W44567   2.165  11.948   2.112  0.1147 -0.0553  0.2275
26364W        W44568   4.861   8.886  13.229  0.2115 -0.4213  0.1301
26365W        W44569   6.296   5.736   3.741 -0.2255  0.1963 -0.2966
26366W        W44570   2.718   5.204   3.313  0.0234  0.0158 -0.2576
26367W        W44571  16.306   8.261  15.732 -0.2083 -0.0381  0.0774
26368W        W44572  12.151  12.852   3.556 -0.0793 -0.0033 -0.0879
26369W        W44573  17.432  13.354   3.836 -0.0067  0.1268  0.1338
26370W        W44574   3.478  12.698   2.097  0.1146 -0.0319 -0.2032
26371W        W44575   3.374   9.332   0.096 -0.0359 -0.3984  0.1796
26372W        W44576   3.596   9.047  13.827 -0.2798  0.2963 -0.0710
26373W        W44577   5.960  14.711   3.557 -0.3761  0.0685 -0.2129
26374W        W44578   0.528  15.843  13.366  0.0143 -0.1342 -0.1164
26375W        W44579  12.587  15.856   4.515 -0.1435 -0.0850 -0.1157
26376W        W44580   3.893   1.707  13.848 -0.1258 -0.0570 -0.2062
26377W        W44581   3.986   6.094   1.636  0.0310 -0.1444 -0.2538
26378W        W44582   5.030  13.176  15.431  0.0023  0.0633  0.1667
26379W        W44583   7.715   9.782   2.092 -0.0263 -0.2239  0.1286
26380W        W44584  10.075   9.316  13.934 -0.0623  0.0094  0.1130
26381W        W44585  12.129   3.339   3.599 -0.1452 -0.0484  0.1026
26382W        W44586  16.649   6.287  13.674  0.2036 -0.2461  0.1307
26383W        W44587  15.147   2.623   1.738  0.1881 -0.3954 -0.1141
26384W        W44588   8.164  15.445  13.417 -0.1241 -0.0233  0.0903
26385W        W44589  12.695   2.834  11.610  0.0877 -0.1130 -0.0382
26386W        W44590  16.738  16.329  10.036 -0.0111 -0.0376 -0.2346
26387W        W44591  11.354  13.129  14.657 -0.2839 -0.3197  0.1733
26388W        W44592   3.598  13.467  15.718  0.1817  0.0982 -0.1747
26389W        W44593   2.080   6.498  12.022 -0.2531  0.0371 -0.2707
26390W        W44594  15.654   7.056  15.492  0.0612 -0.1510 -0.0563
26391W        W44595   0.400   7.257  15.218  0.2457 -0.3878 -0.1482
26392W        W44596  12.983  15.155  15.215 -0.1115 -0.0166 -0.0156
26393W        W44597   2.827  14.870  11.757  0.1669  0.0563  0.0205
26394W        W44598   0.252  13.992   2.883 -0.2712  0.1095  0.1535
26395W        W44599   2.241   8.862   4.229  0.1179 -0.0506  0.1374
26396W        W44600   8.264   6.005  12.815 -0.0448 -0.1586 -0.1220
26397W        W44601  11.309   7.337   2.383 -0.2293 -0.2960  0.2086
26398W        W44602   7.635   6.088   1.552  0.1778 -0.2659 -0.2961
26399W        W44603   7.309   9.863   3.830  0.1028  0.0557 -0.0061
26400W        W44604   0.083   1.958  15.456 -0.3148 -0.0130 -0.2966
26401W        W44605   0.936  17.018  12.509  0.0227 -0.2116  0.0303
26402W        W44606   2.810  15.392  11.356  0.0683 -0.1036  0.0959
26403W        W44607  12.611   5.696  14.351  0.0470 -0.1460  0.1218
26404W        W44608   8.893   0.389   1.416  0.1594 -0.1402 -0.0899
26405W        W44609  16.328  12.046  12.650 -0.2799  0.0781  0.0202
26406W        W44610  15.507   0.684  14.622 -0.0350  0.0232  0.0107
26407W        W44611  14.725   8.155  13.469 -0.0528 -0.1610 -0.2348
26408W        W44612   7.365  13.900   4.246 -0.0863 -0.2565  0.0252
26409W        W44613   1.209  15.517  12.931  0.1358 -0.0255 -0.0181
26410W        W44614   2.792   8.382   1.449 -0.4252 -0.2748  0.2174
26411W        W44615   2.801   6.529  15.619 -0.2331  0.0126  0.1087
26412W        W44616   5.082   7.748  14.784  0.0463  0.2496  0.0019
26413W        W44617  10.131   0.965   3.527  0.1710  0.2290  0.0834
26414W        W44618  14.420   8.218   5.420 -0.0790 -0.1116 -0.0434
26415W        W44619   3.062  10.645  14.597  0.1675  0.1448  0.0282
26416W        W44620  11.964   8.743  11.792 -0.0105 -0.0742  0.0442
26417W        W44621   9.643   2.788  15.878 -0.0644  0.2735 -0.1307
26418W        W44622   8.177   5.038   2.530  0.1406  0.1831 -0.0356
26419W        W44623   0.402   7.021  11.252  0.0338  0.1554 -0.4878
26420W        W44624  12.204   7.036  11.375  0.1608  0.1957  0.0091
26421W        W44625   9.233  10.054  13.938 -0.1591  0.2105  0.1517
26422W        W44626   2.305   9.827  15.620 -0.0305 -0.4106  0.0504
26423W        W44627   7.893  16.385  12.967  0.0366  0.1602 -0.1314
26424W        W44628  17.498   6.481   3.976 -0.0827  0.0735  0.0332
26425W        W44629   6.047   7.524   3.644  0.1205  0.2939  0.0604
26426W        W44630   8.746  13.285  12.422  0.3410 -0.0900  0.1384
26427W        W44631  16.853  14.673   3.330 -0.1414  0.0418 -0.1188
26428W        W44632   5.395  16.447  16.017 -0.3633 -0.0238 -0.0603
26429W        W44633  18.008   1.196  10.930  0.1043  0.2350  0.0157
26430W        W44634  13.050  17.757  13.502 -0.1689 -0.1697 -0.2186
26431W        W44635  15.081  11.951  14.152 -0.1129 -0.1786 -0.0463
26432W        W44636   1.143   5.875  10.400 -0.1031  0.1366 -0.0860
26433W        W44637  15.315   6.061  14.391 -0.1339  0.1960 -0.1551
26434W        W44638   8.912   7.069   3.150  0.0442 -0.0212  0.0000
26435W        W44639  14.802  17.982   2.696 -0.0736  0.3007 -0.1156
26436W        W44640   0.431   6.790   4.107  0.1412  0.0951  0.1521
26437W        W44641  10.780  14.489  12.025  0.0107  0.1171  0.0070
26438W        W44642  10.306  17.565  15.493 -0.2455 -0.1149 -0.1649
26439W        W44643  14.227   2.567   3.818  0.1889 -0.0052 -0.2693
26440W        W44644  12.702   6.823   4.541 -0.0656 -0.1879  0.1653
26441W        W44645  17.977   3.434   3.764  0.0081  0.0577  0.0190
26442W        W44646   4.089  14.551   3.291  0.0662  0.1772 -0.0644
26443W        W44647  11.841   5.911   0.876  0.2807  0.0061  0.0543
26444W        W44648   2.200  11.298  13.596  0.2411  0.0146  0.1404
26445W        W44649  11.669  17.540  12.806  0.1432 -0.1786 -0.2846
26446W        W44650   2.389   0.655  13.648 -0.2745 -0.3401  0.0393
26447W        W44651   7.062  16.620  10.700  0.0324  0.0996  0.0427
26448W        W44652   7.867  15.674   0.987 -0.2498  0.2448  0.1334
26449W        W44653  16.859   3.714  10.779  0.1399  0.0712 -0.3451
26450W        W44654  10.210   5.076  12.691 -0.1419 -0.2329  0.1335
26451W        W44655   1.353   2.175  15.864 -0.0744 -0.0051 -0.0615
26452W        W44656   9.773   2.404  12.380  0.0319  0.0413 -0.2246
26453W        W44657   3.198   8.616   2.903  0.1951 -0.2624  0.3797
26454W        W44658   1.811  17.021   1.374 -0.3258  0.1788 -0.3420
26455W        W44659   0.061  12.346  14.771  0.1311  0.1415  0.0940
26456W        W44660  13.187   2.793   3.685 -0.1020 -0.2589 -0.0409
26457W        W44661   4.955  17.880  11.478  0.1029 -0.1376 -0.0454
26458W        W44662  10.863  16.615  11.840 -0.0382  0.2217 -0.0768
26459W        W44663  11.644   3.635   2.889 -0.1947 -0.2202 -0.2001
26460W        W44664  17.609  12.113  12.958 -0.3768  0.1646  0.2875
26461W        W44665   7.079   7.142  14.111 -0.1935 -0.0844 -0.3412
26462W        W44666   9.742  12.097   3.364  0.2323 -0.0454 -0.3224
26463W        W44667  13.362   4.199   1.335 -0.1473 -0.0051 -0.1194
26464W        W44668   5.756   1.835  11.520  0.0593 -0.2077 -0.2760
26465W        W44669   3.029  10.314   0.216  0.3498 -0.3563 -0.0862
26466W        W44670   9.608   3.994  10.491 -0.2370 -0.2493  0.0542
26467W        W44671   2.957  11.489  14.901 -0.0274  0.1350 -0.1382
26468W        W44672   5.276  12.804   1.057 -0.1341 -0.0453  0.1404
26469W        W44673  15.816   7.918  14.453  0.0691  0.0360 -0.1144
26470W        W44674   9.060  16.300   1.928 -0.2105 -0.1934 -0.2770
26471W        W44675   6.403   6.970  12.165 -0.0275 -0.0801 -0.0206
26472W        W44676   0.661   9.295  13.719 -0.0000  0.2060  0.0087
26473W        W44677   4.773   4.938  11.938  0.3114  0.0187 -0.1034
26474W        W44678  11.367  10.151   1.478  0.0785 -0.4100  0.1199
26475W        W44679  15.462  11.537  16.149 -0.3133  0.1504  0.4798
26476W        W44680   6.371   4.844   4.224 -0.0700  0.3412  0.3379
26477W        W44681  11.464  17.758  13.184  0.2472  0.0886  0.0335
26478W        W44682   4.745   9.443  14.426 -0.0908  0.0021 -0.0367
26479W        W44683  11.598  14.854  15.875 -0.0695 -0.0357 -0.0647
26480W        W44684  10.844  13.032   2.298 -0.1179  0.1313  0.0211
26481W        W44685   4.344   8.758  13.280  0.0526  0.0071 -0.0501
26482W        W44686  16.471   4.130  10.774 -0.0070 -0.3379  0.3722
26483W        W44687   8.039  11.962   3.916 -0.2046  0.0634 -0.3351
26484W        W44688  14.262   3.325   2.606  0.2502  0.1799  0.1934
26485W        W44689   8.027  10.497   4.812  0.0814  0.0374 -0.0780
26486W        W44690   3.757   9.435  15.666  0.0594 -0.0181 -0.0107
26487W        W44691  14.011  12.610  15.871  0.1057 -0.1723 -0.3272
26488W        W44692   3.059   5.595  15.273  0.0530 -0.0492  0.0725
26489W        W44693  12.028   2.325  11.487 -0.2592  0.0177  0.1575
26490W        W44694  12.368  13.749  11.441  0.0183  0.1245 -0.0662
26491W        W44695  13.068   2.746  12.964  0.0428 -0.0247 -0.0609
26492W        W44696  17.964  15.906   0.656 -0.3126 -0.3711  0.0362
26493W        W44697  12.497  17.208   2.360  0.1645 -0.2766 -0.1874
26494W        W44698   5.155   2.100   2.070 -0.0634  0.2885  0.2189
26495W        W44699  15.277  17.090  14.786 -0.0542 -0.0461 -0.0929
26496W        W44700   7.517  13.544   1.238  0.1189  0.0125 -0.2946
26497W        W44701   0.845   2.725   0.228 -0.2412 -0.1275 -0.3316
26498W        W44702  15.026  13.447   0.408  0.4419 -0.3285 -0.0069
26499W        W44703   2.125   0.612  13.080 -0.2242  0.2759 -0.2311
26500W        W44704  10.068   7.961  15.130  0.0276  0.0477 -0.0017
26501W        W44705   9.920   8.568   2.728  0.2195  0.2136  0.0157
26502W        W44706   1.435  11.881  15.331  0.3462 -0.1644  0.3867
26503W        W44707  12.779   6.264  13.296  0.1130  0.0128  0.5272
26504W        W44708   7.918   7.926   3.314  0.0250  0.0524 -0.1108
26505W        W44709   1.910   6.548   3.547 -0.0365  0.3340  0.2905
26506W        W44710  11.982   7.628   2.613 -0.1543  0.0635 -0.0541
26507W        W44711   2.036   7.678  12.964  0.0647 -0.2083 -0.2801
26508W        W44712  17.246   4.762   0.558  0.2355 -0.1501  0.0399
26509W        W44713   9.525   9.159  16.043  0.0535 -0.0293  0.0691
26510W        W44714   8.381   1.119   2.454 -0.0941  0.1780 -0.1972
26511W        W44715   2.581   4.002   3.536  0.2473  0.1847  0.0700
26512W        W44716   5.112   8.663  14.988  0.2019 -0.0094 -0.0730
26513W        W44717  15.009   1.291   2.774  0.0024 -0.0243  0.0590
26514W        W44718   1.472  13.000  13.146  0.2962  0.2547 -0.1309
26515W        W44719   3.692   3.208  12.965  0.0384  0.0520 -0.1977
26516W        W44720   4.954  10.427  12.057 -0.0016 -0.4408 -0.1525
26517W        W44721   1.345   9.356   1.384  0.0025 -0.3891  0.0527
26518W        W44722  12.897  13.165  15.055 -0.1191  0.1746 -0.1239
26519W        W44723  16.216   5.356  13.786 -0.0278 -0.1512  0.2778
26520W        W44724   7.032   8.035  15.882  0.0828 -0.1286  0.1467
26521W        W44725   2.430  14.705  12.282 -0.0473  0.0165 -0.0513
26522W        W44726  13.329  17.881   2.987  0.0797  0.2414 -0.1036
26523W        W44727   5.520   1.029   2.935  0.0092  0.0643  0.3171
26524W        W44728  11.245   5.899   2.424 -0.3053 -0.3826  0.0630
26525W        W44729   2.860   9.941   3.513 -0.2536  0.0669  0.0937
26526W        W44730  12.563   2.171   3.519 -0.2083  0.0376  0.5234
26527W        W44731  10.685  17.837  11.600  0.0870 -0.2470  0.0190
26528W        W44732  16.295   3.141   2.931  0.1152 -0.0943 -0.5104
26529W        W44733   6.954  13.593  13.782  0.0232 -0.0549 -0.0359
26530W        W44734  16.852   4.893  11.516 -0.2476  0.0412 -0.2039
26531W        W44735  17.370  13.763  13.151  0.2119  0.0492  0.1511
26532W        W44736   3.376   0.502   1.963 -0.0985  0.2969 -0.1892
26533W        W44737  13.119  16.995  11.820 -0.0018 -0.0942 -0.3923
26534W        W44738  17.545   9.595   3.339 -0.0223  0.0314 -0.0566
26535W        W44739  18.039   4.821  12.583  0.1355  0.1017  0.0988
26536W        W44740   7.663   6.885  14.356 -0.1179  0.2563 -0.1247
26537W        W44741  14.726  12.840   2.467  0.1829 -0.0599  0.0189
26538W        W44742   4.524  15.145   3.828  0.3638  0.0470 -0.2221
26539W        W44743   1.167   6.702   2.846 -0.1854 -0.0871  0.3166
26540W        W44744   9.588  12.044   2.555  0.2622 -0.1126 -0.0975
26541W        W44745  15.041  14.911   0.280  0.2027 -0.0358  0.1235
26542W        W44746   4.464   9.688  16.158 -0.0110 -0.1025 -0.0774
26543W        W44747   4.120   6.895  13.327 -0.0947  0.0262  0.0586
26544W        W44748  12.342   3.250   3.154 -0.0602  0.0210  0.2240
26545W        W44749  16.689   5.997   1.999 -0.1696  0.1721  0.1028
26546W        W44750   4.519   2.163  15.337 -0.1203  0.2485  0.3642
26547W        W44751   7.828   5.087  11.794 -0.1916  0.0638 -0.0208
26548W        W44752   1.267   1.300  13.396 -0.1166 -0.0770  0.2734
26549W        W44753  16.953   4.325  15.947  0.0299 -0.1380  0.1424
26550W        W44754   4.075   7.117   3.192 -0.0737  0.0536  0.2725
26551W        W44755   6.340  13.346   5.468 -0.2452 -0.0338 -0.1703
26552W        W44756   4.286   1.712  15.332 -0.4868 -0.1097  0.0513
26553W        W44757   1.832   5.556  12.085 -0.1731 -0.0656  0.0321
26554W        W44758   1.051  14.551   1.404  0.2185 -0.2082  0.1460
26555W        W44759   9.636  10.556   5.571 -0.0380 -0.1273 -0.1211
26556W        W44760   6.146   2.145  16.115 -0.1375 -0.1077 -0.3597
26557W        W44761   2.485  16.617   4.495  0.1082  0.0163 -0.0750
26558W        W44762   1.051  10.548   2.464  0.3751  0.1230  0.3718
26559W        W44763  12.445  18.031  12.820  0.1705 -0.0686  0.1775
26560W        W44764  17.828   8.498   1.898  0.0545 -0.1786  0.3958
26561W        W44765   0.491  15.474   3.832 -0.2404  0.0330  0.0741
26562W        W44766   6.185  12.582  13.697 -0.2020  0.0656 -0.0930
26563W        W44767  16.410   6.932  16.137 -0.3013  0.0212  0.3045
26564W        W44768   5.878   5.877   5.027 -0.2005  0.2913 -0.0304
26565W        W44769   2.859  11.646   0.244  0.0242 -0.0468 -0.0681
26566W        W44770   3.601  13.379   2.573  0.0485  0.2507  0.1651
26567W        W44771  13.542  15.868   0.954  0.0662 -0.1009 -0.0968
26568W        W44772   7.741  11.241   2.170 -0.0091 -0.0884 -0.0582
26569W        W44773  15.021   8.874  12.758 -0.2710  0.2150  0.0363
26570W        W44774   3.996   4.605   2.861 -0.3382  0.2222 -0.2780
26571W        W44775  16.052  17.046  15.633  0.1573  0.2449 -0.0007
26572W        W44776  15.940   8.469  12.133 -0.0670 -0.2274  0.1692
26573W        W44777   0.831   3.349   2.362  0.0375  0.0064  0.1899
26574W        W44778   8.722   0.838   0.671  0.0353 -0.2285  0.0827
26575W        W44779   5.561  16.774  11.969 -0.2319  0.0446  0.3221
26576W        W44780   7.149   0.965   2.826  0.1985  0.2082  0.1508
26577W        W44781  16.060   6.366   2.337  0.1976  0.2624  0.0665
26578W        W44782  12.711   0.497  14.694 -0.0036 -0.2990 -0.0730
26579W        W44783   7.227  15.660  12.953 -0.2498 -0.0841  0.2990
26580W        W44784  13.726   8.391   0.170 -0.4462 -0.4038  0.0149
26581W        W44785   8.010   5.055  11.146 -0.2479  0.2940  0.0213
26582W        W44786  10.983  17.396   3.452  0.1901 -0.1051 -0.0330
26583W        W44787   6.601   2.848  14.953 -0.0789 -0.2371 -0.2720
26584W        W44788  12.707  14.178  13.328 -0.1174 -0.0973  0.1051
26585W        W44789  15.050   5.301  13.045 -0.1833  0.1621  0.3290
26586W        W44790   3.588   7.899  13.007  0.1930 -0.1457  0.2852
26587W        W44791   7.646   1.331  14.439 -0.1045 -0.1888 -0.1734
26588W        W44792   5.203   9.140   0.187 -0.1830  0.1785  0.2530
26589W        W44793   4.166  11.754   2.949 -0.2790 -0.1948  0.1799
26590W        W44794   8.116  12.810   4.792 -0.0277 -0.2077 -0.2218
26591W        W44795  15.863   7.495  11.317 -0.3291  0.1110  0.2855
26592W        W44796  11.660   5.818  13.365  0.0812 -0.2647  0.2425
26593W        W44797   1.198   7.957  12.203 -0.0124  0.3566 -0.0099
26594W        W44798  10.476   4.390  12.284 -0.3698  0.0490  0.0458
26595W        W44799   6.711  15.315  11.955  0.1005  0.1998 -0.0146
26596W        W44800  15.278  12.863  13.117 -0.2373  0.0127 -0.1325
26597W        W44801   8.507  14.627   3.532 -0.0365 -0.1790  0.3396
26598W        W44802  12.671   5.550   4.770 -0.1734 -0.2366 -0.1761
26599W        W44803   2.713  12.778   2.274  0.2137 -0.1066 -0.1256
26600W        W44804   8.125   9.795   0.438  0.0431 -0.3095 -0.1267
26601W        W44805  10.241  15.854  15.272 -0.1574  0.1498  0.1649
26602W        W44806   4.589  14.076  13.987  0.2070 -0.1206 -0.4576
26603W        W44807  11.845  10.022  13.815 -0.2325  0.0440  0.2234
26604W        W44808   7.734   8.871  10.440  0.1981 -0.1939  0.1327
26605W        W44809   9.838   3.050  12.887 -0.0170 -0.2062 -0.0523
26606W        W44810   4.829   7.155   0.026  0.2049  0.1673  0.0188
26607W        W44811   9.599  13.050  14.765  0.1827 -0.1164 -0.1809
26608W        W44812  12.910   6.744  13.450  0.3267  0.0687 -0.1304
26609W        W44813   2.167  13.217  11.063  0.0841 -0.2529  0.1557
26610W        W44814   1.368  11.658  13.491 -0.0107 -0.0721 -0.1264
26611W        W44815  11.078  13.182  13.931  0.1121  0.0627 -0.1316
26612W        W44816   0.347  13.777  15.161 -0.2556 -0.1956 -0.1403
26613W        W44817  16.061  11.577  12.155  0.1992 -0.2961  0.0508
26614W        W44818  15.828  17.093   2.705  0.1830 -0.3558 -0.1169
26615W        W44819   1.982   2.650   3.966  0.2587 -0.1630  0.1383
26616W        W44820  16.497   1.721  15.697  0.0520  0.1875  0.2145
26617W        W44821  15.118   1.239   0.858  0.0234  0.3440  0.1595
26618W        W44822   2.999   8.816   3.889  0.0984 -0.1770 -0.0221
26619W        W44823  14.314   5.344  16.120  0.0263 -0.0745 -0.0531
26620W        W44824   1.833   5.927   0.635  0.1161  0.0279  0.2520
26621W        W44825   4.818  10.726   3.926  0.1921 -0.1129  0.1502
26622W        W44826  10.787  13.750  13.674  0.3361 -0.0324 -0.0204
26623W        W44827   9.794   2.737  15.045 -0.0141  0.2432  0.1355
26624W        W44828  15.924   6.689  15.295 -0.0455 -0.0767  0.0048
26625W        W44829  10.191   6.721   0.030  0.2808  0.1943 -0.3164
26626W        W44830   4.873   8.581   2.811 -0.0758  0.0854  0.2023
26627W        W44831  15.019  12.556  14.939  0.0596 -0.0221 -0.0307
26628W        W44832   2.086   0.809  12.157 -0.2089  0.0816  0.1425
26629W        W44833  15.403   6.056   5.585 -0.0478  0.3178 -0.1824
26630W        W44834   9.743   2.226   0.265 -0.0640  0.0501  0.0686
26631W        W44835  17.754   2.949   1.162 -0.0684 -0.2024 -0.3691
26632W        W44836  15.894  17.221  12.362 -0.2980 -0.1018  0.1518
26633W        W44837   5.752   1.026   2.376 -0.0672 -0.1356 -0.1700
26634W        W44838  16.230   4.555   2.556  0.0803  0.1180 -0.1057
26635W        W44839   2.988   5.947  14.818 -0.0053  0.2489 -0.1205
26636W        W44840  10.037  17.695  14.126 -0.0039 -0.2846  0.0856
26637W        W44841   4.614  14.529  12.452  0.2093 -0.2750 -0.2753
26638W        W44842  11.034  10.508  15.521 -0.1517  0.1748  0.0261
26639W        W44843   6.640   7.194  12.623 -0.4265 -0.0735  0.2162
26640W        W44844   7.889   3.122   4.885  0.2455 -0.0633 -0.1939
26641W        W44845   1.935  13.308   1.773  0.1932  0.2069  0.1170
26642W        W44846   9.626   3.031  14.014 -0.0600 -0.2238  0.2906
26643W        W44847   8.789  13.132   4.256  0.0272  0.0178 -0.0828
26644W        W44848   9.804   2.208  11.032  0.0405 -0.0228  0.1569
26645W        W44849   5.413   3.878  14.056  0.4217 -0.0477 -0.1285
26646W        W44850   3.021  11.624  13.169  0.0423 -0.0567  0.0133
26647W        W44851   4.430  13.775  13.564 -0.1969  0.0623 -0.2415
26648W        W44852  11.565  11.579  13.652 -0.0459  0.1141  0.0632
26649W        W44853   9.569   0.734  12.548  0.2325 -0.0865  0.3667
26650W        W44854  16.014  11.281  15.694 -0.1194 -0.1161 -0.3194
26651W        W44855   5.752  11.436  10.496  0.0992  0.1765  0.2571
26652W        W44856   2.494   3.349   4.376  0.1446 -0.0444 -0.0009
26653W        W44857  18.032   6.028   4.639 -0.2024  0.3072  0.3581
26654W        W44858   8.024   3.777  13.647  0.2099  0.3815 -0.1184
26655W        W44859   1.660  12.676   5.888  0.0674  0.0584  0.0235
26656W        W44860   5.168   3.281   0.135 -0.0634 -0.0744 -0.1440
26657W        W44861   8.764  10.355   4.280 -0.5456  0.0741 -0.0883
26658W        W44862   2.081  15.283  14.507 -0.0602  0.2024 -0.1719
26659W        W44863   8.143  17.699  12.570  0.1425 -0.3188 -0.2062
26660W        W44864   0.727  17.725  15.058 -0.3210 -0.1841 -0.0340
26661W        W44865  14.348   8.867  13.960  0.0007 -0.1596  0.2411
26662W        W44866  16.372  11.356  13.102  0.2236  0.2110 -0.2492
26663W        W44867   4.222  11.936  16.122 -0.2540 -0.0422  0.1131
26664W        W44868   0.875  13.041   0.321 -0.0594 -0.0155 -0.2551
26665W        W44869  15.174  18.034  15.324  0.1238 -0.0557 -0.0850
26666W        W44870  10.745   7.070  12.530 -0.0320 -0.1103  0.2192
26667W        W44871  10.620  15.403  11.944 -0.1408 -0.2062  0.1102
26668W        W44872   5.923   6.717  12.800 -0.1296  0.0796  0.1360
26669W        W44873  11.478  15.879   1.814  0.3268 -0.0197  0.1546
26670W        W44874   6.748   4.365   2.952 -0.0472 -0.0375 -0.0113
26671W        W44875  13.771   7.165   2.986 -0.0914  0.1431  0.0042
26672W        W44876  16.678  12.968  13.625  0.1454 -0.0783  0.0168
26673W        W44877  17.729  11.890  12.492  0.1830  0.2996 -0.1695
26674W        W44878  17.891   8.368  13.504 -0.0489 -0.0274 -0.0507
26675W        W44879  17.238   5.327  13.675 -0.0771 -0.0498  0.0010
26676W        W44880   2.897   4.565   2.078  0.3831  0.0622  0.2560
26677W        W44881   3.509  11.757   1.729  0.1167 -0.0218 -0.1136
26678W        W44882  16.526   2.655   0.221  0.0870  0.2447 -0.3331
26679W        W44883  15.023  13.609   4.120  0.0640  0.1102  0.0135
26680W        W44884  13.478   0.345  11.368  0.0936 -0.2116  0.3052
26681W        W44885   5.067  13.550   0.641 -0.0818  0.0987 -0.2102
26682W        W44886   4.704  12.926   1.895 -0.1773  0.3306  0.1732
26683W        W44887  11.162  14.581  10.170  0.1529 -0.0736  0.2192
26684W        W44888   0.950  12.247   0.622  0.1635  0.0323  0.1188
26685W        W44889  10.593   7.874  12.357 -0.2631  0.2026 -0.0379
26686W        W44890  11.533   1.494   5.693 -0.0177  0.0076 -0.0881
26687W        W44891   4.289  17.505   0.442  0.0322  0.1266 -0.2110
26688W        W44892  16.989  11.537  12.310 -0.1131 -0.0518 -0.0777
26689W        W44893   1.961  17.900  12.036 -0.1219  0.0485  0.1176
26690W        W44894   3.515   8.247   3.620 -0.0124 -0.3088  0.1287
26691W        W44895  14.026   6.029  11.857 -0.2451  0.2895  0.0550
26692W        W44896   0.290  10.679  11.875 -0.0037  0.0138  0.2579
26693W        W44897   2.898  10.227  11.931 -0.0628  0.0637  0.4111
26694W        W44898   2.139   8.634   4.983  0.1108 -0.3488 -0.3528
26695W        W44899   5.202   8.234  11.641 -0.1488  0.1480 -0.3771
26696W        W44900   1.190   6.764  14.724  0.0608 -0.0724  0.1143
26697W        W44901  12.431   3.887  13.198  0.0065 -0.1209  0.1135
26698W        W44902   1.630   5.906  15.851  0.2229 -0.0741  0.3441
26699W        W44903   5.801   7.626   0.806 -0.0507  0.0247  0.1594
26700W        W44904   7.272   0.466   4.733  0.0502 -0.0384 -0.2968
26701W        W44905   7.986  12.045   5.206  0.2390 -0.3914  0.1322
26702W        W44906  17.659   9.812   0.637  0.3955  0.2314  0.1179
26703W        W44907   9.268  17.980  16.071 -0.2083 -0.1036  0.1722
26704W        W44908  17.959  15.947   0.108  0.0158 -0.1478  0.0313
26705W        W44909  11.224   1.008  12.907 -0.0906 -0.2983  0.0155
26706W        W44910   5.591   5.263   3.963  0.1484  0.1657  0.0682
26707W        W44911  15.778   9.250  15.605 -0.0708 -0.0147  0.3149
26708W        W44912   7.571   6.159  15.522 -0.0312  0.1264  0.0419
26709W        W44913  17.087   3.692   2.371  0.1651  0.1337 -0.0666
26710W        W44914  12.561   5.203   5.616  0.2991  0.1610  0.1841
26711W        W44915   3.007   4.089  13.135  0.2776 -0.1287 -0.4097
26712W        W44916   1.431   6.451  15.125 -0.0426  0.2098 -0.2267
26713W        W44917  10.025  10.219   4.252 -0.0150 -0.2994  0.0369
26714W        W44918   8.666  14.649  13.471 -0.0713  0.1335 -0.2476
26715W        W44919   5.848   4.800  15.056  0.2337  0.0790 -0.0320
26716W        W44920  10.040  13.047   5.144  0.1261  0.1717 -0.1177
26717W        W44921   0.871   4.318  12.399  0.3780 -0.0188  0.0224
26718W        W44922  12.624  11.877   4.799 -0.0145  0.0010 -0.2431
26719W        W44923   4.669   2.043   0.441  0.2296 -0.0100  0.1182
26720W        W44924  10.072   1.202  14.345  0.0273  0.1597  0.2567
26721W        W44925  15.669  13.297  15.830 -0.4326  0.0044 -0.1797
26722W        W44926  17.334  16.499  15.036 -0.3268 -0.1362  0.0258
26723W        W44927   8.472   2.885  13.220 -0.0918  0.0042  0.1552
26724W        W44928   0.634   0.645  12.877 -0.2559 -0.2133 -0.0803
26725W        W44929   6.104  11.194  12.448 -0.2320  0.3539  0.3657
26726W        W44930  17.643   9.017  15.519  0.1613 -0.1737 -0.1339
26727W        W44931   3.930   4.465  12.086  0.1591  0.0891 -0.1533
26728W        W44932   6.163   8.453  11.518  0.0918 -0.1399 -0.0737
26729W        W44933  16.394  16.148  14.229  0.0156  0.0567  0.0862
26730W        W44934   5.100  16.802  14.732 -0.0270  0.0136  0.0561
26731W        W44935   2.355   2.988  12.071  0.4022 -0.0326  0.1236
26732W        W44936  13.856  12.395   3.995 -0.2201 -0.0616  0.1102
26733W        W44937   0.453   5.998  13.368  0.2658  0.0182  0.1779
26734W        W44938  11.166   8.701  14.759  0.2066 -0.0119  0.0485
26735W        W44939  15.999   4.824  14.568 -0.1373 -0.0403 -0.0869
26736W        W44940  11.851   9.740   4.728  0.3081  0.1888 -0.0715
26737W        W44941  16.923  17.822   0.635 -0.1454 -0.3593  0.0527
26738W        W44942  15.718  15.817  13.837 -0.1912  0.1217  0.1947
26739W        W44943   4.728   1.133  13.689  0.3189  0.1710  0.0709
26740W        W44944   1.110   4.471   4.870 -0.1107  0.1326 -0.0142
26741W        W44945  16.379  17.591  13.359  0.2948  0.1053 -0.0171
26742W        W44946   1.618   2.980   2.065  0.0849  0.2159  0.0745
26743W        W44947  10.884   6.035  14.380 -0.0151  0.4024  0.0810
26744W        W44948  17.517   6.492   5.138 -0.2914  0.1524 -0.2023
26745W        W44949   2.231  17.800   3.773 -0.2014 -0.0753  0.0757
26746W        W44950   5.910  10.257  12.352  0.4140 -0.0401  0.1095
26747W        W44951   1.608   6.647  15.868 -0.0428  0.0998  0.2083
26748W        W44952  13.003   8.698  13.554 -0.2757  0.4186  0.0744
26749W        W44953   6.821  15.221   2.060  0.1006  0.1960 -0.0535
26750W        W44954   0.745   6.406  13.574  0.1848  0.3971 -0.0442
26751W        W44955   9.237   8.096  12.741  0.0688  0.1666  0.0474
26752W        W44956   6.338   1.751   5.308  0.0047  0.0947 -0.0640
26753W        W44957  13.378  10.574   3.254  0.1606  0.2409  0.0237
26754W        W44958  15.791   7.942  12.150  0.1964 -0.2041  0.1267
26755W        W44959   5.589  10.059  11.267  0.1002  0.1259  0.2737
26756W        W44960  17.875  16.019   1.654 -0.0103 -0.1664 -0.1649
26757W        W44961   2.198   2.143  12.221  0.0295  0.0055 -0.2224
26758W        W44962  14.015   4.063   4.901 -0.1225 -0.0978  0.0849
26759W        W44963  14.729  14.992  12.728 -0.1692 -0.0493 -0.0167
26760W        W44964  12.766  15.566  11.584  0.0709 -0.0108  0.1582
26761W        W44965  13.470   6.622   1.977 -0.0110  0.2145 -0.4801
26762W        W44966   1.744  16.185   1.312  0.3193 -0.3782  0.0753
26763W        W44967  14.255   1.129   1.576 -0.0218  0.2650  0.1956
26764W        W44968   0.319   7.221  12.834 -0.0865 -0.1408 -0.2365
26765W        W44969   0.399  14.178  13.488 -0.0796 -0.1259 -0.1849
26766W        W44970   8.880  10.240  13.108  0.4111 -0.0763 -0.0605
26767W        W44971   3.130   6.614  12.710  0.0487  0.0431 -0.0385
26768W        W44972   6.680  11.426   2.705 -0.0207 -0.2334  0.1146
26769W        W44973   6.340   5.724  16.001 -0.3495 -0.0514 -0.1270
26770W        W44974  16.163  17.328   4.702  0.2341 -0.0159  0.0612
26771W        W44975  16.867   8.899  16.174 -0.1062  0.0198  0.0203
26772W        W44976   3.685   9.618   0.427 -0.2691 -0.1361  0.0134
26773W        W44977   8.208  10.840   4.597  0.0539 -0.2199  0.2402
26774W        W44978  12.523  11.919  15.203  0.1126 -0.1290  0.3685
26775W        W44979   6.367   9.102   3.813 -0.0431  0.0498 -0.0343
26776W        W44980   3.589  15.636   1.348 -0.1006  0.0187  0.1005
26777W        W44981   4.662   3.934  12.592  0.1557 -0.0051  0.0181
26778W        W44982   1.134  17.121  12.029 -0.0113 -0.2197 -0.1403
26779W        W44983   4.847   1.133   2.937 -0.0418  0.0574  0.0307
26780W        W44984   0.226   2.997   0.751  0.0716 -0.2773 -0.1182
26781W        W44985  11.519   3.638   4.866  0.1189  0.1078  0.0465
26782W        W44986  10.872   2.281  13.357  0.5757  0.1076  0.1131
26783W        W44987   1.740   3.800   4.449  0.0623  0.2531  0.3343
26784W        W44988  16.256   6.343  12.557  0.2793  0.0103 -0.1663
26785W        W44989   2.791   5.874   0.532 -0.1856  0.0130 -0.2382
26786W        W44990   3.848   1.009   3.092 -0.0999 -0.0617  0.1611
26787W        W44991   7.923  15.958   2.584  0.3455  0.0059 -0.3721
26788W        W44992   7.787  15.422   2.547  0.3391  0.1987  0.1626
26789W        W44993  12.057  11.915   4.449  0.1603 -0.1156  0.0773
26790W        W44994   5.043  18.030  15.212  0.0962 -0.1507  0.2489
26791W        W44995   3.401   0.775  15.326  0.0668  0.0312  0.0986
26792W        W44996  10.143  10.812  12.982 -0.1999  0.1014  0.3453
26793W        W44997  10.024   2.866   3.549  0.0215 -0.0170 -0.0654
26794W        W44998  13.061  15.939   4.336  0.0124 -0.3664  0.0622
26795W        W44999  11.957  17.678   1.415  0.1284  0.2121  0.0762
26796W        W45000  16.237  17.732  12.935 -0.0697  0.1243 -0.0268
26797W        W45001   4.015   8.794  10.526  0.1523 -0.0910  0.1764
26798W        W45002  12.080  17.017   1.937 -0.0926  0.0734 -0.0031
26799W        W45003   1.292   0.692  15.275 -0.0678 -0.1283 -0.1049
26800W        W45004  12.099   0.254  16.140 -0.2129 -0.0169  0.1215
26801W        W45005   9.846   1.733  11.689  0.1119 -0.2336  0.1027
26802W        W45006   5.984   0.446   0.741 -0.0918  0.4477  0.1098
26803W        W45007   6.098   6.104  15.986  0.0896 -0.1354  0.0619
26804W        W45008  11.806  16.858  13.631  0.0368 -0.1668 -0.1634
26805W        W45009  10.828   0.234  12.738 -0.0121 -0.1391  0.3523
26806W        W45010  15.827   8.608  13.053 -0.2808  0.2702  0.1962
26807W        W45011   8.831   5.681  13.543 -0.0304 -0.0031 -0.0530
26808W        W45012  10.450   5.626  14.985 -0.1681  0.1562  0.2453
26809W        W45013   1.239  15.528  11.893  0.1261  0.2419 -0.1133
26810W        W45014  12.114  10.915   1.194 -0.1709  0.1141  0.0501
26811W        W45015  10.316   6.590   3.634  0.1762 -0.0336 -0.1305
26812W        W45016   0.099   2.512   3.947 -0.3518  0.2197  0.0382
26813W        W45017   4.189   7.204   4.887 -0.1343 -0.3223  0.1598
26814W        W45018  14.987  10.222   0.559  0.1535  0.0925 -0.0005
26815W        W45019   3.500  10.479  14.788  0.2194  0.2084  0.0922
26816W        W45020   8.222   3.563  14.380 -0.1578  0.0794  0.0517
26817W        W45021  13.410  10.773   0.382 -0.1430  0.2094  0.1035
26818W        W45022  16.721  11.737  15.446 -0.0849  0.2953 -0.0090
26819W        W45023  16.092   1.132   1.972  0.3109  0.2052 -0.0249
26820W        W45024   6.300  12.588  15.101 -0.0742 -0.1257 -0.1023
26821W        W45025   2.462   9.761  13.112 -0.1747  0.0008 -0.2560
26822W        W45026  11.574  13.382   2.492  0.1651 -0.0647  0.1489
26823W        W45027  16.284   9.817  15.319  0.0250 -0.1297  0.1821
26824W        W45028   5.766  15.716   4.230  0.0919 -0.0144  0.5107
26825W        W45029  10.999  16.884  12.853  0.1320 -0.1475 -0.1173
26826W        W45030   8.962  17.599   0.099  0.0833  0.0510  0.0216
26827W        W45031   3.256  13.639  14.631  0.0743 -0.3184 -0.4376
26828W        W45032   9.249  13.352   4.328 -0.0529  0.1183 -0.0300
26829W        W45033   6.103   9.901   0.886  0.2699  0.1931  0.2314
26830W        W45034   9.879  17.971   2.841  0.2095 -0.0854 -0.0456
26831W        W45035  11.499  14.019  14.888  0.0884  0.0275  0.2754
26832W        W45036  11.015  11.661  16.053 -0.2105 -0.2266  0.2298
26833W        W45037   8.681   3.061  16.151  0.4575 -0.0551  0.1251
26834W        W45038  14.004   0.333   3.289  0.0606  0.2539 -0.0594
26835W        W45039   7.281   7.796  12.324  0.0609 -0.0162  0.3063
26836W        W45040   7.878   7.362  16.005 -0.0008 -0.0944  0.1496
26837W        W45041  16.774  11.961   4.108 -0.1094 -0.1365 -0.0156
26838W        W45042   6.266   7.400  13.567 -0.1533  0.1537  0.1615
26839W        W45043   5.553  17.948   0.188  0.1822  0.0378  0.0812
26840W        W45044  12.160   6.626   1.816  0.1588 -0.2869  0.0088
26841W        W45045   3.981   0.737   4.028 -0.2331  0.2225 -0.0013
26842W        W45046  16.976   6.955   5.791 -0.3031 -0.0744 -0.1268
26843W        W45047   1.484   2.000  12.771 -0.0197 -0.0576  0.1762
26844W        W45048   2.137   8.997   0.149  0.2700 -0.1692 -0.1963
26845W        W45049   8.403   0.281  13.210  0.2295 -0.2205 -0.0457
26846W        W45050   7.664  11.179   1.687 -0.0720  0.0419 -0.0486
26847W        W45051  17.747   6.551  15.637  0.1995  0.0267 -0.2813
26848W        W45052  14.583   9.537  15.710 -0.0769  0.1789  0.2256
26849W        W45053   9.464   4.451   0.085  0.2883  0.2243  0.2233
26850W        W45054  17.687  10.109  11.345 -0.0577  0.0574 -0.1487
26851W        W45055  13.009  10.783   2.469  0.1040 -0.0022 -0.0715
26852W        W45056  12.236   5.256   4.627 -0.0996 -0.1014 -0.2268
26853W        W45057   5.254   9.046   4.164  0.1815 -0.1888 -0.0537
26854W        W45058  15.157  14.792   4.476  0.0698 -0.0744  0.0576
26855W        W45059  12.687   5.985   2.994 -0.1651 -0.2011  0.0716
26856W        W45060   8.695   1.456   0.591 -0.0249 -0.0686  0.0613
26857W        W45061   3.026  13.138  12.104  0.1552  0.0078 -0.1540
26858W        W45062  12.134   6.617  12.242 -0.3235  0.3527  0.2616
26859W        W45063   0.562   7.628  12.730 -0.0347  0.0160  0.2471
26860W        W45064   0.838  13.730  13.083 -0.0219 -0.0684  0.0604
26861W        W45065  15.215   2.609  14.388 -0.1129 -0.0609 -0.0650
26862W        W45066  16.752  17.506  11.557 -0.2989 -0.0885 -0.1286
26863W        W45067  11.533   6.490   3.244  0.2490 -0.2175  0.1149
26864W        W45068   2.785   6.131  15.251 -0.1948 -0.0943  0.1202
26865W        W45069   5.558  14.139  14.112 -0.1125  0.1790  0.2659
26866W        W45070  12.588  15.606   1.004  0.0363  0.1747  0.4046
26867W        W45071  14.545   4.605   4.479 -0.1393 -0.1130 -0.1120
26868W        W45072   8.982   2.856   2.981 -0.2530 -0.4172  0.1333
26869W        W45073   3.039   4.194   3.513  0.1130 -0.0867  0.4824
26870W        W45074   5.965   9.078   5.218  0.1410  0.1032  0.0463
26871W        W45075   7.368  16.785   1.353 -0.0947 -0.1512  0.2052
26872W        W45076  17.678   5.569  15.641 -0.1984  0.0091  0.0864
26873W        W45077   0.707   2.833  14.180 -0.0374  0.0953  0.0905
26874W        W45078   5.759   2.763   1.013 -0.1382  0.3778 -0.0145
26875W        W45079   2.343   7.605   1.006  0.1721 -0.0948 -0.2192
26876W        W45080   4.677   6.220   2.541 -0.1385  0.0239 -0.1361
26877W        W45081   0.024   3.949  15.428 -0.1829 -0.0107  0.0853
26878W        W45082   8.846  10.602  14.433 -0.0545  0.3279 -0.1370
26879W        W45083  16.267   9.628  14.225 -0.0843  0.0464  0.2528
26880W        W45084   1.824   9.501  14.359  0.1157  0.4024  0.2244
26881W        W45085   7.959  16.916  12.692  0.0207 -0.1083  0.1741
26882W        W45086   3.048   1.561  12.271  0.3081 -0.0966 -0.1999
26883W        W45087  14.238   4.329  13.738 -0.1274  0.0105 -0.1430
26884W        W45088   6.753   9.985  11.774 -0.1998  0.2271 -0.1748
26885W        W45089   1.614   4.699   0.376 -0.0229  0.0993 -0.2541
26886W        W45090  17.431   4.064  15.899  0.3182  0.2786  0.5562
26887W        W45091   8.320   2.553  15.403 -0.4555  0.3441  0.0791
26888W        W45092   4.918  16.497  13.942 -0.5688 -0.1226  0.0278
26889W        W45093  10.812   0.444  11.320  0.0919 -0.3547  0.1313
26890W        W45094   2.065   5.535   2.788  0.0220 -0.0726  0.0128
26891W        W45095  18.015  10.177   1.500  0.0807 -0.0426 -0.1423
26892W        W45096  12.914   6.446  12.342 -0.3353 -0.2754 -0.1002
26893W        W45097  16.921  11.483   2.014  0.1606  0.0394  0.2802
26894W        W45098   0.931   1.911   3.587 -0.1052 -0.1195 -0.0651
26895W        W45099   9.158  14.542  13.559  0.1940  0.1340 -0.1053
26896W        W45100   9.414  11.089   0.099  0.1580 -0.0088 -0.0948
26897W        W45101   6.391   7.593  12.396  0.0714 -0.1700  0.2458
26898W        W45102  11.492  10.719   1.180  0.0388 -0.0974  0.2230
26899W        W45103   4.605   1.026   1.205 -0.4517 -0.1510 -0.0166
26900W        W45104  13.793   0.995  14.427  0.1352 -0.1894 -0.1124
26901W        W45105  14.617  15.643  11.099  0.4852  0.1758 -0.0963
26902W        W45106  17.268   2.455  11.943 -0.3364 -0.1908  0.3371
26903W        W45107   3.219   2.025  12.321  0.2544 -0.1106  0.0095
26904W        W45108  15.510   7.464   3.374  0.0119  0.0178 -0.1903
26905W        W45109  14.433  15.527  15.388  0.0574 -0.0422 -0.2603
26906W        W45110   5.892  13.244  15.644  0.1386 -0.3000  0.3429
26907W        W45111   4.229   1.787   0.546  0.0681 -0.2455 -0.1822
26908W        W45112   5.366   1.937  12.209 -0.3094 -0.0618 -0.1758
26909W        W45113  16.746  13.822  14.008  0.5050 -0.0258 -0.0987
26910W        W45114   9.801   3.641   2.018  0.1757 -0.3610 -0.1057
26911W        W45115   4.684   8.225  16.150  0.4506 -0.0980  0.0209
26912W        W45116   5.304   4.454   0.347  0.1129  0.1715 -0.2719
26913W        W45117   0.370  16.356  13.332  0.0027  0.1328 -0.0569
26914W        W45118  16.984   3.204  15.813 -0.0899  0.0525  0.1351
26915W        W45119  16.063  16.125  14.611  0.0471  0.1651 -0.1539
26916W        W45120   8.998  16.970   0.819 -0.4463  0.1610 -0.1957
26917W        W45121  13.211   8.271  12.622 -0.1179  0.0328  0.1681
26918W        W45122   1.224  14.357   0.946 -0.0391  0.0717 -0.0294
26919W        W45123   0.442   4.098   1.863  0.1060  0.2618 -0.1152
26920W        W45124   6.566  11.694  14.984 -0.3816 -0.0835 -0.1518
26921W        W45125   6.670   5.961  12.124  0.1136  0.0106 -0.1014
26922W        W45126  14.393   5.279   0.920  0.1207 -0.0514  0.1208
26923W        W45127  17.045  17.179  14.011 -0.1546 -0.0590  0.0612
26924W        W45128  10.285  13.044  13.361 -0.1889  0.2206 -0.1464
26925W        W45129  11.591   8.781  13.881 -0.2157 -0.4049  0.1863
26926W        W45130  17.719  10.752  13.050 -0.2470  0.1081 -0.0384
26927W        W45131   9.391  13.454   3.021  0.0885 -0.3216 -0.0384
26928W        W45132   5.850   2.554  13.346  0.0887  0.0402 -0.0608
26929W        W45133  16.519   0.018   1.398 -0.1572  0.1250  0.2761
26930W        W45134   2.076  14.324   3.350 -0.2249 -0.0897 -0.0189
26931W        W45135   3.474   7.345  13.542  0.4507 -0.0942  0.2080
26932W        W45136  16.091   0.988  13.581 -0.0096  0.1043 -0.0136
26933W        W45137  13.086  10.373  12.444  0.1137 -0.1165 -0.0159
26934W        W45138  12.941  16.470   4.252  0.0985 -0.1582  0.0322
26935W        W45139  16.951  14.048   0.958  0.1004  0.1200  0.1429
26936W        W45140  14.411   9.066  15.519 -0.2128  0.1554 -0.0009
26937W        W45141   7.284   4.172   3.771  0.1611 -0.1564  0.1349
26938W        W45142   5.917  17.283  12.869  0.0279 -0.0991 -0.2665
26939W        W45143   0.014   1.599   1.554  0.1016  0.1645 -0.1882
26940W        W45144  12.385   4.437   1.722  0.0761 -0.0622  0.1076
26941W        W45145  10.231  14.078   2.136 -0.1231  0.2834 -0.1800
26942W        W45146   9.709  13.778   2.044 -0.4005 -0.0290  0.2160
26943W        W45147  11.231   5.116   1.814  0.1334 -0.2218 -0.0965
26944W        W45148  15.706  14.659   5.247  0.0353 -0.1394  0.0548
26945W        W45149   5.681   2.256   4.095 -0.2538 -0.0510  0.0741
26946W        W45150   1.919  14.207  12.506  0.0037  0.2498  0.2953
26947W        W45151   8.561  14.521   4.080  0.0723 -0.1970  0.0947
26948W        W45152   1.718   6.902  15.456  0.1646 -0.0286  0.2216
26949W        W45153   6.056   0.458  15.620 -0.0271  0.2022  0.3019
26950W        W45154   2.957   5.068  12.742 -0.1128 -0.0660  0.1075
26951W        W45155   9.039  16.581   4.433  0.2285  0.0676 -0.2125
26952W        W45156  10.891   0.733  12.078  0.2134  0.0534 -0.3117
26953W        W45157   8.310   2.660   4.108 -0.1800 -0.1553 -0.0286
26954W        W45158  16.250  11.999   4.600  0.2901  0.1092  0.1419
26955W        W45159  16.534   5.036   2.752  0.2858 -0.0785 -0.2790
26956W        W45160  13.896   9.441   0.718 -0.1614  0.0839  0.4477
26957W        W45161  11.411  14.498  14.302 -0.1086 -0.0902 -0.0178
26958W        W45162   9.740  12.678  11.325  0.2558  0.0433 -0.2729
26959W        W45163  15.497   0.238   5.092  0.0407  0.0277 -0.1490
26960W        W45164  17.414  10.319   2.047 -0.1518 -0.3347  0.1667
26961W        W45165  11.630  12.101   3.543  0.0048 -0.1674  0.2188
26962W        W45166   5.071   0.492   3.504 -0.0716 -0.1721  0.0834
26963W        W45167  10.722   4.746   4.081  0.2527 -0.1984  0.1227
26964W        W45168   0.921  15.528  15.382  0.0436 -0.0833  0.0545
26965W        W45169   1.206   7.875   2.759  0.0829  0.0958  0.2404
26966W        W45170  13.481  15.451   1.154 -0.2136 -0.0168  0.0326
26967W        W45171  10.260   2.579  12.215 -0.1973 -0.0502  0.1668
26968W        W45172  10.375   8.757   5.170  0.1163 -0.2554  0.1252
26969W        W45173  13.515  16.357  13.843 -0.0505 -0.2494 -0.1983
26970W        W45174   9.129   2.519   2.026  0.0067  0.1013  0.0718
26971W        W45175   7.163   9.570  11.818 -0.0278 -0.2753 -0.0650
26972W        W45176  16.540  10.526   1.801  0.3622  0.2511  0.0224
26973W        W45177  17.088   1.911  11.954 -0.0297  0.0846  0.0798
26974W        W45178   2.450   1.717   1.260 -0.1183 -0.2395  0.0288
26975W        W45179  16.704  13.855   3.692 -0.0723  0.0465  0.2942
26976W        W45180   0.590   8.781   0.628 -0.3204 -0.2394 -0.0439
26977W        W45181  14.634  13.396   3.835 -0.2107 -0.1062  0.2038
26978W        W45182  16.399   4.487   0.292  0.1378  0.0375  0.1846
26979W        W45183  11.520  14.258   3.540  0.0470 -0.0336  0.3913
26980W        W45184  11.494  10.820   4.541 -0.0073 -0.1882  0.1352
26981W        W45185  12.989  13.647   2.578  0.0265 -0.0331 -0.1494
26982W        W45186  14.056  13.346   2.403 -0.0902  0.0708  0.0151
26983W        W45187  13.623   8.464  10.655 -0.4257 -0.0054 -0.0392
26984W        W45188   7.897   2.364   3.991  0.0973  0.0492 -0.3299
26985W        W45189  12.977   6.094  15.031  0.0084 -0.3676  0.2796
26986W        W45190  16.272   0.956   3.178  0.4312 -0.1309 -0.1056
26987W        W45191   6.908   9.443  10.333  0.1182 -0.3006 -0.0508
26988W        W45192   2.470   4.647   0.016  0.2793 -0.2133 -0.3627
26989W        W45193   5.055  10.747   5.212  0.0938 -0.1458 -0.1901
26990W        W45194   9.130   5.245  14.454  0.1249 -0.2676  0.0198
26991W        W45195   8.632  10.790   2.903  0.1103 -0.0444 -0.1767
26992W        W45196   2.030  13.507  10.667 -0.0855  0.1639 -0.1194
26993W        W45197  13.797   0.651   2.470 -0.0805  0.3709  0.0701
26994W        W45198  13.562   7.416  15.037  0.1433 -0.0064  0.0383
26995W        W45199  13.068  12.737   4.114 -0.0832 -0.1026  0.2778
26996W        W45200   4.708  11.447   4.441  0.0229  0.2886  0.2303
26997W        W45201  15.274   3.601   1.805 -0.0942 -0.2192  0.3490
26998W        W45202   7.628  14.715  12.927 -0.1237 -0.1387 -0.2352
26999W        W45203  16.698  12.439  13.849  0.0251 -0.0513  0.0789
27000W        W45204   3.701   4.347   3.146 -0.0964  0.1635  0.0227
27001W        W45205  11.492  15.839   1.334  0.1098 -0.1907  0.1577
27002W        W45206   6.619   7.045  14.749 -0.0351 -0.2295 -0.2055
27003W        W45207   8.523   5.724   2.097 -0.0811  0.0362  0.0129
27004W        W45208  15.476  16.650   1.173 -0.0833 -0.2571 -0.0268
27005W        W45209   7.657   2.787  14.875 -0.2640 -0.0454  0.0051
27006W        W45210  17.041  10.666  11.884  0.0908  0.2151  0.0175
27007W        W45211   8.696   1.885   4.226  0.1982  0.3127  0.1418
27008W        W45212  13.074  17.475  11.729  0.0872 -0.2432  0.0616
27009W        W45213  10.104   0.323  14.647  0.1270  0.2316  0.0775
27010W        W45214   3.398  13.075  14.558  0.1424 -0.0496  0.0480
27011W        W45215  10.561   8.133  14.311 -0.1081 -0.0596  0.0311
27012W        W45216   1.531  15.793  11.039  0.2235 -0.0162  0.0128
27013W        W45217   5.787  16.831   1.141 -0.0264  0.0887 -0.1573
27014W        W45218  17.836  11.752  15.384  0.0294 -0.2073  0.0710
27015W        W45219  11.147  15.215   3.790  0.0729 -0.1323 -0.3430
27016W        W45220  12.343   1.858  10.537  0.0311 -0.3348  0.2453
27017W        W45221   6.021  14.706  15.393  0.2477  0.0259  0.1345
27018W        W45222  14.801  17.493  16.031  0.1629  0.2969 -0.1108
27019W        W45223   4.444   6.732   4.668  0.1467  0.0289 -0.3201
27020W        W45224   4.686  15.232   0.469 -0.1354  0.1825 -0.2399
27021W        W45225   2.806   1.050  14.913  0.2766 -0.0567 -0.0139
27022W        W45226   1.999   0.309   3.079 -0.3291 -0.0466  0.1463
27023W        W45227   9.079   1.227  14.560  0.0367  0.1451 -0.0387
27024W        W45228   3.817  13.986   3.928 -0.2237 -0.1629  0.2291
27025W        W45229   9.758   8.693  14.460  0.0623 -0.1767 -0.1814
27026W        W45230  13.964   8.545  15.369 -0.2149  0.0726  0.1437
27027W        W45231  16.893  12.224  11.683 -0.1180  0.0838  0.2660
27028W        W45232  17.197   9.138  11.643  0.0460 -0.2141 -0.1533
27029W        W45233   7.054  17.991  12.146  0.1278  0.1028  0.1688
27030W        W45234  16.007  14.653   0.101  0.1176  0.1214  0.1514
27031W        W45235  12.151   9.425  15.759 -0.0302  0.2807  0.2405
27032W        W45236   0.914   3.833   2.377  0.1441  0.0986 -0.0508
27033W        W45237   5.301   3.548  14.487 -0.2650 -0.1730 -0.2115
27034W        W45238  11.766  14.871  12.926  0.1943  0.0949 -0.4567
27035W        W45239  14.546   7.402   4.479  0.2271 -0.1227 -0.0353
27036W        W45240   0.861  14.752   3.664  0.2309  0.0293 -0.2165
27037W        W45241   2.444   7.603   3.451 -0.0057  0.0650 -0.0715
27038W        W45242  10.631   0.604   3.041  0.2073  0.1699 -0.0332
27039W        W45243  12.375   9.697  14.745  0.1852 -0.0505  0.0508
27040W        W45244   9.899   8.358   4.484  0.0616  0.0441  0.1583
27041W        W45245   2.559  16.875  13.804  0.0735  0.0184 -0.0147
27042W        W45246  13.619   1.039  15.072  0.0791 -0.0024 -0.1241
27043W        W45247  15.207   3.091   3.815  0.0361 -0.0541 -0.1262
27044W        W45248   3.115   0.119  10.368  0.0847  0.3195 -0.1705
27045W        W45249  13.173  17.136   1.351  0.0857  0.5594  0.0218
27046W        W45250   9.892   8.503   4.971  0.0112 -0.0233 -0.1752
27047W        W45251  13.050  10.965   4.534  0.2107  0.0022 -0.1965
27048W        W45252  10.308   8.664   0.702 -0.1919  0.2148 -0.2870
27049W        W45253  13.837  14.828  13.006  0.2060  0.1690 -0.0316
27050W        W45254   7.342  11.516  11.983 -0.0687  0.1570 -0.0012
27051W        W45255   7.266   7.970   4.329 -0.1336 -0.1895 -0.1791
27052W        W45256  16.235  13.393  11.268  0.0746  0.3486 -0.0252
27053W        W45257  17.327  14.532  12.808 -0.3527 -0.0348  0.1328
27054W        W45258   7.302  13.056  14.382 -0.2514  0.0041 -0.1182
27055W        W45259   8.078   9.910  12.276  0.0299 -0.3152  0.0105
27056W        W45260  12.388   4.730  14.127  0.1892 -0.4806  0.1363
27057W        W45261   5.237   4.399   1.379  0.1690 -0.0409 -0.4940
27058W        W45262   5.360   5.962  15.510  0.0355 -0.2089  0.0512
27059W        W45263  16.502  10.248  13.896  0.1317 -0.0583  0.4390
27060W        W45264   0.945   3.446   0.564 -0.1550 -0.4166  0.0387
27061W        W45265   6.219   8.752  13.909  0.1086  0.1739  0.1310
27062W        W45266   2.064  13.998   4.952  0.0660 -0.0214 -0.0220
27063W        W45267   6.800   8.219   4.232 -0.1752  0.0710  0.0625
27064W        W45268   4.463  11.046   3.065 -0.1094  0.1267  0.1762
27065W        W45269   9.185   7.851  14.617  0.3418 -0.1533 -0.0938
27066W        W45270  14.390   1.010  12.369 -0.2863 -0.2308  0.0893
27067W        W45271  15.739   0.902  15.485 -0.1562  0.2085 -0.1820
27068W        W45272  12.877  14.318   0.053 -0.0201  0.0346 -0.0045
27069W        W45273   5.127  12.482   3.005 -0.0704  0.1661 -0.0042
27070W        W45274   8.518   2.325   4.452 -0.3165 -0.1365  0.1546
27071W        W45275   3.493   3.953   1.499  0.0398  0.1176 -0.0249
27072W        W45276  14.650  14.004  11.877 -0.1956 -0.1522  0.0630
27073W        W45277  12.637   0.641   1.617 -0.1877 -0.2804  0.1068
27074W        W45278   2.784   8.466   2.049 -0.0286  0.1896  0.0574
27075W        W45279   3.065   0.957   0.968 -0.2449  0.2368  0.1580
27076W        W45280   3.592  17.595  14.589 -0.2615 -0.0950  0.0795
27077W        W45281  12.895  12.543   2.081 -0.0902 -0.0623  0.0548
27078W        W45282  15.382  15.832  11.427  0.1619  0.0341  0.0422
27079W        W45283  17.477  10.921  12.652 -0.1763 -0.2352  0.0266
27080W        W45284  14.063   2.328   2.188  0.1048  0.0885 -0.1699
27081W        W45285  12.627  15.983  11.263  0.0399  0.3682 -0.1062
27082W        W45286  15.163   5.540   0.191 -0.0170  0.1321  0.0204
27083W        W45287   2.504   8.944  13.549 -0.0649 -0.2713  0.0942
27084W        W45288  11.287   3.915  12.062 -0.0885  0.0861 -0.0105
27085W        W45289   0.105   4.329  11.253 -0.0873 -0.1804  0.0846
27086W        W45290  14.323  15.505  15.947 -0.0187  0.0506 -0.2012
27087W        W45291  16.258  12.062  15.581 -0.0540  0.1506  0.3065
27088W        W45292  15.887   5.293   3.517 -0.2254 -0.0517  0.1609
27089W        W45293   8.087   0.263   5.403 -0.1502  0.0919 -0.2680
27090W        W45294   6.635  10.456  11.657  0.0429 -0.1278 -0.0951
27091W        W45295   9.558   1.058  14.331 -0.2285 -0.0091  0.3003
27092W        W45296  15.435  11.898  15.533 -0.1759 -0.0154  0.1134
27093W        W45297  10.846   7.751   1.349  0.0296 -0.2965  0.0125
27094W        W45298   6.050   1.150  11.989 -0.1886 -0.0808 -0.1999
27095W        W45299  17.452  14.192   0.926  0.0803  0.1069 -0.1301
27096W        W45300  11.014   9.926   3.893 -0.0849 -0.0633  0.0917
27097W        W45301   3.894   5.978  11.905  0.0242  0.0789 -0.0533
27098W        W45302   3.275   9.265   1.187 -0.1471 -0.2426 -0.2426
27099W        W45303   4.925   3.581   3.895  0.3104 -0.2381  0.1416
27100W        W45304  15.531  13.703   1.490 -0.0870  0.1013  0.2201
27101W        W45305  17.195  13.175  12.374 -0.1389  0.2531  0.4213
27102W        W45306   8.605  13.639   2.767  0.1127  0.2956 -0.3892
27103W        W45307  15.939   1.763  11.604 -0.0850  0.1262  0.1579
27104W        W45308  13.932   7.670  14.954  0.0787  0.1074 -0.0222
27105W        W45309  13.709  11.771   5.416  0.1110  0.2715  0.2997
27106W        W45310  17.011   3.838  15.772  0.1497 -0.2175  0.2692
27107W        W45311   0.229   3.713  13.400  0.1036 -0.1715  0.0468
27108W        W45312  14.653  13.923   2.752 -0.0902 -0.0853 -0.2594
27109W        W45313   4.436  12.010   1.608 -0.1821 -0.5200  0.2110
27110W        W45314   5.684   1.843   1.433 -0.2653  0.0236  0.2545
27111W        W45315   9.150   5.595   3.052 -0.1411  0.3284  0.0899
27112W        W45316  15.998   5.346   0.116 -0.2329 -0.1928 -0.1696
27113W        W45317   6.788   8.813   2.562  0.1551 -0.0111 -0.1015
27114W        W45318  12.761  15.454   4.188  0.2099  0.3610  0.0209
27115W        W45319   0.022   4.454   3.884 -0.1015  0.1552 -0.1659
27116W        W45320  14.158  12.365   3.621  0.1588  0.2981  0.2735
27117W        W45321   2.491  14.534   1.141  0.2734 -0.0573  0.0995
27118W        W45322   2.783  13.297   2.363 -0.2279 -0.1401  0.2883
27119W        W45323   7.787   5.856   2.413  0.0717  0.0098  0.0724
27120W        W45324  17.767   2.157   0.726  0.0137  0.0690 -0.0341
27121W        W45325  12.415   7.718  14.140  0.1528  0.3594  0.2142
27122W        W45326   6.674   7.391  13.320 -0.2295  0.0636  0.0203
27123W        W45327  15.332   1.076   2.495 -0.0538 -0.0328  0.1864
27124W        W45328  11.953  17.865   2.966  0.1136  0.0660  0.0057
27125W        W45329  17.646  13.589  14.685  0.0853  0.0898 -0.3184
27126W        W45330   0.274   9.941  13.127 -0.2509 -0.1717  0.1314
27127W        W45331   0.894  12.440  13.053 -0.0079 -0.0145 -0.1394
27128W        W45332  16.683  10.589   2.581 -0.1904  0.1301  0.0928
27129W        W45333   9.384  14.481   0.048  0.1949  0.2075 -0.0199
27130W        W45334   5.272   2.906  12.258  0.3459  0.2110 -0.1572
27131W        W45335  16.232  17.069   2.341 -0.2103  0.4345 -0.1417
27132W        W45336  13.994   0.169   2.216  0.0629 -0.0140 -0.0975
27133W        W45337   1.981   8.602   3.743  0.2339  0.2856  0.0177
27134W        W45338  17.807   4.372  15.523 -0.1543 -0.2621  0.1089
27135W        W45339   9.414  16.310   0.373  0.1720  0.2606 -0.1627
27136W        W45340  17.720   6.508   4.579 -0.4049 -0.3371  0.1950
27137W        W45341   1.686   4.731   4.323  0.0649  0.0011  0.1364
27138W        W45342   4.184   1.130   2.120  0.0392  0.0953 -0.0721
27139W        W45343   5.685   8.305   3.084 -0.0639  0.1809  0.1157
27140W        W45344  13.486  10.798   4.866 -0.0481  0.0539  0.0516
27141W        W45345  13.772  17.725  11.268 -0.2262  0.0750 -0.1149
27142W        W45346  11.089   5.237   3.902 -0.0901  0.1369  0.0170
27143W        W45347   4.897   9.076   1.263  0.1172 -0.1417  0.0035
27144W        W45348   8.087  17.074  15.682  0.0897 -0.1731  0.0891
27145W        W45349   2.942  17.472  15.041  0.0825  0.0727  0.3294
27146W        W45350  18.003  14.044  14.327 -0.3592  0.2826  0.1495
27147W        W45351  13.798  10.229  11.785 -0.1506 -0.0724  0.0762
27148W        W45352  17.069  10.448  15.043 -0.1278  0.0600 -0.1051
27149W        W45353   7.651  10.845   4.697  0.0629 -0.0664  0.1293
27150W        W45354  16.381  11.621  15.899 -0.0668 -0.1318  0.2218
27151W        W45355   3.630  12.986  13.579 -0.0739  0.0573 -0.2170
27152W        W45356   2.678   3.620   4.804  0.1298 -0.0723  0.0672
27153W        W45357  14.271  13.047   1.496  0.0814 -0.0875  0.0507
27154W        W45358   9.128   7.955   2.803  0.0172 -0.0514 -0.1193
27155W        W45359   0.836   7.321  15.505 -0.2088  0.2533  0.0135
27156W        W45360   4.376   4.858   4.445 -0.2122  0.0466 -0.1835
27157W        W45361  13.071   4.542  15.559 -0.0266  0.0954  0.1254
27158W        W45362   7.155  11.730  14.301 -0.1564  0.0852 -0.2222
27159W        W45363   7.273   5.089  14.297 -0.0680 -0.1451 -0.2717
27160W        W45364   8.392  13.669   3.317 -0.1454 -0.0388 -0.1834
27161W        W45365  17.058   9.609  13.800  0.1820 -0.0728 -0.2003
27162W        W45366  17.773  18.033  10.625  0.1076 -0.2870  0.0909
27163W        W45367  12.495   8.316   1.202  0.0209 -0.2964  0.2433
27164W        W45368   0.971   4.271  11.898 -0.2751  0.0024  0.1056
27165W        W45369  12.522   2.060   5.130  0.0620  0.0815  0.2145
27166W        W45370   7.693  11.250   4.225  0.0563  0.1731  0.0893
27167W        W45371  12.285   1.291   0.286  0.4742  0.0514 -0.3026
27168W        W45372   5.778  15.688  11.770 -0.1611  0.0627 -0.0551
27169W        W45373   3.704  11.683  11.992 -0.0797  0.2059 -0.2668
27170W        W45374   9.891   3.773   0.561  0.1593  0.3622 -0.1026
27171W        W45375  12.134   8.415  11.050 -0.0302 -0.0494  0.0390
27172W        W45376   5.788   9.416  12.481  0.0832  0.0481  0.3910
27173W        W45377   9.325   1.708  11.649 -0.3286 -0.3312 -0.0962
27174W        W45378   4.139   1.794   1.051 -0.1833 -0.0544  0.0202
27175W        W45379  10.231  10.282   3.394  0.2398 -0.2084 -0.0794
27176W        W45380  15.365   9.308  13.329 -0.1499  0.0881  0.3350
27177W        W45381  12.058   1.891   1.517  0.0782  0.4515  0.2594
27178W        W45382   9.041  13.102  11.298  0.0015  0.0651 -0.0221
27179W        W45383  15.375   3.541   3.406 -0.1778 -0.0561 -0.0584
27180W        W45384  10.870  16.146   1.099 -0.2587 -0.0473  0.3547
27181W        W45385   2.454   3.350   1.143  0.1247  0.1270  0.1463
27182W        W45386  16.298  14.018   1.238 -0.2676  0.3233  0.0244
27183W        W45387  10.902   0.601  15.202  0.0517  0.1721 -0.0705
27184W        W45388   6.170  15.914   1.159  0.0877 -0.1456 -0.0913
27185W        W45389   9.221  16.405  14.088  0.0207 -0.0168 -0.0449
27186W        W45390  12.462   7.771   2.496 -0.0861  0.0692 -0.1595
27187W        W45391   8.932  16.017  14.190  0.0367  0.0154 -0.0200
27188W        W45392   6.177  17.171  15.667  0.0548 -0.0869  0.1235
27189W        W45393   7.560  13.231   0.429 -0.0931  0.0495 -0.2395
27190W        W45394  17.070   9.313   3.207  0.1897  0.0049  0.0770
27191W        W45395   4.288  16.038   1.003 -0.0884  0.2357 -0.0116
27192W        W45396  17.817   1.495  15.366  0.0375 -0.0271 -0.0116
27193W        W45397   5.434  14.655   3.335 -0.2521  0.1155 -0.3682
27194W        W45398   2.410  10.364   1.544 -0.0066 -0.1438  0.3371
27195W        W45399   3.967   9.125  12.101 -0.1297 -0.1125 -0.1173
27196W        W45400  11.777   4.844   4.548  0.0425  0.2268 -0.0029
27197W        W45401  14.636   6.596   1.199  0.0675 -0.2950 -0.1417
27198W        W45402  15.336   5.943  14.897 -0.1910  0.0194  0.3235
27199W        W45403   9.096   6.900  13.694 -0.2028  0.0497  0.3146
27200W        W45404  15.983  13.464   2.984 -0.3171 -0.3322  0.0086
27201W        W45405   6.081   1.154  14.689 -0.0252  0.0905  0.1135
27202W        W45406   1.525  16.153  16.120  0.2190  0.3033 -0.2584
27203W        W45407  16.555  12.901  14.606  0.0125  0.1415  0.1307
27204W        W45408  17.741   6.837  12.185  0.1686  0.0144  0.2398
27205W        W45409   7.683  12.687  12.625 -0.2672 -0.3885  0.2014
27206W        W45410  13.920   7.545   0.518  0.1742  0.0451  0.1545
27207W        W45411   8.603   9.878  15.363  0.0301 -0.2800  0.0248
27208W        W45412   5.606  15.558   3.318  0.2637 -0.0514  0.0511
27209W        W45413  15.355  15.463   0.949 -0.0375 -0.0242  0.0064
27210W        W45414   1.711   7.034   2.931  0.0086 -0.4845  0.1256
27211W        W45415   0.752   6.360   0.752  0.0456  0.0874 -0.1497
27212W        W45416   9.837  10.742  14.512  0.2637 -0.1606 -0.2338
27213W        W45417  16.545  10.975   2.311  0.3370 -0.1638  0.0850
27214W        W45418   6.903  16.841   2.300  0.2556  0.2063  0.2439
27215W        W45419   5.730  16.557   0.700  0.0149  0.1094 -0.2208
27216W        W45420   1.735   3.278  15.085 -0.0628 -0.0286  0.1346
27217W        W45421  13.453   1.357   3.293 -0.2059 -0.0456 -0.0030
27218W        W45422  15.737   4.283   1.411 -0.1233  0.1142  0.0168
27219W        W45423  15.982   7.406  12.810  0.0127 -0.2271  0.0905
27220W        W45424   0.053  15.764  11.632 -0.2317 -0.2259 -0.0083
27221W        W45425  15.367   7.184   1.004 -0.0959  0.0718  0.0899
27222W        W45426  15.833  15.216  13.350  0.1616 -0.0486 -0.0032
27223W        W45427   0.873  17.095   2.183 -0.1346 -0.1512 -0.0026
27224W        W45428  12.038   4.456  12.584  0.1922 -0.0700  0.1562
27225W        W45429   7.508  17.198   4.636  0.0543 -0.2132 -0.0336
27226W        W45430  17.814   3.798   3.269 -0.3108 -0.0302  0.1037
27227W        W45431   1.981  10.508  14.195 -0.3333 -0.0197  0.1257
27228W        W45432  14.357   0.046   2.981  0.0775  0.1828  0.2582
27229W        W45433  11.692   2.490   5.667 -0.2732 -0.2124 -0.0807
27230W        W45434  12.592   5.467  15.021 -0.2260 -0.2300  0.3149
27231W        W45435  16.806  14.231  14.282  0.0831 -0.1177 -0.1469
27232W        W45436   2.590  16.231   3.855 -0.1031  0.1534  0.2557
27233W        W45437  12.012  10.342   3.805  0.0663 -0.1541  0.3237
27234W        W45438  12.582   5.939   1.071  0.1071  0.0632 -0.2581
27235W        W45439   5.551   7.943  14.739 -0.2319  0.0031 -0.0385
27236W        W45440  12.244   5.053   2.859  0.2133 -0.2007 -0.1599
27237W        W45441   3.792   3.745   5.122 -0.1378  0.1975 -0.2575
27238W        W45442  13.355   1.982  12.397 -0.0208  0.0629  0.0953
27239W        W45443  15.188  14.860  12.467 -0.0940 -0.0639 -0.2052
27240W        W45444   0.440   7.311  12.312  0.2166  0.3368 -0.3187
27241W        W45445  12.483   3.800   3.660  0.2691  0.0756  0.0858
27242W        W45446   2.601   4.656   4.179 -0.3818  0.0526 -0.0512
27243W        W45447   4.207   5.228   4.163 -0.0243  0.5134  0.0409
27244W        W45448   8.509  12.222  13.273 -0.3240 -0.0470 -0.1741
27245W        W45449   8.799   4.847   0.321 -0.2356  0.2175  0.2236
27246W        W45450   7.699   0.925  14.167 -0.2213 -0.0364  0.1178
27247W        W45451   5.777   2.179   3.272  0.1929  0.1019 -0.0359
27248W        W45452   4.176   8.479   4.579 -0.3463  0.1406 -0.2157
27249W        W45453   7.794   5.018   4.553  0.0071  0.1840  0.1380
27250W        W45454  10.454  11.191  14.122  0.2605 -0.1808  0.0176
27251W        W45455  12.009  14.733  12.378 -0.0285  0.1916  0.2722
27252W        W45456   4.211   7.430  14.993  0.0844 -0.0092 -0.2045
27253W        W45457   1.895  10.928  13.413 -0.2624 -0.1976  0.0237
27254W        W45458   8.348   2.448  12.024 -0.0046 -0.0087  0.0826
27255W        W45459   2.599   2.502  13.017  0.1761 -0.3297 -0.1643
27256W        W45460  11.998   9.555   3.307  0.2710 -0.0034  0.1795
27257W        W45461   4.504  15.565  11.223  0.1363  0.0525 -0.0391
27258W        W45462   8.000  15.809  15.073 -0.2009 -0.0608 -0.1432
27259W        W45463   8.485  16.869  11.837 -0.1928 -0.2414  0.3126
27260W        W45464   0.671  10.774   3.779 -0.3760  0.3064 -0.0424
27261W        W45465   1.812  16.128   4.221  0.1579 -0.2065 -0.0295
27262W        W45466  17.783   6.804   0.249  0.0778 -0.0597 -0.0813
27263W        W45467  12.953  10.335  15.813  0.0208  0.2080 -0.0593
27264W        W45468   5.796   0.535  14.338  0.3367  0.1191 -0.0140
27265W        W45469   2.824   6.721   4.553  0.2352  0.1402  0.1275
27266W        W45470   0.072  13.382   4.465 -0.0361  0.1766  0.3038
27267W        W45471  13.593   9.288  14.358  0.0137  0.0465 -0.1305
27268W        W45472  17.914   0.309   1.496  0.0436  0.1166  0.0161
27269W        W45473   0.188  10.086   4.901 -0.0004 -0.0210 -0.5838
27270W        W45474   1.138  14.727  12.333  0.0217 -0.1461  0.1877
27271W        W45475  12.039   3.535  14.702 -0.1644 -0.2565 -0.1132
27272W        W45476  10.324   4.886  14.797 -0.1196 -0.1214 -0.2723
27273W        W45477   5.489   4.650   3.495  0.0165 -0.2714  0.0360
27274W        W45478  14.529  17.422  13.031 -0.0470 -0.2713 -0.0504
27275W        W45479   9.944   7.465  14.947 -0.3312  0.0323  0.2243
27276W        W45480  11.668  12.012   4.063 -0.1744  0.1699 -0.3863
27277W        W45481   6.257   2.788   1.055  0.2112  0.0812 -0.0033
27278W        W45482  13.724   2.273   0.365  0.0117 -0.1887  0.1158
27279W        W45483   0.944   7.740  13.137  0.0941  0.0980 -0.0812
27280W        W45484  14.449   4.363   0.840 -0.2553 -0.0107  0.2172
27281W        W45485  16.215   0.648   4.244  0.0287 -0.0068  0.1857
27282W        W45486  13.986   7.244  13.129  0.2963  0.1200  0.0900
27283W        W45487   5.350  16.677   4.009 -0.0242  0.1487 -0.2900
27284W        W45488  13.173  11.700  14.759  0.0848 -0.1408 -0.0350
27285W        W45489  11.177  17.235  13.267  0.0043  0.1169 -0.1905
27286W        W45490   2.542   0.207   3.247  0.0488 -0.0506  0.0325
27287W        W45491   3.199  16.096   4.512 -0.1339 -0.0405  0.2316
27288W        W45492  11.641   6.557  14.056  0.3880 -0.1410 -0.1774
27289W        W45493   3.023   6.477   1.535  0.0591 -0.1346 -0.1312
27290W        W45494  16.874   2.626   3.999  0.0592 -0.1531 -0.0055
27291W        W45495  10.536   3.221  12.824  0.4472  0.1645  0.2232
27292W        W45496  14.080   9.428  15.651  0.1244 -0.2159 -0.1936
27293W        W45497  13.951   2.202  12.007  0.2881 -0.3886  0.1288
27294W        W45498   8.977  14.690  10.392  0.1290  0.0318  0.0344
27295W        W45499   4.020  15.594   4.666 -0.0173 -0.2014 -0.1668
27296W        W45500  12.515   2.470  11.191  0.1724 -0.0697 -0.0679
27297W        W45501  14.976   3.145  13.140 -0.1270 -0.0237  0.0232
27298W        W45502   6.862   7.050   0.828  0.0364  0.0062 -0.0267
27299W        W45503   6.724  11.196   3.550 -0.3109 -0.1485  0.0746
27300W        W45504   5.508  13.232   0.634 -0.1685  0.0063 -0.2775
27301W        W45505  12.122  15.809  12.715 -0.1828 -0.1084 -0.3731
27302W        W45506  14.054  10.708   3.011  0.1420 -0.0339  0.1511
27303W        W45507   5.317  17.328   4.178 -0.1521 -0.0114 -0.0187
27304W        W45508   7.222  11.109   3.396 -0.0441  0.0263  0.3409
27305W        W45509   1.038   8.203   1.979 -0.0620 -0.0055 -0.1628
27306W        W45510  10.766   2.026   0.506  0.0856  0.2016 -0.1692
27307W        W45511   9.986  15.161  14.513 -0.0453 -0.0006  0.0672
27308W        W45512   8.744   9.812  15.907 -0.3857 -0.1227 -0.3130
27309W        W45513  12.233   1.702  13.938  0.0456  0.3498 -0.3185
27310W        W45514  10.270   8.573  14.355 -0.0830  0.0619  0.0487
27311W        W45515  16.749   7.209   0.886 -0.0019 -0.2477  0.3002
27312W        W45516   7.665  15.270   1.187 -0.0239  0.1602  0.4643
27313W        W45517   3.763  11.249   4.160  0.0065 -0.0124 -0.1222
27314W        W45518  16.329   2.081   2.884  0.1375  0.1320 -0.2181
27315W        W45519  12.928  17.688   1.451  0.1283  0.0612 -0.3783
27316W        W45520  11.067   7.409   3.665  0.2271 -0.0224 -0.0283
27317W        W45521   6.755   5.747   1.641 -0.2851  0.0959 -0.0304
27318W        W45522  10.094   4.728   0.349 -0.2510  0.2068  0.2961
27319W        W45523   6.245   1.175   2.443 -0.2277 -0.0205 -0.1629
27320W        W45524   1.391  17.818  11.842 -0.0211 -0.3036 -0.1893
27321W        W45525  12.187   5.476   1.843 -0.0037 -0.1068 -0.1558
27322W        W45526   4.106  15.040   2.023  0.0746  0.1429 -0.0636
27323W        W45527  15.311   6.681   0.036 -0.2498 -0.0077  0.3037
27324W        W45528   7.188   2.844  13.957 -0.2423 -0.0572  0.0106
27325W        W45529   3.053   3.773  13.537 -0.1352 -0.0942 -0.0251
27326W        W45530   3.973   1.542  12.221  0.3294 -0.0509 -0.0095
27327W        W45531   1.677  17.309  15.989 -0.0038 -0.1564  0.0719
27328W        W45532  12.275   4.219   0.267  0.2565  0.0679 -0.4283
27329W        W45533  17.472  14.871  14.205  0.1360 -0.0828 -0.1385
27330W        W45534  11.920   5.806  12.963  0.0788 -0.5281 -0.1270
27331W        W45535   3.496   5.767  15.581  0.0708 -0.1432 -0.1975
27332W        W45536  12.070   1.026  11.362  0.0842  0.0553  0.1255
27333W        W45537   7.354   8.736   0.839  0.0914 -0.0627 -0.0993
27334W        W45538  16.186  10.476  12.010 -0.0925 -0.0104  0.4134
27335W        W45539   1.014   6.985   0.529  0.0179  0.0901 -0.2103
27336W        W45540  16.374  13.646   0.754  0.1077  0.0632 -0.0296
27337W        W45541   0.545   5.309  15.201  0.0133 -0.1026 -0.2907
27338W        W45542   4.576   4.309  14.333  0.2270 -0.3351  0.1841
27339W        W45543  10.133   4.356   3.137  0.2507 -0.2023 -0.4082
27340W        W45544   1.908   0.372   2.557  0.1514  0.1823  0.0245
27341W        W45545   1.040  15.919   2.939  0.0260  0.4745  0.1089
27342W        W45546   7.626   6.463   0.334  0.2319 -0.2955 -0.1034
27343W        W45547  17.978  14.979  13.479  0.4535 -0.2071  0.0674
27344W        W45548  14.350  10.333   1.215 -0.1691 -0.0113 -0.1968
27345W        W45549  12.797   6.442   1.893 -0.1463 -0.1679  0.0379
27346W        W45550   8.314   4.163  14.780 -0.2411  0.1843 -0.1594
27347W        W45551   1.988  11.712  14.571 -0.0576 -0.2561  0.1395
27348W        W45552  13.664  17.953   1.967  0.1356  0.1676  0.1282
27349W        W45553   4.592  11.692  14.390 -0.0078 -0.1448  0.0356
27350W        W45554   7.695  12.088  14.208 -0.1182  0.0134  0.0778
27351W        W45555  10.716  13.241   5.206 -0.0169  0.3054 -0.3051
27352W        W45556  12.159   1.431   2.454 -0.1758 -0.0126 -0.2414
27353W        W45557   6.607   2.090   4.287 -0.0360 -0.0304 -0.0062
27354W        W45558   8.500   5.379  12.931  0.1207 -0.0713  0.1211
27355W        W45559  12.224   9.673   4.312  0.0586 -0.0343  0.0576
27356W        W45560  16.126  12.972  15.734  0.0593 -0.0423  0.1073
27357W        W45561  15.785   6.096  15.595  0.0536 -0.0270  0.1415
27358W        W45562   5.841  13.021  11.200 -0.2269 -0.2715 -0.2046
27359W        W45563   5.491  16.858   2.876  0.0966 -0.4403  0.0289
27360W        W45564   5.944   5.898   2.176  0.0726 -0.1020  0.0234
27361W        W45565  13.211   4.739   4.229  0.1781  0.0130 -0.0937
27362W        W45566   1.505  17.009   4.670  0.1291  0.1688 -0.0457
27363W        W45567   2.765   4.707   3.383 -0.3110  0.1816 -0.3789
27364W        W45568  13.865   9.037   1.866  0.0260  0.1066 -0.0882
27365W        W45569   0.681  15.963  15.229  0.0067  0.0553 -0.0019
27366W        W45570   7.920  15.403   3.127 -0.1061 -0.4050  0.0815
27367W        W45571   7.865  13.314  14.892  0.0218 -0.1116 -0.0914
27368W        W45572   8.873  11.345  13.912  0.0011 -0.0136  0.3100
27369W        W45573   0.595   2.392  14.985  0.0420 -0.0251 -0.1896
27370W        W45574   8.014   0.614   1.770  0.2064  0.2025 -0.1160
27371W        W45575  10.715   1.535   3.778  0.0875 -0.0098  0.0493
27372W        W45576   1.435   7.619  13.084  0.0687 -0.0114 -0.2308
27373W        W45577  13.506   0.217   2.509  0.0727 -0.0554 -0.2447
27374W        W45578   1.105  10.964   4.591 -0.3459  0.2591 -0.1506
27375W        W45579   5.033  17.916   4.118  0.1479 -0.0610  0.0442
27376W        W45580   0.289   2.205  15.953 -0.1644  0.1481  0.1864
27377W        W45581  16.269  14.188  12.516 -0.1780  0.3148 -0.0116
27378W        W45582   3.459   6.091  11.638 -0.1826  0.6547 -0.2872
27379W        W45583  17.969   8.934  15.169 -0.0514 -0.0783 -0.0165
27380W        W45584   2.475   2.038  13.250  0.1069  0.2254 -0.0196
27381W        W45585  10.253   6.590  13.036  0.0951 -0.0796  0.2898
27382W        W45586  11.624  13.547  12.598  0.1201 -0.0374  0.1878
27383W        W45587  10.794  13.171  13.155  0.0759 -0.1819  0.0143
27384W        W45588  15.705  15.929  14.898  0.2627  0.1917  0.1051
27385W        W45589  15.377   2.843  13.205 -0.3402 -0.0185 -0.0225
27386W        W45590  15.230  17.985   3.639  0.0876 -0.4547  0.1179
27387W        W45591  13.751  11.236  13.546  0.2591 -0.1516  0.2701
27388W        W45592  15.300   5.085  14.049  0.1416 -0.0001 -0.1628
27389W        W45593   9.208   2.084   0.322 -0.1217 -0.1614  0.0019
27390W        W45594   9.031  16.458   1.199  0.1671  0.2136  0.0810
27391W        W45595   8.694  14.063   4.427  0.0965 -0.3078  0.0350
27392W        W45596  16.728   8.595  15.241  0.1064  0.2956  0.1206
27393W        W45597   1.131   9.230   2.659 -0.0302  0.1731 -0.0835
27394W        W45598  13.810   8.972  13.584 -0.0573  0.2901 -0.3672
27395W        W45599   1.375  14.639  13.153  0.1046  0.2580  0.0512
27396W        W45600   4.459   1.920   4.488 -0.3011 -0.5129  0.2350
27397W        W45601  11.974   3.751   0.256 -0.0481  0.0270  0.1610
27398W        W45602   0.711   0.478   3.383 -0.2196 -0.2554 -0.0745
27399W        W45603   8.245   0.021   0.554 -0.1003 -0.0951  0.2735
27400W        W45604   2.242  11.739  15.687 -0.1848  0.1257  0.0226
27401W        W45605   5.384   2.571   2.034 -0.2349  0.1203  0.3471
27402W        W45606   0.029   9.884   1.053 -0.2058  0.1090 -0.0798
27403W        W45607   3.088   3.784  16.103  0.2247  0.2430  0.0049
27404W        W45608  14.061  14.183   3.457  0.0014  0.0505  0.0815
27405W        W45609   6.846  11.684  11.721 -0.1742  0.3006 -0.0399
27406W        W45610  14.544  14.590  13.960  0.4167  0.1139 -0.4425
27407W        W45611   9.166   4.523  14.740  0.0773  0.0661 -0.0799
27408W        W45612   1.979   5.510   3.765  0.0199 -0.0639 -0.3010
27409W        W45613   9.721  11.337   3.996  0.2481  0.0580 -0.0311
27410W        W45614  10.747  10.736  14.982  0.1845 -0.1127 -0.0670
27411W        W45615   2.474   6.320  12.987  0.0750 -0.0497  0.0170
27412W        W45616  13.366  12.866  13.449  0.1899  0.5601  0.1476
27413W        W45617   5.082   3.458   1.899  0.2016  0.1860  0.0815
27414W        W45618  17.525   9.779  12.871 -0.2120  0.0380  0.0854
27415W        W45619  11.793  15.967  11.605  0.1434  0.1693 -0.1754
27416W        W45620  15.693  10.453   4.617  0.0149  0.2910  0.0475
27417W        W45621  14.706   8.681   4.929  0.0507 -0.2362 -0.5006
27418W        W45622  17.851  10.478   1.820  0.0489  0.0487  0.0941
27419W        W45623   9.116  11.009  12.726  0.1465  0.0755  0.0960
27420W        W45624   4.335   8.203   0.879 -0.0252 -0.1589 -0.0180
27421W        W45625   6.787   6.291   0.448 -0.0963  0.0301  0.0734
27422W        W45626  15.382  16.630  13.303 -0.1729 -0.2960  0.0277
27423W        W45627   6.840  15.063  12.521 -0.2515 -0.1561 -0.2702
27424W        W45628   6.185  14.671   1.732  0.0011  0.2774  0.1582
27425W        W45629   3.702  15.723  14.109  0.0506 -0.2841 -0.0915
27426W        W45630   2.134   5.791  12.356  0.0379  0.1383 -0.6450
27427W        W45631   2.544   8.143   4.534 -0.2756  0.2155 -0.2447
27428W        W45632   3.596   2.448   0.701  0.0253  0.0509 -0.2276
27429W        W45633   8.501  13.100   2.353 -0.0288 -0.2768 -0.0042
27430W        W45634   2.970  13.304   1.030  0.0603 -0.0472 -0.1795
27431W        W45635   9.530  14.037   5.023  0.2520 -0.1954  0.3708
27432W        W45636  11.681   9.072  13.047  0.0220  0.0545  0.0804
27433W        W45637   7.329   0.512   2.923 -0.1968 -0.3319 -0.1287
27434W        W45638  15.735   7.226  11.781  0.2065 -0.1500 -0.0496
27435W        W45639   8.524   7.176  12.435  0.0065 -0.0530 -0.0926
27436W        W45640  12.270  17.737   1.003 -0.1051  0.1553  0.2855
27437W        W45641  12.412  13.383   1.944 -0.1921 -0.1888 -0.0200
27438W        W45642   7.773   1.970  13.798 -0.0674 -0.5537  0.1531
27439W        W45643  12.448  14.510  14.672  0.0533 -0.1148  0.1420
27440W        W45644  10.044  16.347   2.049  0.1474  0.2834  0.0493
27441W        W45645   7.215   4.129  12.570 -0.2617 -0.0702  0.0936
27442W        W45646  10.578   5.143  11.855  0.3205  0.1974  0.0822
27443W        W45647   9.328  11.957  15.906  0.0509  0.0949 -0.0963
27444W        W45648   9.254  16.152  11.962  0.1433  0.1981 -0.2770
27445W        W45649  17.367   8.089   3.772  0.0608 -0.0780  0.2522
27446W        W45650  13.269  10.744  16.029  0.1686 -0.3861 -0.0379
27447W        W45651   2.560   7.026   3.912 -0.0267 -0.0000  0.0565
27448W        W45652  10.773   8.769  15.639  0.1346  0.1685  0.2764
27449W        W45653  10.922  15.723  13.703 -0.0079 -0.0404 -0.0798
27450W        W45654  12.991   2.350  12.684 -0.0137 -0.1868 -0.4450
27451W        W45655   5.553  12.790   3.064  0.0057 -0.0890 -0.1019
27452W        W45656  14.133  11.887   5.173 -0.2800  0.1332  0.0296
27453W        W45657  11.427   5.671  11.730  0.3904 -0.0984 -0.1877
27454W        W45658   8.945  13.741  13.335 -0.1500 -0.2087 -0.1260
27455W        W45659   4.734  15.824  14.782 -0.1945 -0.2511  0.4336
27456W        W45660   8.540  13.599   2.280 -0.0027 -0.0560 -0.0356
27457W        W45661   9.371   5.240   1.853 -0.0658  0.0777 -0.3135
27458W        W45662  12.099  16.270   0.475 -0.0227 -0.3734  0.0048
27459W        W45663  17.737   5.358  13.027 -0.0296  0.1711  0.0669
27460W        W45664  12.502  11.424   0.841  0.1458 -0.0630  0.0184
27461W        W45665  10.457  13.837  11.366 -0.1735  0.0586 -0.0859
27462W        W45666   5.951  12.470  14.684  0.0363 -0.1725  0.2390
27463W        W45667   7.569   4.229   4.672  0.2360 -0.0757 -0.0773
27464W        W45668   8.634   4.030   1.493  0.2939  0.0691 -0.0073
27465W        W45669  12.549  10.599  12.330 -0.1231  0.2050 -0.2595
27466W        W45670  17.543  14.596   1.169  0.0924 -0.0218  0.0846
27467W        W45671   7.494  13.709   3.617 -0.1890 -0.0340 -0.2278
27468W        W45672  14.600  12.941  12.286 -0.0762  0.2031  0.1134
27469W        W45673  10.071   0.494  12.106  0.0703  0.1949  0.2812
27470W        W45674  10.728  11.427  14.473  0.0443  0.1536  0.0130
27471W        W45675   8.288  17.977  14.846 -0.2864  0.1750  0.0696
27472W        W45676  10.687   3.811   2.351 -0.2303  0.4409 -0.2876
27473W        W45677  15.315  14.591   3.367  0.3967 -0.1995  0.0999
27474W        W45678  16.147   9.927   1.548  0.0769 -0.0760  0.1791
27475W        W45679  13.460  17.756   4.676 -0.0598  0.0592  0.1356
27476W        W45680   2.716   2.930   0.794 -0.0870  0.2918  0.1322
27477W        W45681  17.836  15.474  14.305  0.1050  0.2144  0.1038
27478W        W45682   6.290  14.167   4.897 -0.2241  0.0334 -0.6150
27479W        W45683  13.890   8.848  13.132  0.3593 -0.0258  0.0717
27480W        W45684  10.379   9.089   0.416  0.2421  0.0618  0.1479
27481W        W45685  15.209   8.540   4.854 -0.2055  0.0301  0.1725
27482W        W45686   4.153   9.742   6.376 -0.1999  0.2061 -0.2130
27483W        W45687   2.373   6.713   4.291 -0.0382  0.1109 -0.3384
27484W        W45688  12.698  17.794  12.436 -0.1530  0.0947 -0.2297
27485W        W45689   8.420  15.711  15.899 -0.0588  0.2415 -0.2392
27486W        W45690   9.542  11.512   2.500  0.2160  0.2918  0.2025
27487W        W45691  17.334  11.371  11.643 -0.0954 -0.0924  0.1069
27488W        W45692  17.939  13.218  15.422 -0.0847 -0.3411  0.3059
27489W        W45693   8.420   0.570   3.661 -0.1482  0.0246  0.0129
27490W        W45694   5.448   3.385  11.392 -0.0935  0.0698 -0.3864
27491W        W45695  10.136   6.722   4.124  0.2919 -0.0241 -0.1191
27492W        W45696   8.900  11.905   3.131  0.1118  0.2394  0.3072
27493W        W45697   6.714   0.961   1.742 -0.0299 -0.1442  0.0204
27494W        W45698   9.915   2.291  13.511  0.0147  0.2134  0.2293
27495W        W45699  17.227  14.399   4.344  0.1309  0.1529  0.1082
27496W        W45700   1.516   4.149  15.188  0.1239  0.2783 -0.0775
27497W        W45701  10.690   8.819   2.230 -0.2818 -0.0547 -0.0779
27498W        W45702  18.040  10.694  15.309  0.0712 -0.0529  0.0767
27499W        W45703   5.085   9.244   1.711 -0.1585  0.1997 -0.1159
27500W        W45704   8.146   3.089   2.846 -0.3842 -0.1327 -0.0612
27501W        W45705  16.781  17.285   0.858  0.0429 -0.3132 -0.0724
27502W        W45706   4.547   1.553   1.820  0.0829 -0.0653  0.0084
27503W        W45707   5.122  11.219   2.453 -0.2491  0.2467 -0.0699
27504W        W45708  11.845  12.371   1.722  0.1458 -0.2315 -0.0775
27505W        W45709  11.678   0.535   1.248  0.3096  0.0780 -0.1199
27506W        W45710  12.255   5.563   1.081  0.0577  0.1700  0.1297
27507W        W45711   6.197   4.184   0.766 -0.0016 -0.1179  0.1860
27508W        W45712   4.817  17.017  12.199  0.2570  0.2306 -0.0375
27509W        W45713   8.224  18.015  15.821 -0.1439 -0.2086 -0.0688
27510W        W45714   2.587   7.050   5.788  0.0629 -0.0834  0.0527
27511W        W45715  17.935  10.554   5.121 -0.1115 -0.0479  0.1176
27512W        W45716   3.799  12.272  13.887 -0.2462  0.1381 -0.0970
27513W        W45717   9.142   8.849  10.678 -0.0092  0.1403  0.0393
27514W        W45718   6.422  12.910   2.224  0.2996 -0.0323 -0.2365
27515W        W45719   1.311  15.927  12.220  0.1248  0.0040  0.1090
27516W        W45720   7.636  10.895   1.307 -0.0924 -0.1116  0.0312
27517W        W45721   3.034   8.138  14.748  0.0257  0.4960 -0.3584
27518W        W45722  17.586   7.288   1.931 -0.0013  0.2299  0.0145
27519W        W45723   0.426  12.084  13.713  0.1209 -0.2483 -0.0497
27520W        W45724   7.591  16.828  12.378 -0.1027  0.2148  0.4828
27521W        W45725   3.987   5.645  15.310 -0.0130  0.1693 -0.0659
27522W        W45726  17.338  10.770  16.123 -0.1021 -0.1624  0.2148
27523W        W45727  11.265  17.066   4.599  0.1808  0.2769 -0.0301
27524W        W45728   5.487   0.723   3.733 -0.2042  0.3847  0.0387
27525W        W45729  15.417  17.250   1.287  0.1371 -0.4355  0.0297
27526W        W45730  10.645  13.153   3.733  0.2805  0.1194  0.1416
27527W        W45731   5.859   9.128   3.782 -0.1536  0.0197  0.1051
27528W        W45732  12.711  16.672  13.775 -0.3784 -0.1402 -0.0794
27529W        W45733   8.558   8.935   1.430  0.2614  0.3242 -0.1602
27530W        W45734  12.473  13.561   3.968 -0.0611  0.0968 -0.2886
27531W        W45735   8.663  15.524   4.388  0.0189 -0.1395 -0.0623
27532W        W45736   6.393  17.090  11.560  0.0387 -0.1411 -0.1898
27533W        W45737   1.006   0.796  10.875 -0.2181 -0.1879  0.4684
27534W        W45738  10.780  13.605  12.321 -0.1222 -0.3965 -0.2004
27535W        W45739  15.085   1.080  16.055 -0.0521  0.3779  0.2293
27536W        W45740   8.141  13.825  15.985 -0.1168 -0.0441  0.1279
27537W        W45741  11.738   7.972   5.395 -0.2403 -0.2524 -0.0678
27538W        W45742   6.768  17.813  11.170 -0.0125  0.0899 -0.1184
27539W        W45743   7.087   6.218   1.663 -0.1584 -0.1152 -0.2124
27540W        W45744   4.051   6.978   4.440 -0.0159  0.2086 -0.1711
27541W        W45745  10.048  13.868   4.236 -0.1285 -0.1819 -0.2834
27542W        W45746  12.696   7.524  16.034 -0.0747  0.1945  0.3564
27543W        W45747   4.429  13.670  12.471  0.0750  0.1932  0.2759
27544W        W45748   8.015  12.945   2.687  0.2177  0.2356 -0.3580
27545W        W45749   0.470  12.499   1.065 -0.0540 -0.2734  0.2086
27546W        W45750   9.219  10.645  15.133 -0.4280  0.2244 -0.0892
27547W        W45751  16.356  13.715  13.184  0.0390 -0.3237 -0.1227
27548W        W45752  11.536   7.020   1.979 -0.1155 -0.0250 -0.1465
27549W        W45753   9.059   1.347  11.932 -0.1367 -0.1069  0.0737
27550W        W45754   0.995   3.860  12.237 -0.0622  0.3673  0.0053
27551W        W45755   5.071   6.935  13.416  0.1396  0.2946 -0.1685
27552W        W45756  15.239  13.524   3.247 -0.0516  0.0956 -0.0343
27553W        W45757  11.800  13.040  14.902  0.0145 -0.1363  0.3245
27554W        W45758   1.725  11.056  12.908 -0.0062 -0.0735  0.3534
27555W        W45759   2.970   7.215  14.499 -0.1606 -0.0360 -0.0944
27556W        W45760  11.694  11.354   2.547 -0.0205 -0.3685 -0.0237
27557W        W45761  13.075  14.145   4.371  0.1571 -0.1012  0.0073
27558W        W45762  14.377  13.086   4.625  0.3041 -0.0886 -0.1618
27559W        W45763  11.471   6.552   1.146 -0.1200  0.0427 -0.0287
27560W        W45764  11.741  16.417  11.824  0.0947  0.1183 -0.2583
27561W        W45765   0.159   9.747   3.528  0.2171  0.0396  0.0495
27562W        W45766   7.339  13.611   3.060 -0.1454  0.1326 -0.2039
27563W        W45767  14.630  15.424   1.960  0.0607 -0.1033 -0.1715
27564W        W45768  12.192  12.059   2.550  0.2794  0.2963 -0.2211
27565W        W45769  12.739  12.825   2.515  0.0285  0.1515 -0.2934
27566W        W45770   7.391  13.974   0.885  0.1800 -0.3845 -0.0602
27567W        W45771   0.123   6.063  14.225 -0.0579 -0.2623  0.0301
27568W        W45772   5.100  13.935  12.893 -0.0810  0.0975 -0.0482
27569W        W45773  13.995  12.733   1.698  0.0589  0.1887  0.2889
27570W        W45774  12.970  10.298   0.136  0.1392 -0.2645  0.1200
27571W        W45775   9.942   8.996  12.218  0.2632 -0.1560 -0.3579
27572W        W45776  16.699   3.294   1.253 -0.2060  0.0682  0.1546
27573W        W45777   8.211   1.237  11.556 -0.2607  0.1853  0.0666
27574W        W45778   0.815  11.623  12.373 -0.1910  0.0233 -0.0904
27575W        W45779  17.013  10.112  12.602 -0.1206 -0.1549 -0.1761
27576W        W45780   4.073  17.994   4.110  0.2622  0.0461 -0.2742
27577W        W45781   9.107   4.030   1.247  0.0013  0.0446 -0.0950
27578W        W45782  10.245   4.929   4.454  0.1219 -0.0812 -0.1060
27579W        W45783  15.162  13.028  14.966  0.1212  0.3801 -0.2153
27580W        W45784   6.264   3.087  13.918  0.0309  0.0995 -0.0869
27581W        W45785   2.477  15.592   0.331 -0.2141  0.0493 -0.1406
27582W        W45786   9.609  11.200   3.498  0.1743  0.1327 -0.1046
27583W        W45787   4.840  12.473  12.918 -0.2732 -0.0307 -0.3303
27584W        W45788  14.740   8.576   2.235 -0.2816  0.2378  0.1959
27585W        W45789  12.731  10.317  13.615  0.2361 -0.0816 -0.2673
27586W        W45790  17.851  14.170   3.003 -0.2007  0.0883  0.0989
27587W        W45791  17.874   2.485   2.551 -0.0057  0.2581 -0.0482
27588W        W45792  11.073   5.723  13.948 -0.0848  0.2889  0.0190
27589W        W45793  15.312   8.800  13.221 -0.1795  0.1185 -0.1540
27590W        W45794   7.303  11.565  11.433  0.1522  0.4396 -0.0746
27591W        W45795   0.662   2.083  10.225 -0.0606 -0.1106  0.5461
27592W        W45796   7.987   0.224  13.986  0.1744  0.1810 -0.2048
27593W        W45797  11.898   0.365   1.703  0.0464 -0.2500  0.1117
27594W        W45798   2.497   8.517   3.792 -0.0778 -0.0236 -0.1040
27595W        W45799   4.711  15.665  11.835  0.0086  0.2944 -0.0397
27596W        W45800   6.740  10.128  15.802 -0.0746 -0.1586 -0.0842
27597W        W45801   0.727   9.004   4.182  0.2308  0.0038  0.0452
27598W        W45802  13.097  11.220  15.416  0.0549  0.1359 -0.1297
27599W        W45803   9.184  12.802  14.934  0.1955 -0.3208 -0.0478
27600W        W45804   7.770  11.731  12.994  0.1400  0.0572  0.0225
27601W        W45805  11.472   9.262   1.422 -0.0790  0.0977  0.2250
27602W        W45806   6.840  13.394   0.063 -0.0012  0.3133 -0.0336
27603W        W45807   9.277   4.751  13.146 -0.0424  0.0438 -0.2154
27604W        W45808   5.195  11.687  13.518  0.0664 -0.0931  0.1928
27605W        W45809  13.413   5.126  12.013  0.1806  0.3420  0.2849
27606W        W45810   2.446   0.336  11.913 -0.2323 -0.1645  0.3996
27607W        W45811  13.949   9.744  11.848 -0.0314  0.0622  0.5188
27608W        W45812   5.379   4.681   4.669 -0.3534 -0.0643 -0.1460
27609W        W45813   2.632  17.738  14.434  0.2193  0.1860 -0.0902
27610W        W45814  14.910  12.316   1.659 -0.0785  0.0783 -0.0792
27611W        W45815   1.408   4.939  14.326  0.1581 -0.1943  0.2321
27612W        W45816  16.758   8.214  13.172  0.1767 -0.2324 -0.1099
27613W        W45817   8.437  14.969  11.403  0.0997  0.0186 -0.1388
27614W        W45818  15.212  13.628  10.083  0.0115  0.0418 -0.3222
27615W        W45819  15.315   4.020   4.955 -0.0171  0.0164  0.1848
27616W        W45820   5.952   5.061   4.285 -0.0068  0.0395 -0.0315
27617W        W45821  15.504   8.883  14.272 -0.0894  0.1274 -0.0380
27618W        W45822   1.252  13.804   0.798 -0.3574 -0.0889 -0.0816
27619W        W45823  13.642   9.397  13.900 -0.1874 -0.3766 -0.4375
27620W        W45824  17.883   5.675   5.026  0.1777  0.4250  0.0490
27621W        W45825   4.759   1.990   1.751  0.0621  0.2237 -0.1208
27622W        W45826  16.126  11.524   1.022  0.2588  0.3769  0.0823
27623W        W45827   6.352  13.880   1.370  0.0423 -0.1064  0.0611
27624W        W45828   7.983  10.122   4.197  0.1663  0.1920 -0.2211
27625W        W45829   7.558  15.227  13.038  0.0885  0.2464  0.0220
27626W        W45830  14.088   9.327   4.611 -0.1429  0.0538  0.0102
27627W        W45831   5.533  12.793  14.388 -0.1236  0.1013 -0.0998
27628W        W45832   7.428   7.413   4.770 -0.0383 -0.0072 -0.2186
27629W        W45833  17.813  12.900   1.629 -0.1635 -0.3969  0.1184
27630W        W45834   9.001   8.491  11.537 -0.0750  0.0667  0.1029
27631W        W45835   3.231  14.284  15.772 -0.0043  0.0729 -0.0134
27632W        W45836  16.845   8.525   2.912  0.1017 -0.0847 -0.0373
27633W        W45837  12.161   9.236   0.061 -0.1106  0.0448 -0.0982
27634W        W45838   3.230   7.121  12.629 -0.4111  0.0938 -0.1158
27635W        W45839   0.724  17.416  14.140  0.1357 -0.0185  0.2343
27636W        W45840  13.231   4.673  14.830  0.0370 -0.1150 -0.3014
27637W        W45841   9.946  10.734   4.393 -0.1853  0.0131 -0.0144
27638W        W45842   4.222  14.879   4.236  0.1696  0.1426  0.2244
27639W        W45843  12.520   5.640   5.353 -0.1187  0.1159 -0.1118
27640W        W45844  16.582  16.626   4.369 -0.2727 -0.0611  0.3475
27641W        W45845  15.608   6.338   2.128  0.1746  0.0102 -0.0749
27642W        W45846   8.104  10.922   2.374 -0.0260 -0.1229 -0.3450
27643W        W45847   3.072   4.922   2.481  0.0812 -0.0628 -0.0324
27644W        W45848   8.915   7.396  15.856  0.2346 -0.0101  0.0782
27645W        W45849  12.061   2.745   2.974 -0.3029 -0.1434 -0.1469
27646W        W45850   0.155   0.553  15.943 -0.3113 -0.0441 -0.1856
27647W        W45851   2.963   4.449  15.178  0.3621  0.2281  0.2575
27648W        W45852   5.138   5.049   3.771 -0.1034  0.4337 -0.1617
27649W        W45853  14.007   6.436   4.793  0.1861 -0.0238 -0.1437
27650W        W45854  16.156   2.531   2.807  0.0379 -0.4029  0.0100
27651W        W45855  13.444   5.120   0.846 -0.4852  0.1090  0.0551
27652W        W45856   1.287  16.206   4.349 -0.1595  0.0451 -0.0542
27653W        W45857   3.696   2.172  14.550  0.0832  0.1566  0.1192
27654W        W45858  16.068   0.827   1.279 -0.3381 -0.3066 -0.0159
27655W        W45859  11.757   9.572   1.702  0.0234 -0.1056  0.2606
27656W        W45860   1.199   2.380  13.422 -0.1345  0.2167  0.0426
27657W        W45861  10.452   1.526   5.338 -0.1584  0.0088  0.2455
27658W        W45862   5.030   2.538   3.167 -0.0358  0.1092 -0.3756
27659W        W45863   6.096   9.453   0.521 -0.0201 -0.3043 -0.1414
27660W        W45864   5.776   6.581   0.264  0.0807 -0.1135 -0.0714
27661W        W45865  15.167  15.894   2.695  0.0287  0.0491  0.2348
27662W        W45866   4.100   9.907   5.117  0.3197 -0.1841 -0.1483
27663W        W45867   0.343   7.193   5.262  0.1860 -0.3447  0.0179
27664W        W45868   5.808   9.650   3.916 -0.0360 -0.1034  0.0603
27665W        W45869  10.750   1.388  11.630 -0.2084 -0.1715 -0.1277
27666W        W45870   9.107   0.802   3.159  0.2768 -0.1682 -0.2137
27667W        W45871  11.847  12.914   2.236  0.2821  0.2631  0.2575
27668W        W45872   4.772  14.322   0.186 -0.1784  0.0152 -0.1810
27669W        W45873   7.120  17.277  15.628 -0.1146 -0.4809 -0.0741
27670W        W45874  15.011   9.223   0.651 -0.2124  0.3630 -0.1906
27671W        W45875   9.342  17.627  13.220  0.0494 -0.1092 -0.0663
27672W        W45876  12.121  11.543  16.026 -0.1660  0.0372 -0.2531
27673W        W45877   6.201  11.979   3.681 -0.2464  0.1301 -0.3922
27674W        W45878  13.409  11.968   1.088  0.0056 -0.0620 -0.0756
27675W        W45879  13.201   7.757   0.090  0.2278 -0.0261 -0.0926
27676W        W45880   2.032  17.513   2.837  0.0843  0.0915  0.0223
27677W        W45881   6.636   4.105  14.733 -0.1361 -0.0448  0.0212
27678W        W45882  15.920   3.111  14.355 -0.1971  0.0914 -0.2231
27679W        W45883   9.721   4.211   3.949 -0.1171 -0.0315  0.2655
27680W        W45884  17.202  12.988  12.886  0.0371  0.0713  0.0217
27681W        W45885  13.186  17.529  12.690  0.0798 -0.1233 -0.0260
27682W        W45886  10.352   9.949   1.450  0.0283 -0.0557  0.0797
27683W        W45887  15.126   2.039  13.953  0.0404 -0.0627 -0.3127
27684W        W45888   0.740   3.336   4.856 -0.0617  0.0010  0.2058
27685W        W45889   0.622   6.584   1.265 -0.1088 -0.0438 -0.0575
27686W        W45890  10.880  13.234  14.447  0.0339  0.1100  0.2310
27687W        W45891   6.690   0.359  12.542  0.0276  0.3187 -0.0705
27688W        W45892   3.014   8.234  11.393  0.0237  0.3304  0.2897
27689W        W45893  15.176  16.949  13.647 -0.1212 -0.0957 -0.0824
27690W        W45894  13.123  16.376   0.235  0.2223  0.2869  0.4369
27691W        W45895   4.385   6.245   0.213  0.1234 -0.3944 -0.3152
27692W        W45896  11.692   0.583  13.605 -0.1116 -0.0386 -0.1936
27693W        W45897   1.527   9.733  14.037 -0.2066  0.0290 -0.1533
27694W        W45898   5.311  16.281   4.554 -0.1396  0.0501 -0.1737
27695W        W45899  15.495  12.765   0.397 -0.0316  0.2369  0.1450
27696W        W45900   6.684   6.634  14.521  0.0429 -0.2603  0.0315
27697W        W45901   4.385   4.389   5.683 -0.1613  0.1079  0.0190
27698W        W45902  11.375   1.014   2.748  0.0432 -0.1154 -0.2418
27699W        W45903  15.762   7.191   4.250 -0.0740  0.0098  0.0636
27700W        W45904  13.498   6.000  15.192 -0.2251  0.0472  0.1801
27701W        W45905  10.746   5.572   0.505 -0.1134  0.0979 -0.0130
27702W        W45906   1.770   2.869  12.908  0.0550  0.1392  0.0034
27703W        W45907   9.329   2.836   2.596  0.3798 -0.2834  0.2031
27704W        W45908   6.723   2.080   5.182 -0.1109  0.2331  0.3084
27705W        W45909  12.181   7.572   4.374 -0.0683  0.1193 -0.1401
27706W        W45910   7.328   8.153   1.557  0.1182  0.3409  0.0215
27707W        W45911   9.980  11.876  15.885  0.0305 -0.0428 -0.2496
27708W        W45912   0.317   9.812  12.596  0.0400 -0.1622  0.2072
27709W        W45913   0.218   2.670  14.119  0.1547 -0.0874  0.0786
27710W        W45914   5.976   1.997   0.417  0.1729 -0.1499 -0.1033
27711W        W45915   5.223  14.081  15.333  0.1157  0.0697 -0.0758
27712W        W45916   8.626   7.649   1.917  0.2383  0.1383 -0.1225
27713W        W45917   9.871  16.103   0.506 -0.0628 -0.1465  0.2367
27714W        W45918   3.786   3.026   2.479  0.0385 -0.1974 -0.2520
27715W        W45919  14.462   6.994   4.238 -0.1897  0.0047  0.1609
27716W        W45920  13.194   3.806  12.654  0.0611  0.2121 -0.1279
27717W        W45921   8.920   5.030   1.747 -0.1161 -0.0826  0.0068
27718W        W45922  13.461  10.704   0.863  0.0282 -0.1375 -0.0955
27719W        W45923  16.157   7.732   1.116 -0.1399 -0.0588  0.1836
27720W        W45924   7.038  11.327  15.589 -0.0903 -0.1685 -0.0533
27721W        W45925   3.622   2.862   0.401 -0.1356 -0.1293  0.0173
27722W        W45926   5.162  12.087   3.830  0.0391 -0.2185 -0.1203
27723W        W45927  17.723  11.464  15.984 -0.3216 -0.0303 -0.4249
27724W        W45928  14.335   2.944   1.053  0.0672  0.1521  0.0516
27725W        W45929   0.041   4.933  14.641 -0.0988 -0.0821 -0.0266
27726W        W45930   2.944   3.389   4.079 -0.0562 -0.2832  0.1711
27727W        W45931  14.296   1.477  15.452  0.0467  0.1104 -0.0050
27728W        W45932  17.417   0.641   1.026  0.0586  0.0378  0.0133
27729W        W45933   5.885  11.660   5.002 -0.0362 -0.0714  0.0020
27730W        W45934  11.204  15.655   4.228  0.0113  0.0185  0.0087
27731W        W45935  10.870   0.694  12.755 -0.0758 -0.1715 -0.0174
27732W        W45936   7.886  13.834  10.847  0.0844  0.3742  0.3484
27733W        W45937   5.899  16.344   3.971 -0.2944 -0.3724  0.1933
27734W        W45938   7.283  11.591  13.120 -0.2972 -0.1046 -0.1262
27735W        W45939   9.582   8.247   3.010 -0.0079 -0.0963 -0.1047
27736W        W45940  15.284   4.197   3.429 -0.1272  0.1539  0.0687
27737W        W45941  15.706   6.632  15.729 -0.3029  0.0180 -0.0590
27738W        W45942   5.824  14.637   4.507 -0.1022  0.0782 -0.0458
27739W        W45943  10.512   5.358  13.331  0.1216  0.1376  0.0663
27740W        W45944  14.393   6.859  14.685  0.0019 -0.0077 -0.2693
27741W        W45945  15.752   3.261  13.839 -0.2490 -0.2888 -0.0659
27742W        W45946  14.138   4.218   5.359  0.2077 -0.0177 -0.1104
27743W        W45947   9.388   9.899   3.335 -0.2131  0.1214  0.0287
27744W        W45948  15.480   1.174   2.981  0.2492 -0.0830  0.1753
27745W        W45949  15.134  16.137  13.323 -0.2685 -0.1196 -0.2280
27746W        W45950  10.068  18.009  15.297 -0.0560  0.1314 -0.4031
27747W        W45951  12.196  16.499   4.247 -0.2778  0.0603  0.0624
27748W        W45952   0.697  15.016  13.906 -0.2749  0.0697 -0.2193
27749W        W45953  11.035   4.159   1.810  0.0931  0.3762  0.2587
27750W        W45954  10.513  12.652  13.645  0.1907  0.1119  0.0189
27751W        W45955  11.889  11.418   5.229 -0.0335  0.1143  0.2878
27752W        W45956  14.733   7.099   0.240 -0.0052 -0.2950 -0.3037
27753W        W45957   0.680  15.595  12.902  0.1148  0.1818 -0.0918
27754W        W45958  12.161  14.940   0.009 -0.0669  0.1005  0.2037
27755W        W45959   6.039  16.264   3.297  0.1764  0.0965  0.0028
27756W        W45960  10.376   2.783  15.749 -0.2171 -0.1582 -0.3369
27757W        W45961   3.223   8.167   2.629 -0.0536  0.3077 -0.3183
27758W        W45962  14.547   6.855   4.751  0.2939 -0.1122  0.0057
27759W        W45963  16.108   0.197  14.995 -0.2874  0.2701  0.0129
27760W        W45964   9.377   2.511  15.384 -0.1084  0.0564 -0.0652
27761W        W45965  13.580  12.445  14.819 -0.0277  0.5130 -0.1258
27762W        W45966   7.374   0.521   2.369  0.0177 -0.1350  0.2540
27763W        W45967   5.093  17.316   2.885 -0.0256 -0.0513  0.1200
27764W        W45968  17.785   1.307  16.027 -0.0691  0.1897  0.0250
27765W        W45969  12.453  17.341   4.082  0.2618  0.2198  0.2274
27766W        W45970   9.992  11.015   2.652  0.2170 -0.1611 -0.0925
27767W        W45971  18.037   5.665  16.027  0.0442 -0.3045  0.2577
27768W        W45972  12.500   5.102   5.120  0.0493  0.0837 -0.0856
27769W        W45973   6.533  10.984   2.542  0.0301  0.0396  0.2237
27770W        W45974   6.505  13.736  12.843 -0.2289 -0.0672 -0.2019
27771W        W45975  17.469   8.606   2.232 -0.1097 -0.2908  0.0993
27772W        W45976   1.820  15.323  11.022  0.0571 -0.1514  0.1029
27773W        W45977  14.004   4.113   2.001 -0.0333 -0.3167 -0.0039
27774W        W45978  10.537   4.438   2.021 -0.1378  0.2371  0.1848
27775W        W45979  13.012   9.650   2.210  0.1474  0.0616  0.0795
27776W        W45980  13.379  13.462  12.049  0.0296  0.0835  0.0841
27777W        W45981   2.309   9.048  15.772  0.0391  0.0807 -0.0931
27778W        W45982   0.663   1.797  15.539 -0.0536  0.1425 -0.0190
27779W        W45983   4.257  13.526   0.693  0.0858  0.0890 -0.1568
27780W        W45984   5.838   3.044   3.439 -0.1626 -0.0020 -0.2078
27781W        W45985  12.591  17.660   3.696  0.0963  0.1351 -0.1416
27782W        W45986  10.373   2.094  13.488  0.0372 -0.0420  0.0277
27783W        W45987   1.417   8.346   2.822 -0.1855  0.1334  0.1634
27784W        W45988   8.510   0.243  13.949 -0.1301  0.1480  0.1193
27785W        W45989  17.724  10.825  13.993  0.0112  0.0715 -0.2277
27786W        W45990   1.704   7.402  12.006 -0.0901  0.1031 -0.5101
27787W        W45991  15.347  17.384  13.457  0.2967 -0.2483 -0.0095
27788W        W45992   2.746   1.989   2.860  0.3067 -0.1107  0.3074
27789W        W45993   8.092   7.000   3.145  0.0148 -0.1194  0.2649
27790W        W45994  14.247   8.451   3.712 -0.1057  0.4116 -0.1814
27791W        W45995  16.231   8.942   3.462 -0.1241 -0.0655  0.0876
27792W        W45996   3.880  13.176   2.925 -0.1056  0.1878 -0.1566
27793W        W45997  10.729   5.426  15.642 -0.0467  0.1860  0.0140
27794W        W45998  17.336   9.690   1.066  0.0570 -0.0159 -0.0413
27795W        W45999  12.158  17.281   3.620  0.0160  0.0339  0.2171
27796W        W46000   1.827  13.483   2.641 -0.2349  0.3639  0.0211
27797W        W46001   2.028  14.402   1.050 -0.0344  0.0219 -0.1236
27798W        W46002  12.471   7.234   1.710 -0.1061 -0.1778 -0.2465
27799W        W46003  10.376  11.092  11.875  0.0923  0.3870 -0.1307
27800W        W46004  13.500   2.975  14.230 -0.1463  0.2169 -0.0457
27801W        W46005   7.221  15.544  11.728  0.1087  0.0047  0.0347
27802W        W46006  10.649  10.279  14.229  0.1572  0.0680 -0.0983
27803W        W46007   7.427  16.772  15.704  0.0554 -0.2332 -0.5224
27804W        W46008   4.058  11.293   3.160  0.2526  0.0997  0.1272
27805W        W46009  11.865   1.017   0.336  0.0970 -0.0492 -0.1062
27806W        W46010  17.794  15.921  12.682  0.2470 -0.0846 -0.0149
27807W        W46011   7.899   5.060   2.092 -0.1608 -0.0855  0.2309
27808W        W46012   3.105  15.168  12.269  0.0091  0.3124 -0.2130
27809W        W46013   6.597   5.513  13.711  0.2786  0.1783  0.2546
27810W        W46014   2.813   3.472   0.699 -0.2438  0.2721  0.1789
27811W        W46015  10.336   1.740  13.888 -0.2262 -0.0648  0.0347
27812W        W46016   8.131  13.192  16.055 -0.3007  0.0117 -0.2178
27813W        W46017  15.023   7.337   3.080 -0.0047  0.2516  0.0440
27814W        W46018  17.447   0.524  11.967  0.0386  0.0301  0.2120
27815W        W46019   8.035   4.486   3.284 -0.0859  0.0867 -0.0130
27816W        W46020  12.841  14.883   0.676 -0.1394  0.1030 -0.0632
27817W        W46021   9.339   8.342  14.576  0.1464  0.2606 -0.0724
27818W        W46022  12.925  13.223  13.441  0.0887  0.2538  0.1851
27819W        W46023   2.517   9.667   2.489 -0.2137 -0.0268  0.2394
27820W        W46024  14.050   9.713   3.343  0.2037 -0.1245  0.1355
27821W        W46025   0.077  12.043  15.705  0.0835 -0.2141 -0.1642
27822W        W46026   4.347  10.815   0.365 -0.0358  0.0306 -0.0962
27823W        W46027  16.741  12.758  12.959 -0.2076 -0.1912  0.1484
27824W        W46028  11.808   4.387   4.688  0.1061  0.1501 -0.0935
27825W        W46029   4.241  17.376   2.670 -0.1104  0.2168 -0.1105
27826W        W46030   5.945   5.401  14.529 -0.3740  0.1832  0.0063
27827W        W46031  13.420   5.199  16.044 -0.1549 -0.1022  0.0282
27828W        W46032   6.597   9.268   2.788 -0.2099  0.1114 -0.1454
27829W        W46033   1.684  16.759  12.722 -0.0717  0.3917 -0.2283
27830W        W46034   0.798   6.564  14.457 -0.0490 -0.0189  0.2408
27831W        W46035  11.788   7.420   3.100  0.2932  0.1892  0.0955
27832W        W46036  13.713  14.850  11.037 -0.3049  0.1393 -0.0233
27833W        W46037  14.752   1.560  13.914  0.0178 -0.1700  0.2020
27834W        W46038  13.830  15.716  13.106  0.1663  0.0373  0.3639
27835W        W46039  17.671  12.111   4.253  0.2266 -0.0968  0.0371
27836W        W46040  10.784  14.303   1.666 -0.0219 -0.1941  0.0637
27837W        W46041   1.432   2.653   1.413  0.1741  0.1474 -0.0862
27838W        W46042   3.411   6.429   0.063  0.1271  0.1757  0.0036
27839W        W46043  12.068   9.973  13.352  0.0746  0.0396 -0.2162
27840W        W46044  10.249  16.733   1.272  0.0166  0.0614 -0.2628
27841W        W46045  10.095   5.974  11.326 -0.0581  0.0961 -0.0201
27842W        W46046   2.801   1.179   4.932  0.0118 -0.2033 -0.0191
27843W        W46047   2.189   7.156   2.212  0.1152 -0.2233  0.0095
27844W        W46048  13.597   5.666   3.834  0.1459 -0.0748  0.3124
27845W        W46049   9.312  17.040   4.361 -0.1214 -0.1941  0.1013
27846W        W46050   7.625  17.216   0.343 -0.0196 -0.4290  0.0597
27847W        W46051  11.481   6.892   4.264 -0.1403  0.0691 -0.0637
27848W        W46052  12.642  15.822  15.888  0.1880  0.0656  0.1484
27849W        W46053   8.150  10.243   2.779 -0.2011  0.1897 -0.2164
27850W        W46054  15.395  15.149   1.691  0.0252 -0.0781  0.1518
27851W        W46055   9.718  11.060  15.327 -0.2813 -0.0813 -0.0387
27852W        W46056  17.769  11.798   3.600 -0.1928 -0.0470  0.0319
27853W        W46057   0.368  17.838  12.277 -0.0613  0.3544  0.0283
27854W        W46058   4.725  10.272  15.766  0.1021  0.1434 -0.1448
27855W        W46059   4.035  16.174  12.271  0.0297 -0.0051 -0.0432
27856W        W46060   5.726   4.223   2.599 -0.1385  0.0566 -0.0162
27857W        W46061   5.090  13.727   2.067  0.0506  0.1559 -0.0240
27858W        W46062   3.869   2.580  13.153 -0.0501  0.0039 -0.0230
27859W        W46063   5.141  15.489   3.251 -0.1105  0.0798  0.1726
27860W        W46064  16.662  17.376   5.006 -0.1306  0.0929  0.2983
27861W        W46065   9.235  17.102  13.343  0.0718  0.0656 -0.0777
27862W        W46066   3.221   2.797  10.531 -0.1575 -0.1341 -0.3878
27863W        W46067  14.535   5.183  12.142 -0.0012 -0.1785 -0.3001
27864W        W46068  13.328   2.433   1.516  0.0050  0.3037  0.1772
27865W        W46069  12.499  15.253  12.975  0.0295  0.1648 -0.0040
27866W        W46070  13.461  13.738  14.558 -0.1049 -0.2242 -0.1892
27867W        W46071   8.291   8.820  12.052 -0.1484 -0.3375  0.5692
27868W        W46072   3.479  17.797  12.299  0.0323  0.0890  0.0653
27869W        W46073  11.891   4.115   4.269  0.0482  0.4277  0.0301
27870W        W46074   5.629   9.613  14.572 -0.0088  0.0608 -0.0345
27871W        W46075   7.518   2.405  14.094 -0.1536  0.1132 -0.2331
27872W        W46076  16.747  15.732   4.727 -0.0009 -0.1855  0.1523
27873W        W46077  17.065  15.935  13.432 -0.1015 -0.1383 -0.0762
27874W        W46078   6.438  13.327  14.434 -0.1734 -0.0717 -0.0291
27875W        W46079   2.541  14.347   3.637 -0.0296  0.0266 -0.0945
27876W        W46080  11.284  13.181  12.910  0.1910 -0.1316  0.0333
27877W        W46081   4.714   5.515  12.336 -0.4184 -0.2109  0.0751
27878W        W46082   9.262  13.540   1.483  0.1754 -0.0307 -0.0017
27879W        W46083  16.603  17.120  13.651  0.0066  0.1463 -0.1519
27880W        W46084   1.356  17.068  13.376  0.0649  0.0091  0.2287
27881W        W46085   5.853   1.996   3.724 -0.0638  0.1709  0.0740
27882W        W46086   5.096  11.835   2.566 -0.2036 -0.1214  0.2542
27883W        W46087  11.681   4.380  15.654  0.0045  0.0403 -0.0550
27884W        W46088   7.255  12.842   0.255 -0.1445  0.0046 -0.1942
27885W        W46089   4.994   6.021  14.330 -0.2894 -0.0398 -0.0729
27886W        W46090  12.778   4.163  11.223  0.1554 -0.0138  0.1883
27887W        W46091  13.898   6.420  15.453 -0.0540  0.2145 -0.1314
27888W        W46092   7.425  14.587   5.302  0.1614  0.0878  0.1828
27889W        W46093  15.527   9.150   5.948  0.1509  0.1243  0.0393
27890W        W46094   8.512   9.626  12.089  0.0812 -0.1741  0.0072
27891W        W46095   1.513  10.666   4.431 -0.0752  0.3579  0.0493
27892W        W46096   8.277   0.910  14.653  0.1249  0.1278  0.0794
27893W        W46097  16.593   2.013   4.571  0.4162  0.4251 -0.3364
27894W        W46098  14.294   9.797   0.773  0.3299 -0.1945 -0.1473
27895W        W46099   0.669   5.158   1.199  0.1716 -0.1600 -0.0998
27896W        W46100   0.784   2.869  12.745  0.1489  0.0087 -0.2329
27897W        W46101   0.815   3.414  15.931 -0.1408 -0.0407 -0.1720
27898W        W46102   0.530   0.757  12.332  0.0816  0.2566 -0.0901
27899W        W46103  14.339  14.617  15.001  0.1600 -0.2602  0.1060
27900W        W46104   7.463  10.394   1.588 -0.0405 -0.0220 -0.2773
27901W        W46105   7.211  14.989   1.799  0.1332 -0.1373 -0.0757
27902W        W46106  12.644   4.324  10.758 -0.0578  0.1764 -0.1107
27903W        W46107   4.737   8.156   1.266  0.1645  0.1237 -0.1051
27904W        W46108   4.074  11.669   3.576 -0.2505  0.4839 -0.1359
27905W        W46109  15.756   7.766   5.379  0.1542  0.1109  0.1166
27906W        W46110   5.025  17.187  15.526  0.2079 -0.0406 -0.4194
27907W        W46111  10.857  12.356   0.879  0.0510 -0.0236  0.0490
27908W        W46112   4.267  12.225  11.649 -0.0422 -0.2124 -0.1124
27909W        W46113   9.837   7.914  15.653 -0.2051  0.0499  0.1633
27910W        W46114   0.646   5.125  13.367 -0.0225  0.1053  0.2550
27911W        W46115   3.787  13.747   1.704 -0.2685  0.0854  0.0701
27912W        W46116   4.779  15.552  15.245  0.0447  0.1265  0.0322
27913W        W46117  13.060  11.561   2.743 -0.1385 -0.2811 -0.1437
27914W        W46118   7.029   2.142   5.534 -0.1474  0.0745 -0.1722
27915W        W46119  13.945   7.982  15.898 -0.3093  0.0459 -0.1406
27916W        W46120   0.170   2.263   2.953  0.0516 -0.1474  0.0251
27917W        W46121  14.544  14.709  11.089 -0.0732  0.1590 -0.3242
27918W        W46122   1.538   7.095  10.864 -0.2525 -0.2729  0.0269
27919W        W46123   6.705   1.671  12.499  0.0800  0.0892 -0.2764
27920W        W46124  14.634  11.915   1.138  0.0606  0.0201  0.3841
27921W        W46125  11.589  13.255  11.888  0.1269 -0.2467 -0.1121
27922W        W46126  16.037   1.708  12.983 -0.3410  0.0535 -0.0211
27923W        W46127  15.016   3.358  14.421  0.2169  0.1256  0.1520
27924W        W46128  17.777   7.071   4.574  0.1348 -0.0472 -0.0990
27925W        W46129  14.869   9.018  13.211  0.0752  0.0557 -0.0747
27926W        W46130   0.916  13.134   2.811 -0.0211  0.1403  0.0673
27927W        W46131   8.899  12.225   0.353  0.0800  0.1467  0.1257
27928W        W46132   3.695   8.466   1.346  0.0363  0.1680 -0.0520
27929W        W46133  12.916  15.729   0.560  0.0556 -0.1329  0.2708
27930W        W46134   8.563  15.701  14.132  0.2999  0.2061 -0.1567
27931W        W46135   5.936   3.387  12.700 -0.0045  0.0741 -0.2000
27932W        W46136  17.639  12.500  14.736 -0.1925 -0.2220 -0.0636
27933W        W46137   9.957   4.553  14.530  0.1159  0.1305  0.1037
27934W        W46138   1.026   9.995   1.853 -0.1010  0.2635 -0.1105
27935W        W46139  17.992  14.769   0.527  0.2437 -0.1360  0.0377
27936W        W46140   6.322  17.164  13.493  0.2337  0.0381  0.1452
27937W        W46141   4.367  13.898  10.959 -0.1141 -0.1073  0.0015
27938W        W46142   9.770  14.181  14.559  0.2131 -0.1049  0.0225
27939W        W46143   1.924  16.198  14.237  0.0254  0.1371 -0.3376
27940W        W46144   4.611  16.786  12.625  0.0919 -0.0009  0.0014
27941W        W46145   2.845   6.419  14.824  0.0320  0.1642  0.1899
27942W        W46146   4.942  10.340   0.815  0.1026 -0.0765  0.2021
27943W        W46147   0.221   3.934  14.558 -0.1777  0.3401  0.3436
27944W        W46148  11.897   5.938   3.260  0.0858  0.1218 -0.4607
27945W        W46149  17.383  10.705   4.170  0.1123  0.0784  0.2585
27946W        W46150   4.619  16.660  14.488 -0.1594 -0.1008 -0.2253
27947W        W46151   8.545   7.172   1.691  0.0488  0.1436 -0.1144
27948W        W46152  16.883  15.254  15.342  0.0580 -0.3187  0.0010
27949W        W46153  15.968   9.831  13.853 -0.2746  0.0371 -0.1088
27950W        W46154  13.561   6.318   0.515  0.1063  0.1145 -0.0092
27951W        W46155   1.100  13.612  12.596  0.2209 -0.0082 -0.2865
27952W        W46156  14.627   8.451   3.105 -0.2767  0.1625  0.2196
27953W        W46157   5.562   5.091  13.794  0.4126  0.2449  0.2642
27954W        W46158   7.301  16.870  11.187 -0.1872 -0.0347 -0.0973
27955W        W46159   3.616   8.854   2.058  0.4171 -0.1578  0.0122
27956W        W46160   5.060   1.547   3.203 -0.1501  0.4128  0.1027
27957W        W46161  16.747   6.302  12.310  0.2491 -0.0911 -0.2338
27958W        W46162   0.653  16.438  14.591  0.0547  0.1251 -0.0395
27959W        W46163   4.656  12.796  15.087 -0.2818  0.0680 -0.0976
27960W        W46164   7.047  14.814  14.462  0.1835  0.1028  0.1547
27961W        W46165  12.587  10.969   0.999 -0.0006 -0.0591  0.1351
27962W        W46166  10.584  14.814   2.691  0.0315 -0.0446 -0.0032
27963W        W46167   2.200   6.891   0.438  0.0201 -0.1286 -0.3017
27964W        W46168  17.395  11.287   2.798  0.0740  0.0088  0.0351
27965W        W46169   3.233  16.720  14.721  0.0687  0.0566 -0.1291
27966W        W46170  10.859   1.246   1.869  0.1711  0.4479  0.1189
27967W        W46171   6.071   9.059   1.904  0.0842 -0.1329  0.0219
27968W        W46172   5.776  10.690   5.004  0.0890 -0.3127  0.0306
27969W        W46173   3.146  11.411   3.514 -0.3111 -0.1402 -0.3381
27970W        W46174  16.961  10.481   0.923 -0.0778 -0.0806 -0.0940
27971W        W46175   7.778  17.683   0.635  0.1110 -0.2827 -0.4695
27972W        W46176  12.014  16.816  12.353  0.4507 -0.4763  0.0658
27973W        W46177   6.720  10.554   4.763 -0.1085  0.1016  0.0516
27974W        W46178   4.271  16.464  13.613 -0.2463  0.2825 -0.1042
27975W        W46179   5.984  15.029  15.767  0.2482  0.1096 -0.0152
27976W        W46180   1.075  11.347   4.270  0.0413 -0.2524  0.0163
27977W        W46181  14.588   2.162  16.133 -0.2869 -0.0777 -0.0531
27978W        W46182   2.861  13.032   3.325  0.0240 -0.0953 -0.1558
27979W        W46183   9.468   7.773   0.937  0.0592  0.2229 -0.1184
27980W        W46184  16.991   4.039   1.632  0.1030 -0.0766  0.0389
27981W        W46185   0.163  15.120   3.131 -0.1512 -0.1111 -0.1198
27982W        W46186   3.598  16.990  15.656  0.2619  0.2435  0.2646
27983W        W46187  13.689   4.218   4.105  0.1812  0.3633  0.3052
27984W        W46188   0.136   2.044   5.279 -0.1390 -0.0482  0.3634
27985W        W46189   6.364  10.578  13.242  0.0205 -0.2305 -0.1875
27986W        W46190  12.954   2.487  10.878  0.1100  0.2755 -0.0777
27987W        W46191   3.875   3.970  12.308 -0.1407  0.0489  0.0264
27988W        W46192   4.481   8.440   0.438  0.3001 -0.3072  0.0265
27989W        W46193  13.765   9.866  15.686 -0.0088 -0.2726 -0.0979
27990W        W46194   9.375   8.986   0.361 -0.0569 -0.2598  0.0461
27991W        W46195  16.085  13.873   3.185  0.0952  0.1207  0.1120
27992W        W46196   3.027   4.623   3.841 -0.1158  0.2551  0.1769
27993W        W46197  14.427  14.171  13.697  0.2386  0.0505  0.1704
27994W        W46198   1.500  17.867  15.631  0.1116  0.1450 -0.0976
27995W        W46199   8.765  13.217   2.805  0.0337  0.0838 -0.0693
27996W        W46200  10.760   8.288   3.857 -0.3365  0.0598  0.1757
27997W        W46201   7.799   6.549  12.090 -0.0190  0.2683  0.1788
27998W        W46202  12.905  16.989   4.342 -0.1541 -0.0254  0.2187
27999W        W46203   1.805   6.812   0.159  0.0151  0.2948  0.2741
28000W        W46204  13.819  13.469   2.855 -0.0652  0.3043 -0.2708
28001W        W46205  11.909   2.891   3.877  0.0950  0.2324  0.0684
28002W        W46206  11.001  15.649   4.909 -0.0523  0.1734 -0.2101
28003W        W46207  12.879   2.142   0.199  0.0166  0.0794  0.2037
28004W        W46208   1.165  10.717   3.571  0.1575  0.0243  0.1020
28005W        W46209   6.083   7.600   1.493  0.1037 -0.3341 -0.0934
28006W        W46210   8.692   3.003   1.784 -0.0584 -0.1930 -0.2112
28007W        W46211  13.570   6.442  15.022 -0.0859  0.0079  0.0981
28008W        W46212   7.683   8.890  14.796 -0.0501 -0.1725  0.0198
28009W        W46213  16.067  13.445  15.570 -0.3191 -0.3848  0.1307
28010W        W46214   8.296   9.026   2.395  0.0253  0.0483  0.1759
28011W        W46215   1.366   1.928  11.968  0.0960  0.0014 -0.0436
28012W        W46216  10.996   5.635   0.952 -0.2920  0.1495  0.1307
28013W        W46217  16.663   7.051  12.723  0.2611 -0.0546  0.1307
28014W        W46218  11.704  11.315  15.900  0.1132  0.2155  0.0293
28015W        W46219   4.631  15.251   2.629  0.0224  0.2337 -0.1590
28016W        W46220   6.600  11.045  12.433 -0.1900  0.2231  0.1232
28017W        W46221   8.824  17.733   3.173  0.0766  0.3758 -0.0749
28018W        W46222   4.188   2.840   3.065 -0.2307 -0.3103 -0.3099
28019W        W46223  10.684  14.299  10.602  0.1951 -0.1156  0.3195
28020W        W46224   1.609   5.958   2.757 -0.1695 -0.1476 -0.0584
28021W        W46225   4.607  15.244   1.142  0.0161  0.1277  0.0546
28022W        W46226   3.521   3.668   3.983 -0.2284  0.4183 -0.2789
28023W        W46227   5.506  15.590   2.465 -0.0087 -0.0140 -0.1567
28024W        W46228   1.731   9.835  16.147 -0.3735 -0.0022  0.1270
28025W        W46229  17.886  16.209  11.316 -0.1098  0.2994 -0.1673
28026W        W46230  16.355  16.409   2.976  0.0488 -0.1721 -0.0942
28027W        W46231   4.871  11.054  12.822 -0.2605  0.0274 -0.0220
28028W        W46232   2.469   7.833  12.589  0.0054  0.0937  0.1774
28029W        W46233   6.870  11.176   0.433  0.1411  0.1306  0.1619
28030W        W46234  14.031  15.444  14.253  0.0715 -0.0094 -0.0902
28031W        W46235   3.261   8.641  15.543 -0.1651  0.2005 -0.0847
28032W        W46236  17.140  17.447  14.452  0.0992 -0.0571  0.1408
28033W        W46237   1.218  17.468  15.772 -0.0859  0.3826  0.1956
28034W        W46238  14.919   8.283   5.194 -0.0217 -0.1010  0.0020
28035W        W46239  11.818   7.181  13.367 -0.0640 -0.1156  0.1047
28036W        W46240  12.651   7.431  14.633 -0.1636 -0.0459 -0.4433
28037W        W46241  10.320   6.876  12.422  0.2840  0.2925  0.0219
28038W        W46242   5.890   0.161  12.424 -0.0886  0.2079  0.3231
28039W        W46243  16.395   9.573  16.134 -0.1146 -0.0010 -0.1855
28040W        W46244  10.047   6.270   1.998  0.0072 -0.2076 -0.1398
28041W        W46245   6.879  17.197   4.279  0.0116 -0.1877  0.1231
28042W        W46246  17.510   4.650  15.804  0.5590  0.0571 -0.0266
28043W        W46247   6.635   5.703   3.349 -0.2081 -0.2449 -0.1560
28044W        W46248   3.033   7.967  13.059  0.1642 -0.0118 -0.1145
28045W        W46249  10.162   7.386   2.090  0.3996 -0.0387  0.2253
28046W        W46250  15.693   2.165  11.788  0.3346  0.2185 -0.2381
28047W        W46251   4.298   4.544  14.646  0.0827 -0.4723 -0.2276
28048W        W46252  10.982   7.098  14.530  0.0675  0.2226 -0.1513
28049W        W46253   4.673   9.691  13.485  0.0611 -0.1493 -0.0510
28050W        W46254   6.824   2.295   4.688  0.5948  0.0023  0.0949
28051W        W46255   7.861  13.242   3.164 -0.1125 -0.0700  0.1417
28052W        W46256  12.365  10.318  15.405  0.2243 -0.1522  0.1644
28053W        W46257   8.863   8.660   5.233  0.0420 -0.1686  0.0525
28054W        W46258   4.484  13.659  11.918 -0.1382 -0.0870 -0.0117
28055W        W46259   7.590  14.013  12.946 -0.2261  0.1011  0.2592
28056W        W46260   6.178   8.152   2.358  0.0689  0.3564  0.0838
28057W        W46261  13.447   1.337  11.901  0.1335  0.1700  0.0131
28058W        W46262  16.432  15.638  14.388 -0.1825 -0.3500  0.1174
28059W        W46263  16.798   1.386   1.548 -0.0248  0.2494 -0.0207
28060W        W46264   1.307  15.849   0.748 -0.1352 -0.0945  0.1619
28061W        W46265   8.548  10.997  14.483 -0.1380  0.0610  0.0079
28062W        W46266  12.403   0.619   3.742  0.2900  0.0672 -0.1018
28063W        W46267  15.793   5.211  11.647 -0.1012 -0.1376  0.3613
28064W        W46268  16.466   5.223   4.294  0.5096 -0.0260  0.0671
28065W        W46269  11.694  11.240  15.352  0.2942  0.1804  0.3528
28066W        W46270  17.574  16.721  13.298 -0.0453 -0.0111 -0.0415
28067W        W46271   6.934   5.249  12.724  0.2128  0.1576 -0.3912
28068W        W46272  16.231  16.530  15.502  0.2803 -0.1257 -0.1624
28069W        W46273   6.420   3.650  11.975  0.1396  0.0174 -0.0782
28070W        W46274  16.026   6.200   3.414  0.0284 -0.1758  0.0576
28071W        W46275   0.555   9.138  14.613 -0.1502 -0.0242  0.0514
28072W        W46276  15.020  10.008  12.954  0.2510 -0.0691  0.4618
28073W        W46277   9.701   4.942   0.080 -0.0426  0.2965  0.3805
28074W        W46278   0.359  12.355  12.852 -0.0001 -0.0415 -0.3056
28075W        W46279   8.803   3.514   4.561  0.0128  0.2867  0.0657
28076W        W46280  10.520   6.923  11.973 -0.1003  0.0368  0.1439
28077W        W46281   0.888   7.893  14.860 -0.2471 -0.0859 -0.0483
28078W        W46282   7.912  18.026  14.520  0.1953 -0.2414  0.1047
28079W        W46283  15.121  17.122  15.864 -0.2621  0.2434  0.0730
28080W        W46284  15.900  12.844   4.695  0.0822  0.0630  0.0263
28081W        W46285  13.066   0.276  13.529  0.1177  0.2957  0.0267
28082W        W46286   1.075   6.243  11.229 -0.0706  0.0122  0.2049
28083W        W46287  15.252   6.819   4.881  0.2289  0.2248  0.0496
28084W        W46288   0.625  11.496  15.058  0.0762  0.1526  0.0402
28085W        W46289   5.563   8.862   0.498 -0.0398 -0.2609  0.0393
28086W        W46290  13.304   1.843   4.595 -0.0635 -0.0346 -0.1879
28087W        W46291   4.347   4.776  12.166 -0.3139  0.3000 -0.1320
28088W        W46292   0.112   3.215  15.040  0.3258 -0.1130  0.0785
28089W        W46293  17.797   0.454  10.478  0.1793 -0.2173  0.4272
28090W        W46294   2.095  17.385  14.014 -0.1199 -0.4276 -0.0512
28091W        W46295   5.425  17.383  13.989  0.1443  0.2675  0.0758
28092W        W46296  14.612   9.432   1.704  0.0499 -0.1110 -0.1920
28093W        W46297  13.057  11.581  15.763  0.2283 -0.0634 -0.0269
28094W        W46298  15.889  14.859  12.912  0.1807 -0.1481 -0.1295
28095W        W46299   6.694   6.352  15.305 -0.0071 -0.1300  0.1657
28096W        W46300  16.987   8.946  14.302  0.1630  0.2777 -0.3196
28097W        W46301  14.721  15.160  10.991  0.1603 -0.2405 -0.0115
28098W        W46302   8.959   9.585  13.897 -0.0904  0.1322 -0.0151
28099W        W46303   9.722  12.359   4.576  0.1482 -0.0791 -0.0565
28100W        W46304   4.173   3.200   1.592 -0.0283 -0.0252  0.1843
28101W        W46305  10.123   8.579  13.503 -0.0405  0.0083 -0.0497
28102W        W46306  17.367   8.550   1.705  0.2144 -0.0790  0.1262
28103W        W46307   7.403  13.698  11.698 -0.1150  0.0529  0.2586
28104W        W46308   3.056   7.006  14.077  0.1663 -0.0999  0.2016
28105W        W46309   1.608  14.901  10.897  0.0492  0.0183  0.1660
28106W        W46310  16.287  15.364   0.475 -0.0316 -0.0775 -0.2347
28107W        W46311  11.600  11.187  12.476 -0.0715  0.3531 -0.0620
28108W        W46312   2.978   5.982   3.923 -0.4530  0.0141 -0.0790
28109W        W46313  16.339   8.214  11.934  0.2440 -0.1531 -0.2826
28110W        W46314  17.756   6.585   5.572  0.1824 -0.1325 -0.0960
28111W        W46315   0.059  10.311  14.051 -0.2399 -0.0802  0.1688
28112W        W46316  14.392   8.824  14.505 -0.0629 -0.0922 -0.2201
28113W        W46317   1.076   3.724  13.954 -0.2863 -0.2708  0.0756
28114W        W46318   4.280  15.432  15.833  0.0438 -0.1773 -0.2423
28115W        W46319   0.339   4.406  15.399 -0.0956 -0.1749  0.0668
28116W        W46320   7.890  17.362   3.959 -0.0297 -0.0793 -0.0387
28117W        W46321   6.989  15.987   0.012 -0.3123  0.3076  0.0240
28118W        W46322   7.039  18.003  14.213  0.0515  0.0292  0.1776
28119W        W46323   1.302   0.954   2.703  0.1087  0.3653 -0.2453
28120W        W46324  10.386  17.090   2.288  0.0283  0.1858 -0.0551
28121W        W46325  10.433  10.549   2.050 -0.4608 -0.2691 -0.1338
28122W        W46326  13.539   6.376   1.290  0.0050  0.1727  0.2428
28123W        W46327   7.531   9.268   3.046 -0.1854 -0.0771 -0.3747
28124W        W46328   2.564   1.159   2.209  0.1370  0.1013 -0.0194
28125W        W46329   2.742   7.574   0.652 -0.2482  0.4948  0.4334
28126W        W46330  12.809  14.639  12.133 -0.0227 -0.1953  0.0953
28127W        W46331  17.553  13.978  13.633  0.0411 -0.4917  0.0110
28128W        W46332  15.352   1.453  14.858  0.0869  0.0894  0.1215
28129W        W46333  12.192  12.427  13.439 -0.1439  0.5878  0.0929
28130W        W46334  11.945  15.724   1.143 -0.1777 -0.2260  0.2777
28131W        W46335  14.408   1.569  14.983  0.0129 -0.2275  0.4293
28132W        W46336  12.373  13.796   2.279 -0.2215 -0.2046  0.2180
28133W        W46337  11.474   5.787   4.523 -0.0793  0.0654 -0.2460
28134W        W46338   8.694  12.824  12.630  0.2601 -0.0122  0.0018
28135W        W46339   6.255  11.574   3.388 -0.2084  0.0814  0.0855
28136W        W46340   9.877   0.352  11.154  0.2752  0.1124  0.1686
28137W        W46341   5.939   9.928   1.699  0.3362 -0.0726 -0.0898
28138W        W46342  13.441   4.746   1.136  0.0589  0.1124  0.0403
28139W        W46343  13.620  13.901   0.497  0.0592  0.2298 -0.0140
28140W        W46344   2.954   7.964   5.000 -0.1601 -0.0103 -0.4681
28141W        W46345  17.914   8.297   0.424  0.2195  0.0296  0.2672
28142W        W46346  13.621   0.488  15.023  0.1375  0.0863  0.0586
28143W        W46347   1.650   7.767  16.057  0.1075  0.2721  0.1712
28144W        W46348  17.514   5.791  16.070  0.1021  0.0320  0.0082
28145W        W46349   0.067   4.578  14.303 -0.2247  0.3203 -0.0486
28146W        W46350  12.299  17.988   2.617  0.0136  0.2239  0.0374
28147W        W46351   2.355   6.738  12.475  0.0869 -0.0723 -0.1328
28148W        W46352   4.642  11.966  13.510 -0.0843  0.1078 -0.0920
28149W        W46353  11.944  16.861  16.010 -0.0770 -0.1312  0.0545
28150W        W46354   5.609   8.764   5.374 -0.0436  0.0389  0.1139
28151W        W46355  12.279   1.790  12.255 -0.2055 -0.1576 -0.1873
28152W        W46356   3.848  12.837  14.995  0.2103  0.0079  0.2542
28153W        W46357  14.993   1.904  11.195  0.1232 -0.2696 -0.1273
28154W        W46358   4.479  11.088  13.191 -0.3040 -0.1185  0.0347
28155W        W46359   5.349  14.591  14.188  0.0034  0.1867 -0.0109
28156W        W46360   9.707   0.261  10.673 -0.0997 -0.2990 -0.0086
28157W        W46361   6.947  15.630  12.562 -0.0601  0.2327 -0.1982
28158W        W46362   3.134   2.396   2.108  0.1259 -0.0735  0.2295
28159W        W46363  17.301   6.170  14.412  0.1232  0.1396  0.0496
28160W        W46364  15.493  12.030  12.963  0.1191  0.2057  0.2240
28161W        W46365   9.236  15.859   1.916  0.1951  0.2444  0.1317
28162W        W46366  15.437  11.161  13.576  0.1866  0.0376 -0.2176
28163W        W46367   6.057   8.647   3.747  0.0635  0.0144 -0.1554
28164W        W46368   8.205  13.640   5.222 -0.1068 -0.0526  0.2258
28165W        W46369   5.494   8.291  13.531 -0.2374 -0.0355 -0.3908
28166W        W46370   0.565   8.276  12.374  0.0075 -0.0059 -0.2536
28167W        W46371  16.168   2.291   3.309 -0.2434  0.1903  0.0100
28168W        W46372  15.863  15.260  12.036 -0.2347 -0.0924 -0.3228
28169W        W46373  12.251   4.740  13.647  0.1698  0.1585  0.1624
28170W        W46374   9.569   5.393  14.550 -0.0594  0.4034 -0.1177
28171W        W46375  15.267   5.946   3.905  0.0345 -0.0083 -0.2376
28172W        W46376   1.289   8.668  14.891  0.2178  0.0240 -0.0170
28173W        W46377   6.903   0.479   4.068  0.1078  0.1527  0.2537
28174W        W46378  17.629  11.725   4.595 -0.0077  0.1298  0.0743
28175W        W46379  17.282   5.452   3.715  0.0014  0.0532 -0.0617
28176W        W46380   0.237   8.646   5.021  0.1860 -0.2641  0.1658
28177W        W46381   2.301  17.116  14.422  0.0401 -0.1866 -0.0992
28178W        W46382  15.734   4.442   3.488  0.0523  0.1039  0.1553
28179W        W46383  10.388   4.376  14.371 -0.1657 -0.1061 -0.1847
28180W        W46384   8.172   8.011   2.855 -0.0651  0.0129 -0.5137
28181W        W46385  12.701  11.545   3.933  0.0494  0.1828  0.1816
28182W        W46386   9.533   1.535  14.231 -0.1911 -0.0018  0.2611
28183W        W46387  13.041  14.163   3.621  0.0345  0.0147  0.0828
28184W        W46388   8.650   8.209  11.729  0.1448  0.1569  0.1822
28185W        W46389  12.397   2.138   0.529  0.1110  0.0518 -0.2150
28186W        W46390  14.664   0.132   0.775  0.0876  0.0119  0.3477
28187W        W46391  15.651   2.985   2.251 -0.0922  0.3680  0.1953
28188W        W46392   7.030   3.376   0.900 -0.1589  0.0056 -0.1814
28189W        W46393  10.519  10.631  13.300 -0.4492  0.0039 -0.2116
28190W        W46394   8.619  14.399  14.416 -0.0207  0.0257 -0.0584
28191W        W46395  12.051   5.411   3.741  0.2898  0.2336  0.1453
28192W        W46396   8.070   1.364   3.788 -0.2093 -0.4058  0.1113
28193W        W46397   8.502  12.923  14.477  0.1284  0.0488 -0.3346
28194W        W46398   3.060   8.349   3.798  0.0226  0.0868  0.0253
28195W        W46399   3.163   5.460   0.638  0.1670 -0.1839  0.3219
28196W        W46400  16.479   3.705  14.611  0.3274  0.0967 -0.1690
28197W        W46401   1.486   8.669  16.001 -0.0717  0.0513  0.1595
28198W        W46402   8.738   8.585   3.287  0.1531  0.2079 -0.2259
28199W        W46403   6.669  14.488  12.167  0.0007 -0.1413 -0.0692
28200W        W46404  14.952   1.915   3.853 -0.1610  0.3422 -0.2152
28201W        W46405  15.230   5.314   2.698 -0.1517 -0.0888  0.1357
28202W        W46406   3.065   6.938   1.795 -0.1530 -0.2594 -0.0265
28203W        W46407   6.406  13.321  15.533 -0.1321  0.3465  0.1686
28204W        W46408   2.676   8.132   4.070 -0.0311 -0.0035  0.2806
28205W        W46409   2.889  16.807   1.040  0.4293  0.2665 -0.0438
28206W        W46410   0.937   5.504  12.274  0.3747 -0.0483  0.0745
28207W        W46411  13.005   5.234   5.035 -0.0417 -0.1005 -0.4025
28208W        W46412   0.518   1.561   1.436 -0.3659  0.3668  0.4049
28209W        W46413  14.017  11.873  14.517 -0.2605  0.0123 -0.1338
28210W        W46414   9.697  10.155  13.720 -0.1923 -0.1686 -0.3169
28211W        W46415   8.549   9.023   0.643  0.0005  0.1622  0.3083
28212W        W46416  11.408  16.086  15.140 -0.0117  0.1419  0.1020
28213W        W46417   4.780  16.242  12.733  0.2402 -0.2327 -0.0141
28214W        W46418   3.233   8.391   0.047  0.2756 -0.0384 -0.0395
28215W        W46419  10.965  14.499  13.053 -0.0058  0.1305 -0.1147
28216W        W46420   0.945  13.614   2.558 -0.1449  0.0415 -0.0351
28217W        W46421  14.562  12.747  10.766 -0.1801 -0.2137  0.0385
28218W        W46422   9.540   8.166   1.370 -0.0948 -0.1821 -0.1976
28219W        W46423  14.234   2.191   3.415  0.0078 -0.0503  0.0774
28220W        W46424  13.899   5.189  11.683  0.0751 -0.1665 -0.0216
28221W        W46425  12.012   4.373   2.526  0.2025  0.1138  0.1461
28222W        W46426  14.430   9.312  14.567  0.1069 -0.0143 -0.3954
28223W        W46427  17.070  14.169  12.260 -0.1426  0.2496  0.0207
28224W        W46428   5.694   3.394  13.150 -0.0866 -0.2948 -0.0873
28225W        W46429   1.175   7.651  15.269 -0.3139  0.0981 -0.0087
28226W        W46430  11.579  14.723   4.321  0.3250  0.0374 -0.0867
28227W        W46431   6.842  12.502   4.530 -0.0226  0.0436 -0.0942
28228W        W46432   6.473  15.290  13.268 -0.2877  0.2151 -0.2864
28229W        W46433   3.520   1.354  15.621  0.2246 -0.0996  0.1087
28230W        W46434   0.337  17.326   1.299 -0.1978 -0.1673 -0.0344
28231W        W46435  14.859   8.641  13.514  0.2265  0.0125  0.0203
28232W        W46436  11.995   3.170   0.380  0.4269  0.1023 -0.0877
28233W        W46437   5.110   4.795   2.505  0.2181  0.0966 -0.1374
28234W        W46438  17.168  13.500   1.630 -0.1073 -0.1135 -0.0173
28235W        W46439   9.803  17.379   1.764  0.0165  0.4701 -0.2419
28236W        W46440  14.157  15.270  13.801  0.1045 -0.0706  0.1151
28237W        W46441   5.974  14.951  12.289  0.3004  0.3350 -0.4262
28238W        W46442   8.072   0.130  12.161 -0.2159  0.0186 -0.0103
28239W        W46443  16.840   8.264   2.406 -0.0925  0.0350  0.2932
28240W        W46444  10.639  12.532  14.396  0.0612  0.0321 -0.1208
28241W        W46445   5.129  15.094  12.705 -0.0170  0.2958 -0.1403
28242W        W46446   2.612   0.901  11.890 -0.1088  0.0449 -0.2098
28243W        W46447  15.502   4.308  12.283  0.1488 -0.0592 -0.1011
28244W        W46448   3.457   2.397   1.552  0.0794 -0.0771 -0.0248
28245W        W46449  14.112   0.408  14.637 -0.2142 -0.1233 -0.1857
28246W        W46450  14.513  12.621  14.698  0.2253 -0.1889  0.0872
28247W        W46451   8.752  14.030   0.538  0.3390 -0.3209 -0.0904
28248W        W46452  12.209   5.637   4.932 -0.0169 -0.1817 -0.3665
28249W        W46453   5.982  17.397   2.166 -0.0980  0.0962 -0.0956
28250W        W46454   7.603  16.247  14.972 -0.3919  0.1844 -0.0580
28251W        W46455   4.909  14.814   2.611 -0.2209 -0.1572  0.2789
28252W        W46456  14.065   3.407  15.287 -0.0628  0.5136  0.0051
28253W        W46457  15.638   0.740  12.576 -0.1232  0.1662  0.2687
28254W        W46458  10.045  14.367   4.110 -0.0993  0.0596 -0.1124
28255W        W46459  12.432   0.444  12.204  0.0997 -0.1025  0.1890
28256W        W46460  17.203  10.269   2.492  0.2490  0.0790  0.0500
28257W        W46461   1.077   1.378   0.482 -0.0136 -0.0755  0.0015
28258W        W46462   6.026   1.314   4.320 -0.1464  0.2659  0.0231
28259W        W46463   6.559  13.283  13.652  0.0013 -0.1943  0.1807
28260W        W46464   3.298   9.174   2.972  0.1103 -0.2006  0.0875
28261W        W46465   3.892  14.980   1.383 -0.2683 -0.1013  0.3558
28262W        W46466   4.262  15.862  12.697  0.0935 -0.0622  0.0169
28263W        W46467  10.443   3.482  14.136 -0.0653 -0.0869  0.0368
28264W        W46468   4.936   9.420   4.167 -0.1070 -0.0586  0.1006
28265W        W46469  17.429   2.556  14.345 -0.1888  0.1618 -0.0644
28266W        W46470  13.814   2.437   1.761 -0.4333 -0.4280  0.1305
28267W        W46471  12.226  12.677   3.082 -0.0019 -0.2128  0.0798
28268W        W46472  11.188   3.519   4.519 -0.1428  0.2211  0.1949
28269W        W46473   1.361   5.175   0.325 -0.2090 -0.0098  0.0862
28270W        W46474   1.505   3.705  14.869 -0.1208  0.2417 -0.0301
28271W        W46475   0.162   3.803   2.959 -0.0285  0.1375 -0.1726
28272W        W46476  10.491   3.051  11.980  0.0986  0.1133  0.0417
28273W        W46477   6.237   5.534  15.514 -0.3106  0.0589  0.0809
28274W        W46478  10.049   9.315   2.405  0.3092 -0.0328 -0.1992
28275W        W46479  15.965  13.404  14.148  0.0226 -0.0956  0.2991
28276W        W46480   9.094   9.252  13.310 -0.0531  0.0800  0.0306
28277W        W46481  17.476  13.205   1.406  0.2624  0.0616 -0.4349
28278W        W46482   2.025   3.582  14.762  0.3352 -0.2091 -0.0972
28279W        W46483   2.332  14.226   2.269  0.1679  0.0869  0.2488
28280W        W46484   0.011  14.916  12.918  0.0381 -0.1675  0.0549
28281W        W46485   2.715  16.328  13.630 -0.1818 -0.0933  0.0392
28282W        W46486   4.598   7.074   2.303 -0.0815 -0.0609  0.3491
28283W        W46487   1.265   0.879   0.457  0.2520 -0.1504  0.1780
28284W        W46488  12.588  12.286  11.783  0.0367  0.3944  0.2016
28285W        W46489  11.988   9.237   1.381 -0.2791  0.1720 -0.2594
28286W        W46490   8.054   3.969   3.980  0.0281  0.0516  0.1192
28287W        W46491  10.119   9.669  13.101  0.0724  0.0059 -0.2433
28288W        W46492  17.550   3.237  15.238 -0.0567 -0.0606 -0.2069
28289W        W46493   8.032   9.907   4.806 -0.2372 -0.0975  0.0867
28290W        W46494  18.041   0.480  14.517  0.1017 -0.0318  0.1970
28291W        W46495   4.480   7.216   0.386  0.0440 -0.3185  0.0354
28292W        W46496   9.357  16.618   2.734  0.1402 -0.1796  0.0595
28293W        W46497  11.162  16.996  16.027  0.5610 -0.1909 -0.0469
28294W        W46498   4.681  12.828  12.594 -0.1928 -0.2029 -0.1696
28295W        W46499  16.480   8.273   2.751 -0.0734 -0.2540 -0.1390
28296W        W46500   2.879   7.649   2.209 -0.1951 -0.2588 -0.2939
28297W        W46501   4.018   4.362   2.030  0.0971 -0.2555 -0.2488
28298W        W46502   3.612  16.130  13.711 -0.0348  0.1502 -0.0576
28299W        W46503  10.019   3.538   0.054 -0.2057 -0.0908 -0.1340
28300W        W46504  11.810   4.921  13.975 -0.1348 -0.0632  0.1956
28301W        W46505   2.913   0.329   4.721 -0.1713  0.2137  0.1275
28302W        W46506   2.139   6.297   3.997 -0.0386 -0.3033 -0.1478
28303W        W46507  14.612  12.374  15.167  0.0715 -0.4656  0.1120
28304W        W46508  17.427   9.181  14.506  0.3517 -0.0514  0.1024
28305W        W46509  13.826   4.546   5.084  0.0375 -0.2492 -0.1734
28306W        W46510  10.401   1.515  12.275  0.1516 -0.0572  0.0349
28307W        W46511   3.256  14.923   1.793  0.3181  0.0727  0.0244
28308W        W46512   4.369   3.663   1.438 -0.1968  0.1720 -0.0380
28309W        W46513   0.890  10.598   5.158  0.1944 -0.0584  0.0735
28310W        W46514  10.012  16.323   1.027  0.1691  0.2055  0.2408
28311W        W46515  15.062   2.165  14.476  0.1037  0.2846  0.1330
28312W        W46516   6.161   6.477  15.666  0.2863 -0.0672 -0.1253
28313W        W46517   6.734  17.446   3.445  0.1152 -0.0817  0.3063
28314W        W46518  17.565   2.217  11.241  0.1973 -0.2175  0.0780
28315W        W46519  15.438   2.424  13.861 -0.1348  0.0972 -0.0311
28316W        W46520   1.409  15.642  13.456 -0.0059  0.2246 -0.0717
28317W        W46521  17.615   9.203   0.639  0.0497 -0.0036 -0.2171
28318W        W46522   6.786   9.450   1.867 -0.0406  0.1311  0.5157
28319W        W46523  12.918  13.573  12.285  0.0790  0.2843 -0.0541
28320W        W46524   2.559  15.674   2.222  0.1252 -0.0254 -0.0609
28321W        W46525  15.928  16.530  13.426 -0.0525 -0.1715 -0.1364
28322W        W46526   2.880   0.366  10.834  0.0277  0.1961 -0.1325
28323W        W46527   6.430   1.182  14.338 -0.2662 -0.0694  0.2476
28324W        W46528   7.034  15.502  15.763  0.0044  0.2382 -0.0129
28325W        W46529  13.034   8.778   2.360 -0.0572 -0.0870 -0.0085
28326W        W46530  14.599   0.811   0.026 -0.0386 -0.0940 -0.0228
28327W        W46531   2.912  17.771   1.711 -0.2376  0.1713  0.0410
28328W        W46532   9.109   4.662   4.766 -0.1099 -0.0131  0.2701
28329W        W46533   3.577   6.331  12.072 -0.1411  0.0013  0.4402
28330W        W46534   1.494   8.247  13.486  0.0868  0.0152  0.0836
28331W        W46535   9.361  12.748  14.428 -0.0004  0.2037  0.2129
28332W        W46536  11.275   6.279  14.914 -0.0365 -0.0984  0.3506
28333W        W46537   1.986  15.977  12.627  0.0730  0.0490  0.0323
28334W        W46538   8.258  16.473   2.394 -0.0565 -0.1755 -0.0615
28335W        W46539   2.714   1.446  14.531  0.2902  0.0592  0.0873
28336W        W46540   9.398   7.171   0.285 -0.0547  0.0475 -0.0660
28337W        W46541  11.969   3.146  13.514  0.1771 -0.0476 -0.0408
28338W        W46542   4.181  11.930  12.021  0.1200  0.0391  0.0569
28339W        W46543   7.233   5.022   4.759  0.1095 -0.1126 -0.4156
28340W        W46544   4.392   1.134   0.539 -0.1401 -0.1725 -0.3368
28341W        W46545  16.447   2.366   3.961 -0.0472  0.1141  0.2508
28342W        W46546   7.634  11.293  12.774 -0.2722  0.2990 -0.1542
28343W        W46547   8.222   5.050   3.882  0.0704  0.0756 -0.1854
28344W        W46548   5.280  10.777   0.172  0.1111 -0.0623  0.1696
28345W        W46549   0.031  17.268  14.823  0.0293 -0.0529 -0.1309
28346W        W46550  12.595   2.833  14.306  0.0156 -0.3045  0.0666
28347W        W46551  16.806   9.530   3.936  0.0049 -0.1230  0.0400
28348W        W46552  12.195  15.289   1.349  0.0614 -0.2204 -0.0052
28349W        W46553   9.916  13.776   3.263  0.4246  0.2976  0.0514
28350W        W46554   5.713  11.764   4.543  0.0028  0.2270 -0.1602
28351W        W46555  17.263  17.632   4.686  0.0170  0.1714 -0.0169
28352W        W46556   3.827  14.720  11.769  0.1896 -0.0486 -0.3449
28353W        W46557  12.514   6.057  14.776  0.1094 -0.3241  0.0131
28354W        W46558  14.097  16.102  13.467 -0.2472  0.1507 -0.0257
28355W        W46559   8.157   2.934  12.180 -0.1616 -0.3125 -0.1127
28356W        W46560   7.008  12.192   1.031  0.0813 -0.2324  0.0134
28357W        W46561  14.607   2.496   1.027 -0.2923 -0.1024 -0.0886
28358W        W46562  13.183   8.540  15.745  0.0486  0.1111  0.1361
28359W        W46563   5.705   5.605  15.328 -0.1313  0.2325 -0.2302
28360W        W46564   9.508   7.053  15.952 -0.0355 -0.2081  0.1935
28361W        W46565   4.461  15.979  11.484 -0.0039  0.2785 -0.0958
28362W        W46566   0.785   5.376   3.193  0.1072 -0.0592 -0.0739
28363W        W46567   7.124  14.044  11.899 -0.0660  0.2108 -0.2798
28364W        W46568   0.604  11.983   0.303  0.3683 -0.0618  0.0376
28365W        W46569  10.102   1.278   0.405 -0.0539  0.1741 -0.3130
28366W        W46570   7.294  11.200  16.008 -0.2229  0.0493  0.0850
28367W        W46571   9.621  15.419  11.719  0.4711 -0.0206  0.1366
28368W        W46572   4.355  15.289   4.506 -0.0843 -0.0604  0.0261
28369W        W46573   7.988   7.806  15.302 -0.0740  0.1605 -0.0712
28370W        W46574   0.553   5.926  11.633 -0.1340 -0.1339 -0.2140
28371W        W46575  17.161  12.886   0.221 -0.5303 -0.2422  0.0254
28372W        W46576   9.175  13.772  11.923  0.0895 -0.1057  0.2601
28373W        W46577  16.602   0.874   3.989 -0.0161  0.0373  0.1151
28374W        W46578  16.949   0.165  13.188 -0.0939 -0.2178  0.1895
28375W        W46579  13.020  12.005  12.492  0.0639 -0.0109 -0.3382
28376W        W46580  10.274   1.227   3.934  0.2939  0.1724  0.2657
28377W        W46581   0.725   6.484   1.835 -0.0256 -0.3179 -0.1815
28378W        W46582  11.208   6.230  13.973 -0.0128  0.2583  0.0673
28379W        W46583   7.819   3.825  11.783 -0.0196  0.1115 -0.0605
28380W        W46584   2.969   1.231   1.780  0.4448  0.1385 -0.1911
28381W        W46585  15.601   8.630   1.942  0.0113  0.0798 -0.0664
28382W        W46586   5.549  10.259   1.532 -0.1965  0.0649  0.1739
28383W        W46587  11.782  10.813  16.041  0.1693  0.1330  0.0579
28384W        W46588   8.985  13.730   1.107 -0.1008  0.1397 -0.2003
28385W        W46589   1.910   1.696  11.650 -0.0216 -0.3236 -0.0515
28386W        W46590  10.709  14.429  15.872  0.0034 -0.0238 -0.0114
28387W        W46591   6.673  15.886  15.623 -0.0763  0.0673 -0.1387
28388W        W46592  14.659   8.568   1.732  0.3957  0.1124 -0.3315
28389W        W46593   4.638   9.068   0.858 -0.2396 -0.2020 -0.0235
28390W        W46594  10.804  15.953  13.089  0.1456 -0.2103 -0.0496
28391W        W46595  15.454  17.203  12.952  0.1681 -0.2764 -0.1230
28392W        W46596   3.136   3.220   0.997 -0.1734  0.1735  0.0487
28393W        W46597   5.600  10.279   2.051 -0.2660 -0.3551  0.1402
28394W        W46598  11.430   5.815   5.462 -0.4512 -0.0470 -0.1051
28395W        W46599   4.698  14.768  14.709 -0.3723  0.2533 -0.0176
28396W        W46600  11.948   0.305  12.121  0.1988  0.0686  0.1261
28397W        W46601  14.522  18.031   4.316 -0.1147  0.3682  0.1698
28398W        W46602  14.666  12.230  12.068  0.1674  0.2460 -0.1943
28399W        W46603   5.116  14.184  13.854 -0.3129  0.0269  0.0523
28400W        W46604   3.984  10.566  14.664 -0.0713  0.2696 -0.0965
28401W        W46605   3.702  10.253  14.364 -0.1906  0.2487 -0.1119
28402W        W46606   9.989  13.359  14.651 -0.1288  0.1613  0.1042
28403W        W46607  17.224   7.601   0.113  0.0170  0.0368 -0.1157
28404W        W46608   6.765   3.215   1.291  0.2582 -0.0987 -0.2525
28405W        W46609   2.664   7.981   3.115  0.1287  0.0364  0.2171
28406W        W46610   3.658  11.984   3.828  0.0173 -0.0032  0.2098
28407W        W46611  13.509  17.509   3.247 -0.3869  0.1918  0.1701
28408W        W46612  12.902   0.691   1.092  0.0947 -0.1617 -0.2153
28409W        W46613   5.179   8.876  12.873 -0.0807 -0.4092  0.1658
28410W        W46614  14.393   5.852  14.859 -0.2104  0.0027 -0.1287
28411W        W46615   0.273  13.896   4.515  0.2357  0.0318  0.0509
28412W        W46616   4.058  16.855   1.028 -0.1281 -0.0984 -0.0040
28413W        W46617   0.565   3.011  11.906  0.1290 -0.1222 -0.1390
28414W        W46618   5.299   2.649  15.471  0.1762 -0.1077  0.1221
28415W        W46619  16.302  11.707   3.328  0.0713  0.1325 -0.2466
28416W        W46620   6.349  17.955   3.757  0.1062 -0.1608 -0.0930
28417W        W46621  11.270  11.925   0.857 -0.0683  0.0841 -0.1741
28418W        W46622   3.307  13.195  15.969 -0.2656 -0.1539 -0.3094
28419W        W46623   9.082   5.783   2.287  0.1338  0.1034  0.1164
28420W        W46624   7.146   9.299   2.658  0.0741  0.1192  0.0616
28421W        W46625   8.735   0.750   2.315  0.3614 -0.4164 -0.1903
28422W        W46626   1.037   6.645  15.428  0.0185 -0.0583 -0.0874
28423W        W46627   4.997  14.447   5.153 -0.2125 -0.1159 -0.1635
28424W        W46628   4.508   8.900   2.628  0.5121 -0.0574 -0.0643
28425W        W46629  11.311   9.193   5.110  0.0290  0.0292 -0.1254
28426W        W46630   0.076   2.680   2.109  0.0508 -0.0013  0.1304
28427W        W46631   8.427   5.942  11.995  0.2418  0.3978  0.0177
28428W        W46632  16.806   3.419  14.399 -0.0872  0.1514  0.3781
28429W        W46633   8.566  16.963  14.369 -0.0273 -0.0255  0.1468
28430W        W46634   6.061  15.823  15.579 -0.2803 -0.0421 -0.0691
28431W        W46635   8.916   5.896  11.700 -0.2962 -0.3011 -0.0876
28432W        W46636  15.906  10.680   3.779  0.1725 -0.2531 -0.0166
28433W        W46637   6.904   2.592  11.639 -0.3024 -0.2065  0.3744
28434W        W46638  12.944  14.926  13.531 -0.0518  0.1502  0.1060
28435W        W46639  17.453  11.980  14.188 -0.0427  0.1467 -0.2504
28436W        W46640  12.722   3.661   0.843  0.0847 -0.1921 -0.3375
28437W        W46641   8.676   2.458  11.551 -0.0223  0.0086 -0.2038
28438W        W46642  10.757   0.629  13.236  0.0580  0.1987 -0.0422
28439W        W46643   8.318   7.290   2.154 -0.0876 -0.0492 -0.2153
28440W        W46644  11.412  15.333  14.310 -0.0708  0.0198  0.0432
28441W        W46645   5.279  17.104  15.153  0.1659 -0.2288  0.2824
28442W        W46646   3.905  15.741   0.851 -0.0526  0.0121 -0.1942
28443W        W46647   8.081   9.011   5.849 -0.1311 -0.2749 -0.2256
28444W        W46648   9.923   7.902   2.275  0.0626  0.1571 -0.1250
28445W        W46649   2.440  12.548  14.770  0.1277  0.0479  0.1513
28446W        W46650  14.812  17.554  11.665 -0.0974 -0.2339 -0.2960
28447W        W46651   6.402   3.007  14.511  0.1325  0.2647 -0.1374
28448W        W46652  17.366   9.206  13.528 -0.0973 -0.0016  0.3846
28449W        W46653  17.688   7.503  13.600 -0.0087  0.2590  0.1651
28450W        W46654   6.970  11.154   4.533 -0.0877  0.0040 -0.1573
28451W        W46655  12.424   4.804  11.002  0.1338 -0.2487  0.0951
28452W        W46656   4.151   1.743   3.873  0.0182 -0.0306 -0.1042
28453W        W46657  17.723  13.734  14.045  0.1355 -0.1042  0.0345
28454W        W46658   0.308   5.246   2.535  0.2562 -0.0347  0.2497
28455W        W46659  13.715   8.556   1.755  0.4786 -0.0939  0.1669
28456W        W46660  10.553  10.786   4.885  0.2386  0.0120  0.2704
28457W        W46661   3.823  16.775   3.408 -0.1083 -0.2217 -0.0586
28458W        W46662   4.715  10.660  14.292 -0.1070 -0.2413 -0.2645
28459W        W46663   8.572  12.759   2.706  0.1074 -0.0198 -0.1142
28460W        W46664   4.589   0.904   4.768  0.0551 -0.0551 -0.1127
28461W        W46665  11.013   4.194   2.807 -0.1531  0.0765 -0.0723
28462W        W46666   2.813  17.098   3.658 -0.0588 -0.0719 -0.0289
28463W        W46667   9.101  16.610  11.762  0.3239  0.2891 -0.0313
28464W        W46668  16.805  10.948   0.887 -0.2915 -0.1144 -0.0460
28465W        W46669  16.203  16.945  12.696  0.1365  0.4543  0.4000
28466W        W46670  16.860  12.537  14.365 -0.2035  0.0484  0.1712
28467W        W46671   0.859   7.092  14.550  0.2835 -0.1289  0.0471
28468W        W46672   5.205   1.125  13.659 -0.0555 -0.0161  0.2366
28469W        W46673   7.487   7.755  16.146 -0.1401  0.3173 -0.1282
28470W        W46674  13.678  17.235  12.684  0.4468 -0.1203  0.0003
28471W        W46675  17.285  14.403   1.775 -0.1694  0.3335 -0.1670
28472W        W46676   8.051   7.517   3.087  0.2053  0.0364  0.5116
28473W        W46677   0.008  18.042  16.123  0.0808 -0.2537  0.6169
28474W        W46678  10.669   2.760  12.940 -0.1573 -0.0268  0.3428
28475W        W46679   4.662   7.018  13.661 -0.0296 -0.2102 -0.1463
28476W        W46680  17.566   6.102   5.470  0.2902  0.0149 -0.1899
28477W        W46681   9.995   4.084  14.651  0.2951 -0.1499 -0.2917
28478W        W46682  13.919   2.574  14.050 -0.0142 -0.0452 -0.3112
28479W        W46683   5.120  16.751   2.525 -0.1305 -0.1451 -0.0147
28480W        W46684   6.423   4.610  12.035  0.0745 -0.2413  0.3842
28481W        W46685   9.440   0.760   0.098 -0.1122  0.2078 -0.2732
28482W        W46686   3.917   4.457  14.971 -0.1660 -0.1583 -0.3434
28483W        W46687   2.654  13.044   1.539  0.1565  0.2782 -0.2677
28484W        W46688  16.126  12.082  11.346  0.2339  0.4815 -0.3409
28485W        W46689   1.079  11.362   0.492 -0.0123  0.0869  0.0155
28486W        W46690  14.919  13.782   0.944  0.0856  0.0026  0.0851
28487W        W46691   2.007   6.591  15.178 -0.0456  0.0240 -0.0326
28488W        W46692   4.926  10.281  14.702  0.1105 -0.0165 -0.2853
28489W        W46693   5.685   9.627  15.615  0.0836 -0.0651 -0.1265
28490W        W46694  13.657  11.462  14.850  0.0342 -0.0527 -0.1148
28491W        W46695   6.408   0.533   1.708  0.0206  0.2753  0.2175
28492W        W46696   2.581  12.017  11.696 -0.2289  0.0688 -0.0077
28493W        W46697   6.282   9.976  14.532 -0.4280  0.0569 -0.2537
28494W        W46698   9.470  10.171  16.104 -0.0143 -0.1370  0.3480
28495W        W46699  15.343  14.899   1.164 -0.1858  0.3082 -0.2931
28496W        W46700  13.301   7.572  13.310 -0.4758  0.2068  0.1426
28497W        W46701  12.398   9.250  12.639 -0.2456 -0.0231  0.0622
28498W        W46702   6.318   6.488  11.179 -0.1611  0.1013  0.1852
28499W        W46703   4.855   0.295  15.603 -0.0902  0.1926 -0.0909
28500W        W46704   7.033   6.217   0.893 -0.0811 -0.1072 -0.0675
28501W        W46705  10.335  15.254  11.593  0.0436  0.0514 -0.0842
28502W        W46706  14.319   5.820  11.446 -0.0197 -0.0403  0.0304
28503W        W46707  12.245  15.544  16.012  0.2283  0.0898  0.1456
28504W        W46708   9.850   7.083   5.197  0.1294  0.0993 -0.1641
28505W        W46709  11.020  10.134  13.935 -0.0272  0.3012  0.1019
28506W        W46710   2.388   1.611  12.890 -0.0080 -0.0659 -0.1139
28507W        W46711   9.551   9.264   0.807 -0.1949 -0.2347  0.0360
28508W        W46712  11.604  15.878  14.315  0.0345 -0.1060 -0.2820
28509W        W46713   2.300   6.203  15.462  0.2172  0.3360 -0.0289
28510W        W46714   6.386  14.714   0.886  0.2749 -0.2389 -0.0843
28511W        W46715  14.913   3.894  13.979  0.0205  0.0230 -0.2359
28512W        W46716   7.792  14.223   0.741 -0.0794  0.0257 -0.3366
28513W        W46717   4.570  14.357   0.649  0.0389 -0.2459 -0.1209
28514W        W46718  15.106  10.164  13.960  0.0649 -0.1409  0.0909
28515W        W46719   4.399  11.726   2.119 -0.0842 -0.0353 -0.0837
28516W        W46720  15.657  11.139   2.845 -0.3092 -0.0313 -0.0254
28517W        W46721   8.199   8.112   3.679  0.2171 -0.1637  0.0092
28518W        W46722  15.183   0.735  11.449 -0.0506  0.0741  0.0222
28519W        W46723   5.060   2.971   4.171 -0.0577  0.1332 -0.1134
28520W        W46724  12.478   3.852  14.620 -0.0066 -0.3544 -0.2070
28521W        W46725   3.243   2.805   3.437  0.1776  0.0725 -0.2241
28522W        W46726  17.137  13.132   0.734  0.0368  0.0830 -0.2243
28523W        W46727  13.273   3.000   0.146  0.3248  0.0159 -0.1455
28524W        W46728  13.550   7.135   1.851 -0.2896 -0.1756 -0.2568
28525W        W46729   6.958  14.437  13.320 -0.0803  0.0017 -0.0405
28526W        W46730  14.513   4.748  12.487 -0.2779 -0.3425  0.3268
28527W        W46731   8.186   8.973   1.039  0.0205 -0.0388  0.0707
28528W        W46732  10.448  13.539  13.240  0.0574 -0.0288  0.1542
28529W        W46733  16.853  10.484  16.079 -0.1686 -0.4392  0.0048
28530W        W46734   7.745  14.620  11.682 -0.1923 -0.0351 -0.0063
28531W        W46735   8.439  10.487  10.964  0.2242  0.0713 -0.0395
28532W        W46736   5.724  10.103   4.208 -0.1104 -0.0359  0.1509
28533W        W46737  12.106   4.062   1.468  0.2508 -0.3456  0.0267
28534W        W46738  13.976  15.730  12.528 -0.0731 -0.0128 -0.0967
28535W        W46739   2.445  16.442   0.897  0.2605 -0.1534  0.1918
28536W        W46740  15.146  10.807   0.587 -0.0970  0.4321 -0.2125
28537W        W46741   7.202   5.097  15.261 -0.1109 -0.1166  0.1264
28538W        W46742   4.352  17.624   4.418 -0.1837  0.0204  0.1047
28539W        W46743   8.119  15.995  12.726  0.2765  0.2480 -0.2570
28540W        W46744   1.547   9.356   5.088 -0.1386  0.1220 -0.1826
28541W        W46745  15.494   1.723   4.068  0.2139  0.2302 -0.0921
28542W        W46746   3.368   2.510  14.658  0.3112  0.0251 -0.2753
28543W        W46747   4.520   9.229  13.428 -0.0840 -0.0175 -0.2653
28544W        W46748   2.156   2.266   1.871 -0.1422  0.0455  0.1176
28545W        W46749  17.950  11.268  13.871 -0.2451  0.0635  0.0181
28546W        W46750  14.236  16.872  11.222  0.2835  0.0107 -0.0689
28547W        W46751  10.466  11.793   4.801 -0.1439  0.1804  0.1923
28548W        W46752  15.241  15.171  10.809  0.0819  0.0804 -0.3440
28549W        W46753  10.877   0.004  10.144  0.2483 -0.1821  0.1207
28550W        W46754   0.347   8.781  12.317 -0.1663  0.1816 -0.0357
28551W        W46755  12.519   2.392  14.071 -0.0731  0.0128 -0.2287
28552W        W46756  17.980   8.855  11.996 -0.1493 -0.0783 -0.2770
28553W        W46757   5.356  12.846   4.307 -0.2219 -0.1050  0.0014
28554W        W46758  14.649  15.321   0.096  0.0988 -0.0140 -0.0565
28555W        W46759   1.631  12.651   0.588 -0.1826  0.1233 -0.0774
28556W        W46760   3.804  15.303  11.628  0.2176  0.0215  0.0361
28557W        W46761  10.145  14.540  15.156 -0.0035 -0.1106 -0.1623
28558W        W46762   4.580  13.404   4.412 -0.0127 -0.0487  0.1461
28559W        W46763   1.898   7.639  14.340  0.0737  0.3246  0.3668
28560W        W46764   7.090   1.163  11.752  0.0631  0.2853  0.2014
28561W        W46765   1.281   5.775   3.236  0.1253 -0.5258  0.4663
28562W        W46766   1.773   2.282   4.726  0.0508 -0.2674  0.1921
28563W        W46767   9.841   6.859   4.648  0.0634 -0.0837  0.0925
28564W        W46768  10.867   9.900  14.533  0.0945 -0.1663  0.0690
28565W        W46769  17.536   9.452   2.161  0.0009  0.3328  0.1765
28566W        W46770  16.532   1.742   0.463 -0.1223  0.0826  0.2160
28567W        W46771   2.997  12.405  14.761  0.1033  0.0448 -0.2736
28568W        W46772  12.529  10.763   1.756  0.3700  0.1832 -0.0949
28569W        W46773  16.214  17.940  15.953  0.0414  0.0165  0.0313
28570W        W46774  13.307  12.977  11.943  0.0786 -0.0611 -0.1050
28571W        W46775   7.673  12.612  15.667  0.1863 -0.2092  0.0112
28572W        W46776   6.988   9.157   0.953 -0.0447 -0.0751  0.2851
28573W        W46777   6.518  12.095  11.627 -0.3992  0.0697 -0.2208
28574W        W46778  11.666  12.384  13.179 -0.1426  0.2879 -0.0146
28575W        W46779  14.104  16.490   3.714 -0.1929 -0.0859 -0.1250
28576W        W46780  12.198   2.837  11.598  0.1061 -0.2535 -0.0750
28577W        W46781   2.335  12.437  11.528  0.0493 -0.0204 -0.2189
28578W        W46782  16.941   8.092  15.097 -0.0101  0.1524  0.0853
28579W        W46783   7.637  17.952   3.582  0.0727  0.3781  0.0585
28580W        W46784  17.179   9.642   4.883  0.2724 -0.1635 -0.3133
28581W        W46785   4.532   7.579   2.398 -0.0847 -0.1832 -0.1136
28582W        W46786   9.365   5.291  13.080  0.0759  0.1845 -0.0490
28583W        W46787  10.523  12.049   3.100 -0.0340  0.0696 -0.0288
28584W        W46788   5.846   9.898   0.160  0.0355 -0.2206  0.1224
28585W        W46789   2.823   3.801   1.934 -0.0898 -0.0477 -0.1959
28586W        W46790   8.754   1.334  12.317 -0.1282  0.0734  0.1082
28587W        W46791   9.316   5.701   4.867  0.1443  0.1927  0.0141
28588W        W46792   7.489  14.328  12.088 -0.1545  0.0957 -0.2260
28589W        W46793  13.534   2.415  11.895 -0.3050  0.0441  0.0835
28590W        W46794   5.891   6.943   4.873  0.1584  0.2041  0.4646
28591W        W46795   0.548  11.304   2.479  0.2467 -0.0739 -0.2061
28592W        W46796  14.951  10.825  12.387  0.1280 -0.1196  0.0089
28593W        W46797  16.122   9.319  12.663  0.1636  0.0391  0.1001
28594W        W46798   5.723   5.521   0.522 -0.1401  0.1938  0.2305
28595W        W46799   2.635  11.307  13.340 -0.1421  0.0244 -0.0162
28596W        W46800  14.381   4.150  14.469 -0.1766  0.1826  0.1248
28597W        W46801  12.867   2.919  11.137  0.5090  0.1010 -0.0291
28598W        W46802   9.174  10.274  13.515  0.0570  0.1764 -0.1334
28599W        W46803  13.967   5.999  15.142  0.1521  0.1358  0.1198
28600W        W46804  12.954   7.359   2.886  0.1646  0.1198 -0.1669
28601W        W46805   7.322   8.564   1.328  0.2383  0.0689  0.1562
28602W        W46806   2.597   6.226   4.222 -0.0624  0.0120 -0.3523
28603W        W46807   3.797  11.836  14.686 -0.2612 -0.0985  0.1584
28604W        W46808   9.853   5.517  15.727  0.0597  0.0502 -0.0688
28605W        W46809   8.065   4.488   3.941 -0.1189 -0.0157 -0.1296
28606W        W46810   3.331   6.468   2.279  0.0930  0.2115 -0.0138
28607W        W46811  11.658  14.021  13.895  0.2673  0.0327 -0.0918
28608W        W46812  10.038   0.125   0.503  0.0672  0.1873  0.1085
28609W        W46813   2.818   9.398   3.623  0.0909  0.1590 -0.1280
28610W        W46814   9.928  12.510   2.535 -0.3360  0.0115  0.2746
28611W        W46815   8.203  13.113  11.539  0.1860 -0.1033 -0.1102
28612W        W46816   1.273  10.473   1.179 -0.3546 -0.0581 -0.1668
28613W        W46817  17.285   2.246   1.643 -0.0090 -0.1113  0.0506
28614W        W46818   3.146   2.486   4.967 -0.3813 -0.2336  0.0540
28615W        W46819   4.630  17.576   0.044 -0.0907  0.0605  0.0537
28616W        W46820   3.715   7.907   3.347  0.0003 -0.2231 -0.0456
28617W        W46821  16.624  13.221   4.413 -0.0472  0.5807 -0.1562
28618W        W46822   3.478   0.791   5.349 -0.4231  0.1642  0.0433
28619W        W46823  15.764  14.681  13.515 -0.3711  0.0216 -0.1269
28620W        W46824   1.751   4.201  13.238 -0.1340 -0.1942 -0.1219
28621W        W46825   9.283  15.733  13.980 -0.2159 -0.0610  0.0577
28622W        W46826  16.153   8.065   5.530 -0.1226 -0.1360 -0.0008
28623W        W46827  16.024  16.370   3.576  0.0225  0.2234  0.1726
28624W        W46828   3.185  15.501  13.791 -0.0112  0.0630 -0.0397
28625W        W46829  12.739   1.111   1.373  0.0931  0.1743 -0.2675
28626W        W46830   2.977  14.928  15.582  0.0881  0.0171  0.0513
28627W        W46831  12.285   6.511  13.480  0.0200 -0.1857 -0.2014
28628W        W46832  15.620   6.459   3.099 -0.3046 -0.0820  0.0426
28629W        W46833   8.169  13.437   2.815  0.0473 -0.0437 -0.1843
28630W        W46834   0.300  17.673  15.508  0.1382  0.0874 -0.0076
28631W        W46835   7.979   6.077  12.257  0.2520  0.1162  0.2819
28632W        W46836  16.197  17.274   3.684 -0.2215 -0.2477  0.0429
28633W        W46837  14.713  15.070   2.293  0.0707 -0.1273 -0.0015
28634W        W46838   5.267  11.537  10.558  0.0347 -0.2835  0.2981
28635W        W46839   7.076   9.983  11.406  0.1642  0.2339  0.0048
28636W        W46840   4.895  10.543  12.785 -0.0468  0.0759 -0.0139
28637W        W46841  11.247   0.700   0.343 -0.0245 -0.2116 -0.1136
28638W        W46842  16.377   2.410  14.945 -0.0529 -0.0691 -0.0812
28639W        W46843  13.905   9.328   3.864 -0.0426  0.0390  0.3888
28640W        W46844   4.653  16.057   2.491  0.2104 -0.0660 -0.0909
28641W        W46845   3.345  12.872  15.094  0.1818  0.2335  0.1086
28642W        W46846   5.520   6.150   3.007 -0.1242 -0.0409  0.0407
28643W        W46847  11.987  12.596  14.888 -0.2335 -0.3438 -0.0728
28644W        W46848   0.962   0.613   1.823 -0.0938  0.2654 -0.2954
28645W        W46849   5.483   9.201  13.769  0.2493 -0.1914 -0.2252
28646W        W46850   1.031  14.919   4.097 -0.0631 -0.0202  0.2166
28647W        W46851  11.251  10.040   0.142 -0.0759 -0.0461  0.3075
28648W        W46852  11.287  17.945  15.663  0.0100 -0.0061 -0.0639
28649W        W46853   9.000  16.259   2.888 -0.3783 -0.0497 -0.1708
28650W        W46854   0.006  11.253   0.111 -0.0241 -0.0897 -0.1030
28651W        W46855  13.786  17.659  15.060 -0.1032 -0.0736 -0.0175
28652W        W46856   5.507  12.954   2.141  0.2988 -0.0730 -0.2313
28653W        W46857   2.793  13.239   4.325 -0.3592 -0.3056  0.0028
28654W        W46858   1.860  17.439   5.327  0.1124  0.0294 -0.1247
28655W        W46859   6.917   4.037  15.100 -0.0145 -0.1026 -0.0218
28656W        W46860  15.619  15.177  11.087  0.2904  0.2351 -0.1509
28657W        W46861   3.713   7.491   1.123 -0.1471 -0.1929 -0.2574
28658W        W46862   3.437   1.272   0.255 -0.4288  0.3540 -0.0752
28659W        W46863  15.279   1.692   1.021  0.3441  0.3308  0.1263
28660W        W46864   3.937   7.454   1.589 -0.0602 -0.0779  0.0648
28661W        W46865  13.764   1.340  12.348 -0.3286 -0.1501  0.1317
28662W        W46866  17.748  15.477   0.520  0.0067  0.3254 -0.0921
28663W        W46867   2.412  15.630   3.073  0.2205  0.3114 -0.0693
28664W        W46868   0.730  14.644   1.000  0.2495 -0.2867  0.2033
28665W        W46869   2.682   4.701  13.959  0.1378 -0.0162 -0.0600
28666W        W46870  14.313  14.820  13.633 -0.0529  0.1188 -0.2414
28667W        W46871  12.339  16.187  14.600  0.1709 -0.1217  0.0886
28668W        W46872  15.196  15.204   2.147 -0.2699  0.0746 -0.3996
28669W        W46873  13.650   5.746   2.973  0.0575 -0.0119  0.0836
28670W        W46874   9.065  11.460   1.464  0.0250  0.1133  0.3751
28671W        W46875   1.164  16.015   0.318 -0.2058  0.0238  0.2478
28672W        W46876   6.764  11.652   1.876  0.1147 -0.3747  0.2488
28673W        W46877   5.946   8.185   3.931  0.0737 -0.0202  0.0390
28674W        W46878  16.185   8.810  15.694 -0.0018  0.3466  0.1082
28675W        W46879   5.608   9.301  11.978  0.0480 -0.0351 -0.0663
28676W        W46880   9.208   6.823  15.620  0.0304 -0.0647 -0.2289
28677W        W46881   2.204  14.455  12.861  0.0540 -0.1116  0.3003
28678W        W46882   3.929   9.606  16.121 -0.2745  0.1545 -0.0235
28679W        W46883   4.278  12.673  12.897  0.0669 -0.2672  0.1222
28680W        W46884   2.783   9.015   1.168 -0.0586 -0.1496 -0.2658
28681W        W46885  11.574  13.831   3.826 -0.1331 -0.2038 -0.3656
28682W        W46886  12.275   2.757  12.190  0.0095  0.1331 -0.2710
28683W        W46887  10.891   7.542   0.145 -0.0379  0.0032  0.0406
28684W        W46888   8.963  15.879   2.378 -0.0876 -0.2866  0.2383
28685W        W46889   5.019  13.673  14.106 -0.1320 -0.4043 -0.1883
28686W        W46890   8.383  15.521   1.126  0.2315  0.0105 -0.1352
28687W        W46891   7.379   1.842  15.881 -0.0585  0.0732 -0.0121
28688W        W46892   4.821  11.688  13.930  0.1317 -0.0173 -0.1492
28689W        W46893  12.720  11.946  14.735  0.2351 -0.2614  0.2260
28690W        W46894  12.615   0.933  13.734 -0.1810  0.1014 -0.5047
28691W        W46895  14.650   9.066  12.531 -0.0799  0.0558 -0.1395
28692W        W46896  16.971   0.279  15.578 -0.4103  0.2065 -0.0942
28693W        W46897  10.319  17.429   0.246  0.0774  0.0771 -0.0321
28694W        W46898   4.966   9.593   0.083 -0.0838  0.1493  0.4085
28695W        W46899   6.783  16.535   0.656  0.1486 -0.4013 -0.0507
28696W        W46900   7.441   9.071   0.284  0.1441  0.2666  0.1041
28697W        W46901  16.628   0.075  15.141  0.1735  0.0978 -0.2656
28698W        W46902  17.528   5.506   0.902  0.0540  0.2789 -0.0449
28699W        W46903  14.915   7.692  12.613 -0.1911  0.0084 -0.2331
28700W        W46904  13.263  12.036   3.524 -0.2781  0.5038  0.2387
28701W        W46905   5.241  16.890  16.159 -0.4059  0.0896 -0.0177
28702W        W46906   1.130   8.371   5.573 -0.2161 -0.0372  0.0484
28703W        W46907  17.693   8.768   0.553 -0.1062  0.3606 -0.0762
28704W        W46908   8.612   2.353  12.460 -0.1233 -0.2230  0.0059
28705W        W46909   1.866   4.181   4.067  0.1212  0.1232  0.1460
28706W        W46910  15.130   9.108  13.691 -0.2234  0.1334  0.2584
28707W        W46911  15.542  16.171   1.432 -0.0713 -0.1344 -0.1808
28708W        W46912   5.319   8.354  14.047  0.3111 -0.0474 -0.0340
28709W        W46913  12.384   2.645   1.197 -0.2783  0.0893 -0.4350
28710W        W46914   6.353  16.027   3.609  0.0812  0.3761 -0.3538
28711W        W46915  17.619  17.103   0.287 -0.1852  0.1493 -0.0782
28712W        W46916   0.099  17.527  16.057 -0.0393  0.2245  0.0159
28713W        W46917   6.383   7.153   2.655 -0.1144  0.1699  0.2714
28714W        W46918  16.032   4.862   0.287  0.0219  0.0149 -0.2238
28715W        W46919  17.154  12.858  13.418  0.1362  0.2343  0.0618
28716W        W46920   9.890   1.475  12.106 -0.0307 -0.0780  0.0532
28717W        W46921   2.364  12.609  15.379 -0.0034 -0.0153  0.2662
28718W        W46922   7.097   7.178   0.277  0.2687 -0.1532 -0.1455
28719W        W46923   7.188   1.522  14.568  0.0088 -0.0502  0.1892
28720W        W46924   2.973   1.458   0.596 -0.1195  0.5309 -0.0450
28721W        W46925  10.501  13.665   0.462 -0.0356 -0.1970  0.3009
28722W        W46926   2.445  10.584   5.236  0.0659  0.1501 -0.0214
28723W        W46927   1.091   5.460   4.064  0.0371  0.0302 -0.0099
28724W        W46928   4.977   1.219  15.184  0.1266  0.2448  0.1390
28725W        W46929  15.844   3.628  10.701  0.1850  0.0356  0.0600
28726W        W46930  14.702  14.411   2.568 -0.1554 -0.1936  0.0583
28727W        W46931  14.594   0.699   3.669  0.0798  0.0889 -0.1408
28728W        W46932  16.931  17.747   2.367  0.0363  0.0480  0.1232
28729W        W46933  17.842  15.461   4.545 -0.1728  0.3122 -0.1013
28730W        W46934  14.495   8.661   2.679 -0.0507 -0.1701 -0.2390
28731W        W46935  14.567  10.557   3.102  0.2315  0.0604  0.0051
28732W        W46936  17.281   0.669  12.471  0.2367  0.0074  0.2313
28733W        W46937   8.422  17.735  11.732 -0.2609 -0.0871  0.1178
28734W        W46938   9.818   3.912  13.843  0.1113 -0.1688  0.0272
28735W        W46939  10.922  14.369   0.156 -0.2462  0.1582 -0.1186
28736W        W46940  13.301   7.117   3.322 -0.0417  0.1879 -0.0382
28737W        W46941  16.524   9.149   4.938  0.0497 -0.0447 -0.1818
28738W        W46942   5.328   9.350   2.730 -0.1057  0.0234 -0.0900
28739W        W46943   6.478   3.625   2.174 -0.1278  0.2776  0.0537
28740W        W46944   2.761   0.654   3.663 -0.0605  0.1611 -0.4286
28741W        W46945  17.167  10.600   1.664 -0.1933  0.0222 -0.0858
28742W        W46946  13.017   3.655   3.787 -0.2327 -0.1530 -0.1082
28743W        W46947   4.277  12.408   0.862  0.0062  0.0806  0.0458
28744W        W46948  11.186   0.344   5.025 -0.1047 -0.0704 -0.0996
28745W        W46949   7.613   5.324  16.164  0.2776 -0.0137  0.0252
28746W        W46950  16.329   9.266   3.000  0.1301  0.0276 -0.3843
28747W        W46951   3.761   5.616   2.408 -0.2505 -0.1470  0.1502
28748W        W46952   5.363   5.238   1.939  0.0984  0.0529 -0.3226
28749W        W46953   4.569   3.424  12.610 -0.0200 -0.1731 -0.2411
28750W        W46954  17.913  13.770  13.335  0.0297  0.0054 -0.1762
28751W        W46955   0.835   7.234  11.514 -0.1390  0.1158 -0.3290
28752W        W46956  14.998  14.983   0.782  0.0893  0.1441  0.0259
28753W        W46957   4.052   0.450  14.042 -0.0074 -0.0377  0.2644
28754W        W46958  15.450   9.863   1.110  0.1003  0.0496  0.1789
28755W        W46959  13.477   7.986   3.817  0.0192  0.3691 -0.2811
28756W        W46960   4.791  15.357  15.711  0.1547  0.3997  0.3204
28757W        W46961  17.614   7.318  12.142  0.0465 -0.2510 -0.2470
28758W        W46962  12.309  11.060  14.779 -0.3732 -0.2522  0.0893
28759W        W46963  15.237   3.476  13.967 -0.1620 -0.0930  0.1822
28760W        W46964   5.452   5.033   5.103  0.2910 -0.3379  0.0990
28761W        W46965  10.681  12.900  14.074  0.0133 -0.1521  0.4617
28762W        W46966   1.111  16.028  11.759 -0.0645 -0.0331 -0.0689
28763W        W46967   7.336   6.397   3.792  0.1005  0.0136 -0.1418
28764W        W46968   2.877  11.429  12.357  0.1633  0.0142  0.2518
28765W        W46969   7.418  17.893   5.694 -0.1091 -0.0121 -0.1397
28766W        W46970   0.863  16.698   3.016 -0.0254 -0.1560  0.1268
28767W        W46971  15.998  12.950  11.667 -0.1274  0.1155 -0.0644
28768W        W46972   5.153  15.486  12.286 -0.1229  0.1456  0.1076
28769W        W46973  10.854  12.025   4.647  0.1052  0.0363 -0.0816
28770W        W46974  16.743   7.724   0.884  0.0297  0.2516  0.0490
28771W        W46975   0.620   8.727  13.630  0.0014 -0.0440  0.2858
28772W        W46976  10.518   5.799   4.283  0.1082  0.0398 -0.1945
28773W        W46977   5.289   6.977  15.026 -0.0747 -0.1617 -0.2870
28774W        W46978  14.001   5.089  12.176  0.1615  0.1045  0.1976
28775W        W46979   5.747   1.187   0.264  0.0577  0.2159  0.0321
28776W        W46980  11.226  16.053  12.307  0.2459  0.0858 -0.1221
28777W        W46981   2.993   9.133   5.210  0.1039  0.1175 -0.2099
28778W        W46982  13.999  14.929   0.052 -0.2723  0.0647  0.3651
28779W        W46983   1.537  13.092  11.898 -0.3168  0.0188 -0.1285
28780W        W46984   8.769   5.473   1.736 -0.3914 -0.4124 -0.1785
28781W        W46985  12.428  10.006   1.216 -0.0945 -0.0912  0.0183
28782W        W46986   4.330  11.586  13.993 -0.1138  0.0432 -0.2526
28783W        W46987   5.347  11.667  14.824  0.0344  0.1163 -0.0803
28784W        W46988  11.962   4.143  14.527  0.1629  0.3410 -0.2387
28785W        W46989   5.656   2.998  14.612 -0.0502 -0.0643 -0.1026
28786W        W46990   3.592  13.492  10.509 -0.0179  0.1400  0.3688
28787W        W46991  12.115  17.714   0.501  0.1980 -0.0188  0.0796
28788W        W46992   8.209   9.352   0.652 -0.1812  0.0352  0.1408
28789W        W46993  16.953  11.114  11.783  0.0266 -0.0892 -0.1696
28790W        W46994   2.486   1.290  12.162  0.2478  0.1323 -0.1247
28791W        W46995  15.182   0.549  12.671 -0.1344 -0.0980 -0.0836
28792W        W46996  12.732  16.558  15.473 -0.0836  0.0409  0.0142
28793W        W46997  10.096  12.373   3.634  0.3382 -0.1427 -0.0814
28794W        W46998  11.472  12.658   4.722 -0.1515 -0.0392  0.0002
28795W        W46999   6.258   0.618  11.326  0.2511  0.3705 -0.0657
28796W        W47000   5.583   6.759   5.207 -0.0691 -0.0141 -0.0411
28797W        W47001   5.873  14.746   3.053  0.0058  0.3658  0.0097
28798W        W47002  13.885   1.118  11.130 -0.0203 -0.0903 -0.0838
28799W        W47003  14.406   6.312  13.964  0.0172 -0.2208 -0.2191
28800W        W47004   7.391   1.581   1.829  0.1952 -0.0521 -0.0110
28801W        W47005  15.445   5.082   3.492 -0.1944  0.1461  0.0455
28802W        W47006   4.051  13.769  13.977 -0.2846 -0.2551 -0.0519
28803W        W47007   5.938   8.036   1.119  0.1207  0.0300  0.3758
28804W        W47008   8.833   6.564   2.072  0.0795  0.2490 -0.0149
28805W        W47009   7.828   2.282  14.778 -0.1616  0.3437  0.1550
28806W        W47010   4.100  11.471   4.503 -0.2480 -0.2822 -0.1012
28807W        W47011   3.212   9.851   4.290  0.1125  0.0443  0.2383
28808W        W47012   5.379   6.844  15.640 -0.2350 -0.0625 -0.1507
28809W        W47013   3.575  17.601  15.052 -0.2474 -0.0375 -0.1351
28810W        W47014  15.991  16.954   0.461 -0.0906  0.1393  0.2779
28811W        W47015   9.906   4.032   3.479 -0.1662  0.0391 -0.2916
28812W        W47016   0.985   9.955  11.422  0.2382  0.0018 -0.2136
28813W        W47017   1.585   4.421   4.972  0.1249  0.0467 -0.2432
28814W        W47018   5.335   8.441   2.701 -0.1259  0.0068 -0.0380
28815W        W47019   0.174  13.243   2.106 -0.0166 -0.1865  0.2291
28816W        W47020   0.232   8.755  13.279 -0.0721 -0.0702 -0.0181
28817W        W47021  17.326  10.718  15.544 -0.0751 -0.2250 -0.2812
28818W        W47022   6.144   5.220  12.353 -0.0506 -0.1803 -0.1415
28819W        W47023   0.017  10.122   3.866  0.1443  0.0734  0.1819
28820W        W47024  11.377  11.521  14.142  0.0234  0.2606  0.0128
28821W        W47025  11.263  16.169   5.441  0.1310 -0.2969  0.0562
28822W        W47026  12.045  10.530   2.529 -0.0777  0.0324  0.0315
28823W        W47027  10.531  10.064   1.978  0.0977  0.1512 -0.2001
28824W        W47028   2.035   7.206  13.573  0.0286 -0.1563  0.1801
28825W        W47029  11.720  17.554   2.696  0.0501 -0.1369 -0.0041
28826W        W47030   0.560   7.020   1.552 -0.0914 -0.0790  0.0968
28827W        W47031   0.686   2.233   2.601  0.3536 -0.1698  0.0967
28828W        W47032   3.816  17.458   0.284  0.0342 -0.1946 -0.1641
28829W        W47033   8.661   6.972  12.020 -0.2851 -0.0940  0.2410
28830W        W47034   0.950  15.805   4.091 -0.2172 -0.0145 -0.0780
28831W        W47035   2.009   2.478   1.362 -0.1062 -0.0205  0.0132
28832W        W47036   1.645   0.886  15.600  0.1449 -0.2164 -0.2377
28833W        W47037  13.951   0.430  14.117  0.0350 -0.0499 -0.3306
28834W        W47038   7.874   6.336   1.110  0.3555 -0.3251  0.0701
28835W        W47039   1.121  12.877  11.869  0.2763  0.0873 -0.0809
28836W        W47040  14.257  11.408   2.421  0.2443  0.0111 -0.1117
28837W        W47041  11.201   9.484  15.506 -0.0995  0.0441  0.2122
28838W        W47042   4.851   7.512   0.588  0.1791 -0.1044 -0.1970
28839W        W47043  16.216   6.390   6.471 -0.0584  0.1244  0.0979
28840W        W47044   1.632  13.544  16.018  0.0366  0.1197  0.1675
28841W        W47045  12.365  16.619  11.116 -0.2250  0.3358 -0.0370
28842W        W47046   4.676  11.587  16.100 -0.2904  0.0813  0.1473
28843W        W47047   3.674  10.855  16.086  0.3485  0.0030 -0.3678
28844W        W47048  17.123  16.537  13.109  0.2386  0.1737  0.0493
28845W        W47049   3.355   1.636  10.924 -0.1226  0.0954 -0.2379
28846W        W47050  12.183   2.710  13.943  0.2238 -0.0944  0.3617
28847W        W47051   7.440  13.102   3.571 -0.0421 -0.0082  0.0458
28848W        W47052  16.699   0.550   5.392 -0.1213 -0.0590  0.4196
28849W        W47053  14.775   0.090   3.825  0.0408  0.0389 -0.1848
28850W        W47054   6.617   1.422   2.665 -0.2062 -0.0763  0.2509
28851W        W47055  11.433  12.722  15.041  0.1923 -0.0538 -0.0539
28852W        W47056   9.403   2.334   2.469 -0.4002  0.0872 -0.1799
28853W        W47057  13.529  14.135  15.752 -0.1155 -0.1855  0.1705
28854W        W47058  17.326  10.300  15.961 -0.0241  0.0889 -0.0318
28855W        W47059  17.032  11.182  15.319  0.2106 -0.0999  0.2237
28856W        W47060   5.318   8.019   4.845 -0.2621 -0.0113  0.2868
28857W        W47061   3.382   1.520  13.797 -0.0875 -0.1443  0.1018
28858W        W47062   3.977   3.857   3.957 -0.1846 -0.0371  0.0481
28859W        W47063  15.782  11.446   0.448  0.1368  0.0341  0.1668
28860W        W47064   5.176   7.440   4.807  0.0230  0.1308 -0.0511
28861W        W47065   7.965  13.101  15.606 -0.0265 -0.0631 -0.1636
28862W        W47066  14.017   4.827  12.677  0.0505 -0.0424  0.3412
28863W        W47067   9.256   9.386   3.426  0.0747  0.0724 -0.0445
28864W        W47068   2.233  14.941   3.754 -0.0697 -0.0412  0.2097
28865W        W47069  15.270   3.815  14.380 -0.0325 -0.3428 -0.0418
28866W        W47070  16.523  15.641  12.852  0.2860 -0.0844  0.1518
28867W        W47071  11.032   2.269   0.077  0.0538  0.0382  0.1556
28868W        W47072   5.466   7.786  15.188  0.0322  0.2131 -0.0729
28869W        W47073  16.182  10.692  15.173  0.1526  0.1642  0.1264
28870W        W47074   6.873   9.321   4.610  0.1032  0.1480 -0.1208
28871W        W47075   2.015   0.630  10.716 -0.0994  0.1366 -0.3593
28872W        W47076   7.700   3.287   0.804 -0.0002 -0.2000  0.1670
28873W        W47077   0.411  16.777   1.406 -0.0547  0.3102 -0.0181
28874W        W47078  16.015   7.296  15.964  0.0676 -0.2627  0.1491
28875W        W47079   3.280  11.304   2.938 -0.3370  0.0808  0.2275
28876W        W47080  10.384  13.119   1.963 -0.2169 -0.1568  0.1292
28877W        W47081  13.138  17.094   3.880  0.0209 -0.2861 -0.0639
28878W        W47082   1.615  11.871  12.467  0.1198 -0.1012 -0.0942
28879W        W47083  13.368   5.661  12.819 -0.1424 -0.4529 -0.0307
28880W        W47084  11.534  14.599   1.944 -0.1096  0.0552 -0.0544
28881W        W47085   9.896  17.148   0.413 -0.1520 -0.0562  0.1908
28882W        W47086   2.598  14.106  15.126 -0.1191 -0.0756 -0.0599
28883W        W47087  11.878  15.821  15.799  0.1179  0.1664  0.1517
28884W        W47088   8.606   8.533  16.015 -0.2666  0.0486  0.3198
28885W        W47089   7.684   7.818   4.580  0.1997 -0.1415  0.3076
28886W        W47090  13.200   6.022   1.165 -0.1334  0.0302  0.2361
28887W        W47091  17.307  13.623  16.037 -0.1566 -0.2098 -0.0688
28888W        W47092  12.604  11.122   5.402  0.1103  0.4093  0.1488
28889W        W47093  16.590  17.698   2.731 -0.1258 -0.1092  0.1799
28890W        W47094   3.688   0.808  13.298 -0.3983 -0.1882 -0.1369
28891W        W47095  17.118   1.128  12.668  0.3776 -0.2025 -0.4278
28892W        W47096   8.225   4.959  14.637  0.2965  0.2617 -0.2238
28893W        W47097  12.910  16.543   1.198 -0.0368 -0.0274 -0.2517
28894W        W47098   9.680   0.209  15.026  0.1154  0.0962  0.1947
28895W        W47099   6.912   3.995   2.060 -0.0836 -0.0692 -0.0709
28896W        W47100  12.158   7.900  15.815  0.1877 -0.0676  0.1825
28897W        W47101  13.198   4.571  14.379 -0.2088 -0.0163 -0.1180
28898W        W47102   7.194   0.214  10.678  0.2332  0.0148 -0.0235
28899W        W47103   5.047   6.508   3.622 -0.1356 -0.0285 -0.0612
28900W        W47104   5.278   2.227   4.448 -0.1930  0.0416 -0.2126
28901W        W47105   3.840   6.572  14.124 -0.1265  0.0251 -0.0923
28902W        W47106   2.798   0.358   4.210  0.0501 -0.0266  0.2867
28903W        W47107   7.227   3.940   0.141  0.0603 -0.1867  0.1002
28904W        W47108   4.275   6.323  13.728 -0.0540  0.0809  0.2485
28905W        W47109  13.497  12.826  16.164 -0.4003  0.1466 -0.2426
28906W        W47110  16.292   8.376  12.916 -0.1527  0.3497  0.2034
28907W        W47111   6.905  17.861   0.319 -0.0032  0.0481 -0.0898
28908W        W47112  16.999   6.671   0.063 -0.0915  0.0099  0.0445
28909W        W47113   2.266  14.830   0.239 -0.0536  0.1933  0.2511
28910W        W47114   4.900   9.917   0.564 -0.0058  0.0854  0.0434
28911W        W47115   7.487   4.152   2.055  0.0091  0.0158 -0.1385
28912W        W47116   0.668  15.186  14.457  0.1140  0.1975  0.2289
28913W        W47117   3.680  13.137   4.421 -0.0055  0.0403  0.1551
28914W        W47118   9.707  11.996  14.855 -0.2562 -0.1673 -0.0316
28915W        W47119  14.025   0.261  13.135  0.2460 -0.1891  0.2467
28916W        W47120  15.093  12.814   1.566  0.0505 -0.3629  0.2484
28917W        W47121   7.640  17.045  13.607 -0.2465 -0.1217  0.1508
28918W        W47122   0.369   0.855  13.249  0.0832  0.0937  0.1674
28919W        W47123  11.029   9.668   3.405 -0.2661  0.1199 -0.2524
28920W        W47124   2.838   1.524  10.817 -0.3508  0.0418 -0.0095
28921W        W47125   2.324   8.438   1.152  0.2791  0.0236 -0.3286
28922W        W47126  17.530  13.232   2.853  0.0439 -0.0785  0.1165
28923W        W47127   7.279  17.917   0.694  0.0844 -0.0471 -0.0638
28924W        W47128   3.064   3.095   2.658 -0.0328 -0.1648 -0.0351
28925W        W47129  14.142   2.283   4.209 -0.0998  0.1140 -0.3034
28926W        W47130  13.075  16.384  14.045 -0.0504 -0.1771  0.1715
28927W        W47131   6.902  15.726  14.463 -0.0260 -0.0423  0.1735
28928W        W47132   5.280  13.509  15.128  0.0093  0.2554 -0.0502
28929W        W47133  13.436   8.575  11.107 -0.2716  0.0628 -0.1802
28930W        W47134  13.656  12.272  14.346  0.4926  0.0340  0.1989
28931W        W47135  12.444  12.793  11.817  0.2464 -0.1388  0.3407
28932W        W47136   9.144  17.869   0.830 -0.1084 -0.1073  0.2278
28933W        W47137  12.371   2.931  11.150 -0.1112  0.1571  0.0279
28934W        W47138  13.421   5.189   2.244 -0.1769 -0.2680 -0.4921
28935W        W47139  11.479  13.692   0.688 -0.1106  0.1239 -0.0977
28936W        W47140   2.198  17.476   0.041  0.2295  0.0971  0.0736
28937W        W47141  15.178  11.318   2.755  0.0149 -0.1135  0.1932
28938W        W47142   6.207   6.108   4.730 -0.3333 -0.1131 -0.1859
28939W        W47143   7.383   4.567  14.271 -0.0273  0.1163  0.0550
28940W        W47144   6.761  10.152   4.061  0.2088  0.2499 -0.2579
28941W        W47145  11.187   7.197  14.042  0.1377  0.4016 -0.0566
28942W        W47146  10.360   2.295   4.855  0.1397  0.2001  0.1383
28943W        W47147   4.413   6.309   5.987 -0.1148 -0.0970 -0.1091
28944W        W47148   8.084  10.123   0.097  0.2243 -0.0039 -0.0635
28945W        W47149   7.382  14.998  11.796 -0.2321  0.0980 -0.2093
28946W        W47150   9.415  11.353   1.849  0.0243 -0.0125  0.1754
28947W        W47151  17.424  10.506   1.100  0.0232 -0.1306  0.1335
28948W        W47152   1.958   8.941  13.661 -0.0204 -0.3871  0.0991
28949W        W47153  14.074   6.139  15.896 -0.1825  0.1899  0.2574
28950W        W47154   2.459   7.104   4.853  0.1854  0.3247 -0.1677
28951W        W47155   2.905  17.357   5.387 -0.0309  0.0158 -0.1655
28952W        W47156   8.004   5.636  13.046 -0.2648 -0.1854 -0.0978
28953W        W47157   1.471   5.049  13.519  0.1063  0.4277  0.0058
28954W        W47158   8.240   4.692   2.014 -0.1700 -0.1862 -0.0805
28955W        W47159   4.630   9.169  13.993  0.2372 -0.0916 -0.2220
28956W        W47160   8.021   0.212   1.115  0.0360  0.0355 -0.1158
28957W        W47161   0.521   7.216   2.475  0.0551  0.1777 -0.0591
28958W        W47162   1.770   4.914  13.903  0.1519 -0.0619  0.2515
28959W        W47163  11.183   2.936  13.102 -0.2287 -0.1004  0.2757
28960W        W47164  15.209   4.544   0.006 -0.0103  0.1136 -0.0683
28961W        W47165   6.282  14.323   3.362  0.2070 -0.0946 -0.1993
28962W        W47166   8.749  13.250  14.141 -0.0126 -0.1467  0.0507
28963W        W47167  11.704   7.906   4.870  0.0109 -0.0098  0.2983
28964W        W47168  11.359  13.379   1.641  0.0114 -0.3066  0.1408
28965W        W47169   7.770   1.650   2.132 -0.3741  0.0176 -0.0945
28966W        W47170  10.853   4.328  14.231 -0.0206  0.0997  0.1127
28967W        W47171  10.121   2.655   0.418 -0.0421 -0.1634 -0.0852
28968W        W47172   9.855  11.598  14.665  0.1698  0.0992  0.0072
28969W        W47173   5.592  14.361  14.562 -0.0235  0.1388  0.0031
28970W        W47174   8.100   5.524  12.559 -0.2296 -0.2254  0.0102
28971W        W47175   7.323   5.743   1.815  0.2568 -0.1024 -0.1078
28972W        W47176  11.856  14.678  11.365 -0.1698 -0.1394  0.1602
28973W        W47177  13.592  10.903   2.163 -0.2129 -0.0132 -0.1590
28974W        W47178   7.990  14.544  14.531 -0.0527 -0.0738  0.3702
28975W        W47179   3.153  11.914  15.990 -0.0388  0.2442  0.0288
28976W        W47180  11.228   2.668  14.597  0.2363  0.1320 -0.1691
28977W        W47181  15.680  15.783   2.762  0.0400 -0.0886 -0.2075
28978W        W47182   5.872   3.331  13.624 -0.1337 -0.0896  0.0571
28979W        W47183  15.124   4.920   4.526  0.1902 -0.0536  0.0908
28980W        W47184   3.291   0.011   1.317  0.0433  0.3005 -0.0048
28981W        W47185   0.283   9.450   1.089  0.2155 -0.1684 -0.0258
28982W        W47186   7.636   2.624   3.513  0.4047  0.2412  0.0105
28983W        W47187   8.866  18.001  11.801  0.2528 -0.1436  0.0885
28984W        W47188  14.916  11.015  14.294  0.1531  0.2459 -0.0340
28985W        W47189  17.236  10.783  13.768 -0.1676 -0.0834 -0.0706
28986W        W47190   2.148   1.871  14.260 -0.0715  0.1453  0.0022
28987W        W47191   4.388   3.589  13.309  0.1936 -0.4325 -0.2781
28988W        W47192  14.210   8.479   1.890  0.2355  0.1802  0.0790
28989W        W47193  15.025   6.583   3.079 -0.1461  0.0696  0.0390
28990W        W47194  13.444   2.384  13.131 -0.0091  0.2126  0.0041
28991W        W47195  14.952   6.927   3.473 -0.2044  0.1993 -0.0102
28992W        W47196  14.094  12.878  14.409 -0.1116  0.1965 -0.2087
28993W        W47197  16.240   8.443  15.258  0.0390 -0.0562  0.0983
28994W        W47198  10.458   1.353   2.705  0.0806 -0.1968  0.1883
28995W        W47199   8.269  16.994  14.779 -0.0480  0.4058  0.1641
28996W        W47200  17.189   4.127   3.784 -0.0264  0.1356  0.0787
28997W        W47201   3.641  12.694  14.121  0.1486 -0.0638  0.0468
28998W        W47202   5.841  17.895   2.003 -0.1149  0.0784 -0.0572
28999W        W47203   6.860  12.364  13.696  0.2328  0.1418 -0.0535
29000W        W47204  17.820  13.605   3.018  0.0706  0.0320  0.0460
29001W        W47205   4.794   9.290   2.729 -0.0090 -0.3175  0.2285
29002W        W47206   1.647  14.990   4.846  0.1245 -0.2685 -0.0835
29003W        W47207   0.828   2.520  13.740  0.0876 -0.0747  0.0676
29004W        W47208   8.087  15.065  11.735 -0.0070 -0.0013  0.1057
29005W        W47209   4.461   6.958   5.962  0.0081  0.0784  0.1526
29006W        W47210   5.338  10.684   4.787 -0.0510 -0.1278 -0.0406
29007W        W47211   0.190  11.699   5.267 -0.0858 -0.0119  0.1913
29008W        W47212   5.425  13.705  15.591 -0.0053  0.0875  0.1181
29009W        W47213  10.486   3.280  15.635 -0.1389 -0.2035 -0.0799
29010W        W47214   4.476   8.645   2.103 -0.2627  0.0126 -0.1941
29011W        W47215   3.712   9.957   0.814 -0.2011 -0.1343  0.0577
29012W        W47216   3.558   3.294   5.049 -0.1832 -0.1892 -0.1033
29013W        W47217  17.875   7.984  11.541  0.1873 -0.0408 -0.1288
29014W        W47218  10.414  14.885  11.937 -0.3638 -0.0315 -0.1079
29015W        W47219  17.999  17.025  11.236  0.1741  0.0309  0.1872
29016W        W47220   7.135  14.465   1.845  0.1253  0.1502 -0.1344
29017W        W47221  10.423  16.647   1.924 -0.0724 -0.0209  0.3024
29018W        W47222   1.491  13.425   1.612 -0.1464  0.0791  0.2432
29019W        W47223  13.938   0.753  15.322  0.0198  0.1273  0.1223
29020W        W47224  14.435  10.740  13.530 -0.0634 -0.0909  0.0253
29021W        W47225   3.748  14.283   1.684  0.0729  0.0731 -0.0291
29022W        W47226  13.798   8.478   2.229 -0.0361  0.0039  0.1116
29023W        W47227   1.341  14.204  14.834  0.0246  0.1084 -0.3455
29024W        W47228   4.056   8.059   4.764 -0.0343  0.4211 -0.0003
29025W        W47229  15.886  14.928   0.938 -0.0428 -0.0811  0.1835
29026W        W47230   7.979   6.285   4.732  0.1472  0.0085 -0.1496
29027W        W47231  16.232   5.383   4.731 -0.1133 -0.3348  0.1289
29028W        W47232   3.692  14.398  12.501  0.1537 -0.3063  0.1337
29029W        W47233  10.252   9.683   2.133  0.0300 -0.0121 -0.0702
29030W        W47234   5.294   9.643  13.540  0.1709 -0.2148 -0.2051
29031W        W47235   8.591   4.385   3.174  0.2192  0.0068  0.0276
29032W        W47236  17.735   7.977  15.242  0.0181  0.1783  0.3088
29033W        W47237   0.310  14.830   3.572 -0.0861  0.2386  0.1994
29034W        W47238   4.525   9.986   1.012 -0.1814  0.1538 -0.2771
29035W        W47239   4.832   5.582  13.039  0.0749 -0.1906  0.0436
29036W        W47240   8.420   1.182   4.268 -0.2819 -0.2576  0.0374
29037W        W47241   4.790   6.097  13.087 -0.2151 -0.0015  0.0541
29038W        W47242   4.323  15.517   0.225  0.1500 -0.0969  0.2202
29039W        W47243   6.604   0.812   3.769  0.0903  0.4006 -0.1022
29040W        W47244  17.590   4.241  12.980  0.0801  0.1803 -0.1620
29041W        W47245  14.679  11.511   2.702 -0.2395  0.0166  0.2602
29042W        W47246   0.713  11.675  13.579 -0.0592 -0.0887 -0.1459
29043W        W47247   4.693  11.946  11.791 -0.3180 -0.1237  0.0316
29044W        W47248   2.100  16.786  12.970  0.2128  0.3139  0.0082
29045W        W47249   0.235  14.635  12.353 -0.0193  0.0929  0.1272
29046W        W47250   3.759  17.093   4.833  0.2637 -0.0979  0.0160
29047W        W47251  12.000  14.504   5.256 -0.3023  0.0709 -0.0149
29048W        W47252   2.245  15.701  10.235  0.0427  0.2672  0.1818
29049W        W47253  16.294  10.650  10.410 -0.1395 -0.2684 -0.2423
29050W        W47254   0.771  16.978  11.654 -0.1661  0.0790  0.2264
29051W        W47255  15.107  16.676   3.106  0.0503  0.2068  0.0446
29052W        W47256  12.035   7.369   1.526 -0.3386 -0.1275 -0.0909
29053W        W47257   0.227   3.195   2.014  0.3470 -0.2794 -0.1237
29054W        W47258   8.274   3.057   5.564  0.3612 -0.1436 -0.1702
29055W        W47259   6.915   4.599  12.652 -0.3111 -0.3128  0.0231
29056W        W47260   0.800  13.862  12.192  0.2035  0.0479 -0.0311
29057W        W47261  17.509  16.823  16.070 -0.3932  0.0916  0.0691
29058W        W47262  16.532  15.083   3.674  0.1669  0.0983 -0.0665
29059W        W47263  14.065   9.941  12.681 -0.2497 -0.1760 -0.2770
29060W        W47264   4.627  10.355  15.096 -0.0254  0.0712  0.1611
29061W        W47265  17.975   4.944  13.390 -0.0588 -0.0091  0.0931
29062W        W47266   8.466  11.107  13.586  0.2298 -0.3830  0.1210
29063W        W47267   3.858  15.187  15.639  0.0019  0.0039  0.0509
29064W        W47268   2.905   6.321   0.281 -0.2134  0.1242  0.0691
29065W        W47269  10.244  17.560   2.609 -0.0028 -0.0072 -0.1076
29066W        W47270   8.865   0.870  12.122 -0.2078 -0.1571 -0.1607
29067W        W47271   5.740  14.105  12.149 -0.3417 -0.3729  0.2377
29068W        W47272  15.396  15.011  12.056  0.0244 -0.0044 -0.0148
29069W        W47273   9.020  11.236   0.320  0.0762  0.2567  0.0789
29070W        W47274   7.341   3.863  15.308  0.3719  0.1313 -0.3250
29071W        W47275  11.445   5.181   0.042  0.0891  0.0997  0.0236
29072W        W47276  13.093   6.619   4.240  0.1644 -0.1370 -0.2565
29073W        W47277   2.720  12.045  13.093  0.0724  0.0922 -0.1904
29074W        W47278  14.105  12.532   4.823 -0.0295  0.0828  0.1475
29075W        W47279  10.963   5.446  13.085  0.2370 -0.1703  0.1105
29076W        W47280   0.866   9.793  14.333  0.1112  0.1433 -0.0338
29077W        W47281  10.903  15.042  11.627 -0.1297  0.0885 -0.0338
29078W        W47282   5.152   8.537   1.197 -0.5102 -0.0117 -0.0343
29079W        W47283   6.903   2.641   0.191  0.0525  0.0706 -0.0462
29080W        W47284   2.714   1.817   0.838  0.0504  0.1530  0.1531
29081W        W47285  14.522   5.253   2.267  0.0505  0.0114 -0.1932
29082W        W47286   8.311   9.792   3.879 -0.0311  0.1904 -0.2198
29083W        W47287   1.299  12.322   4.286  0.0185 -0.3106  0.2529
29084W        W47288  13.095   3.960   3.058  0.2453 -0.1064  0.1038
29085W        W47289  11.222  10.943  15.248  0.1576 -0.1474  0.0964
29086W        W47290   4.700  14.041   3.345 -0.1007 -0.0593 -0.2033
29087W        W47291  15.750   1.699  12.572 -0.1029  0.0653  0.1415
29088W        W47292   6.206   5.120   0.542  0.0296  0.2243 -0.0090
29089W        W47293  15.527  11.086  15.898  0.1985  0.2941 -0.0010
29090W        W47294   6.716   5.095   4.980  0.1836  0.0738  0.0754
29091W        W47295   5.097   0.158  12.897  0.1104 -0.2450 -0.2132
29092W        W47296   2.335  13.569  13.106  0.0688 -0.4069 -0.1429
29093W        W47297   7.762  18.000   9.840 -0.0356 -0.0124  0.0540
29094W        W47298   3.852  13.888   2.446 -0.3119 -0.1680 -0.0512
29095W        W47299   9.247   0.062  13.270  0.0941 -0.0189  0.0355
29096W        W47300   2.060   4.848   1.532 -0.0694  0.3100 -0.1566
29097W        W47301   1.131  10.390   4.158 -0.3782  0.1332 -0.0805
29098W        W47302  15.611   8.935  14.791  0.2407 -0.0504  0.0372
29099W        W47303  17.311  17.996   1.546 -0.3250  0.0782  0.0006
29100W        W47304  14.403  14.585   4.073 -0.2863 -0.1888 -0.0072
29101W        W47305  16.063   9.828  15.738 -0.2403 -0.1044 -0.0077
29102W        W47306   1.774   0.969  11.008  0.0148  0.0651 -0.0771
29103W        W47307   9.931  14.710   1.662  0.0091 -0.1315 -0.0113
29104W        W47308   3.400  12.123  14.808  0.0226  0.0022  0.0003
29105W        W47309  17.719  17.563   4.522  0.2207  0.1791  0.0784
29106W        W47310   2.219  12.948  15.042 -0.2243 -0.0943  0.2339
29107W        W47311   6.207   8.121   0.658 -0.1538  0.0126 -0.3848
29108W        W47312   8.668  16.392   4.142  0.3958 -0.0798 -0.0442
29109W        W47313  10.790   4.244  11.821 -0.2180 -0.2017  0.0390
29110W        W47314   9.081  13.823   4.739  0.0120 -0.0382  0.0171
29111W        W47315   9.423   4.994   0.898  0.0261  0.2045 -0.0321
29112W        W47316   1.200   4.303   0.284  0.1388  0.1643  0.0391
29113W        W47317  14.199  11.696   0.946  0.0301 -0.0479  0.1289
29114W        W47318   7.988   8.328  14.971  0.1890  0.0418 -0.2987
29115W        W47319   8.262   9.623  16.156  0.2262  0.0322  0.0006
29116W        W47320   8.909  18.040   2.820  0.1675  0.0147 -0.3658
29117W        W47321  17.740   3.949   4.624 -0.1209 -0.1489  0.1503
29118W        W47322  14.960  17.435  15.496  0.0831 -0.2904 -0.1662
29119W        W47323  13.519  14.174  13.887  0.0675  0.0419  0.1142
29120W        W47324  13.776  13.797  11.375 -0.0922 -0.3301  0.1183
29121W        W47325   7.987  11.714   0.137 -0.0448  0.2535  0.2019
29122W        W47326   8.820   2.312   3.018  0.0600 -0.2668  0.1358
29123W        W47327  12.941   2.541   4.673  0.0128  0.3394 -0.1425
29124W        W47328   2.535  13.701   4.228 -0.0038 -0.0853  0.1488
29125W        W47329   2.321   6.377   0.330 -0.2083  0.0105  0.3446
29126W        W47330   4.625   4.498  15.722  0.3166 -0.1839  0.1153
29127W        W47331   1.454   9.473  15.801 -0.0676 -0.2945 -0.0135
29128W        W47332   8.956   3.595   3.008  0.1602  0.1467  0.1907
29129W        W47333   1.461   9.154  13.870 -0.2891  0.2572  0.1368
29130W        W47334  12.729   4.472  15.147 -0.1072  0.0975  0.1825
29131W        W47335  13.248  14.055   2.400 -0.1018 -0.1584  0.2123
29132W        W47336  17.563   1.174  13.412 -0.0947  0.1464 -0.2622
29133W        W47337  14.153  12.159   2.241 -0.0722  0.1882 -0.0343
29134W        W47338   4.803  13.570  10.976 -0.2634  0.0934 -0.1987
29135W        W47339   2.528   3.440  11.141  0.0831 -0.0685 -0.1583
29136W        W47340  16.990   2.335   4.784  0.1039  0.0458 -0.0589
29137W        W47341  12.386   1.319   2.967  0.0427 -0.3393  0.1531
29138W        W47342   8.901  14.281  12.172 -0.1437 -0.0416  0.0459
29139W        W47343  13.775   6.530   2.367 -0.2528 -0.0947  0.1271
29140W        W47344  14.686   4.368  14.045 -0.1785  0.2140  0.0766
29141W        W47345   0.016   9.090   4.409  0.2326  0.3290  0.3710
29142W        W47346   6.515  11.733   2.303  0.0037 -0.1137  0.2418
29143W        W47347  16.083  14.774   1.858  0.1788  0.0805  0.1283
29144W        W47348   6.415  16.768  12.084  0.1446 -0.1819  0.0781
29145W        W47349  15.857  16.308  14.063 -0.1487  0.2316  0.3960
29146W        W47350   2.815   0.361  12.277 -0.2130  0.1215 -0.0768
29147W        W47351  17.196   5.503   2.675 -0.0333 -0.1033 -0.0288
29148W        W47352   6.297  10.777   1.583  0.4223 -0.0690 -0.2257
29149W        W47353   8.574   3.930  14.432  0.0163  0.1173 -0.0095
29150W        W47354   3.739   0.727  12.464 -0.0381 -0.2763  0.0405
29151W        W47355  12.336   7.790  13.604 -0.1654 -0.2366  0.0378
29152W        W47356   6.869  15.485   1.039  0.1053 -0.1239  0.0282
29153W        W47357   0.341   2.830   3.089  0.2421 -0.2109  0.0682
29154W        W47358   9.701  16.299  14.246 -0.0184  0.2839 -0.2284
29155W        W47359  15.781   7.885   0.741  0.2563 -0.0018 -0.0770
29156W        W47360   7.181   0.364  14.509  0.2128 -0.0841  0.0989
29157W        W47361   2.786   5.174  13.689  0.3294 -0.0643  0.0713
29158W        W47362  17.741   3.851  14.567 -0.2811  0.1953 -0.0139
29159W        W47363   0.705  11.976  15.008  0.0428  0.0264  0.1674
29160W        W47364  17.018   7.506   3.156  0.0667  0.0996  0.0598
29161W        W47365   8.455   3.815   0.578  0.0313  0.1604  0.0766
29162W        W47366   9.103  16.506  15.841 -0.1661 -0.1688 -0.0348
29163W        W47367  16.853   1.473  12.403 -0.0821  0.0702  0.1484
29164W        W47368  14.377   9.426  13.228 -0.0396 -0.0529  0.0291
29165W        W47369   5.622   8.260   4.534 -0.3336  0.1348 -0.0013
29166W        W47370   1.148   9.746  14.860 -0.1577 -0.1312 -0.0666
29167W        W47371  17.932  17.845   1.483  0.2950  0.0454  0.1281
29168W        W47372   4.050   1.331  15.011  0.2030  0.3798  0.0239
29169W        W47373  15.544  15.385  15.884 -0.3551  0.0202  0.2195
29170W        W47374  12.888   7.855  13.455  0.0080 -0.0991  0.0180
29171W        W47375   8.321   4.151   3.632 -0.1375 -0.0702 -0.0745
29172W        W47376   7.294   4.814   0.225  0.3550 -0.0175  0.0043
29173W        W47377   2.875   8.455  15.201  0.3627 -0.1302 -0.1717
29174W        W47378  17.419  16.980  12.535 -0.0432 -0.0676  0.0158
29175W        W47379  17.724   3.547  12.147 -0.0041 -0.1050 -0.0207
29176W        W47380   0.291  17.374   3.416 -0.3088 -0.2469 -0.0310
29177W        W47381  16.689  13.293   0.973  0.0503 -0.2003  0.1267
29178W        W47382   5.107   0.617  15.910  0.2090  0.4176 -0.2072
29179W        W47383  10.542   7.059   2.062 -0.0303  0.0613 -0.0029
29180W        W47384   9.285   7.356   2.436 -0.3722 -0.1069  0.1973
29181W        W47385  13.431  12.034  13.245  0.1347  0.1111 -0.0660
29182W        W47386  10.400   0.039  10.248 -0.1446  0.0712  0.0829
29183W        W47387   2.841   3.734  13.990  0.1702 -0.0997 -0.0504
29184W        W47388  17.499  11.899   0.126 -0.1006 -0.0002  0.1346
29185W        W47389   7.902  17.473  10.471  0.5033 -0.3631 -0.0032
29186W        W47390   1.636  16.595  14.322  0.0748  0.2213 -0.2858
29187W        W47391   9.887  16.866   3.538 -0.2968  0.2397 -0.0253
29188W        W47392   6.744   5.251   3.135 -0.1740  0.1449 -0.2721
29189W        W47393   7.292   5.770   2.305 -0.0178  0.4048 -0.2753
29190W        W47394  13.616   2.000  11.085  0.3765  0.0620 -0.0251
29191W        W47395   0.799   2.412  15.967 -0.2408 -0.0733 -0.0063
29192W        W47396   7.828   6.609  13.456 -0.1129  0.0276  0.1785
29193W        W47397   7.944   2.254   3.468 -0.3449 -0.0491 -0.1590
29194W        W47398   7.114  16.538  12.527  0.1552  0.2740  0.2538
29195W        W47399   8.854   2.616   1.548  0.0246 -0.0530 -0.2620
29196W        W47400  11.150  12.122  15.213 -0.2058 -0.1920  0.0992
29197W        W47401  16.159  14.588  11.505 -0.3826 -0.0878 -0.3336
29198W        W47402  16.793   3.826   2.018 -0.0667 -0.0397  0.0452
29199W        W47403  17.073  10.290  11.422 -0.0407 -0.0445 -0.0831
29200W        W47404   1.278  16.867   1.905  0.1236  0.0060  0.3083
29201W        W47405  11.892  16.102   2.601  0.0725 -0.1774 -0.0906
29202W        W47406  11.802  14.579  13.981 -0.0083 -0.2556 -0.0196
29203W        W47407   7.780   4.315  13.116  0.2010 -0.0413 -0.2664
29204W        W47408  12.481   8.755  12.508  0.2526  0.2592 -0.0649
29205W        W47409  11.470  13.474  13.793 -0.0726  0.2096 -0.1102
29206W        W47410   8.714  12.290  14.128  0.1186 -0.0186  0.0462
29207W        W47411  13.444  10.941   5.378  0.0934  0.1827 -0.1121
29208W        W47412  12.652  17.052  15.605  0.0173 -0.0470  0.1724
29209W        W47413  17.877   2.411  15.652 -0.1400  0.0438 -0.0619
29210W        W47414   2.496  14.493  11.057 -0.0075  0.0689 -0.0647
29211W        W47415  13.735  10.188   3.491 -0.1091 -0.2259 -0.0204
29212W        W47416   2.314   1.791  14.766 -0.2711  0.0061  0.1399
29213W        W47417   1.813   9.377   4.589  0.2465  0.0538 -0.2442
29214W        W47418   7.396   5.508   0.415 -0.3154 -0.2387  0.0106
29215W        W47419   7.619   9.841  11.571 -0.2942 -0.2206  0.3902
29216W        W47420  12.046   8.793   2.678 -0.0440 -0.0391  0.0346
29217W        W47421   2.790   1.386   1.149 -0.0916 -0.0470 -0.0606
29218W        W47422  11.359   8.944  15.104 -0.2434  0.2521 -0.5443
29219W        W47423   9.965   7.987   1.128  0.2375 -0.0356 -0.0284
29220W        W47424   0.394   9.331  15.981  0.0361  0.0853 -0.2309
29221W        W47425   6.791  14.907  13.401  0.0559  0.3276 -0.0201
29222W        W47426  15.141  17.686   2.978  0.1786 -0.5421  0.2684
29223W        W47427   7.107  16.283  15.111  0.3297  0.1879 -0.1581
29224W        W47428   7.178  13.693  12.881 -0.2991  0.0202 -0.0601
29225W        W47429  13.885  10.036  12.235 -0.3011 -0.0446 -0.0253
29226W        W47430   8.794   0.399   1.993  0.0930  0.0942 -0.1421
29227W        W47431  15.874   1.307   0.082 -0.3386 -0.0676  0.0072
29228W        W47432  11.933  17.432   3.182 -0.2474  0.2210  0.0199
29229W        W47433   8.052   6.842   3.682 -0.2510 -0.0151 -0.1749
29230W        W47434  14.562   8.185   4.859 -0.0087  0.1414  0.0554
29231W        W47435   4.725   3.527  15.498 -0.3504 -0.1903  0.0225
29232W        W47436  17.935   4.818   2.397  0.0805  0.0637 -0.1687
29233W        W47437  15.512   8.016   0.330  0.1705  0.0608  0.5120
29234W        W47438   7.521   9.627  12.880 -0.2769 -0.3009  0.0564
29235W        W47439  12.257  10.840  12.014 -0.0313  0.2633  0.3202
29236W        W47440  15.053   1.560   4.278  0.1614  0.1573 -0.3420
29237W        W47441   5.027  10.870  11.766 -0.2238 -0.1865 -0.0651
29238W        W47442  15.054  17.297  11.311  0.1735 -0.2179 -0.2825
29239W        W47443  13.351   1.999   0.070 -0.2228 -0.0949 -0.0905
29240W        W47444   5.340  16.162  12.685  0.0132 -0.0401 -0.0473
29241W        W47445  16.620  17.876  14.354  0.2264 -0.0395  0.1695
29242W        W47446   3.092   3.253   3.126 -0.0010  0.2528  0.1617
29243W        W47447  11.261   4.332  15.085  0.1396  0.2063  0.1754
29244W        W47448   7.134  16.896   0.462  0.2689 -0.1401 -0.0663
29245W        W47449  15.586   5.308   1.133  0.1225  0.0817  0.0260
29246W        W47450   7.926  12.379  12.196  0.1613 -0.4463  0.1044
29247W        W47451   6.455   7.612  12.889  0.0768  0.1104 -0.2880
29248W        W47452  10.906   4.986  13.363 -0.3679  0.2142  0.0846
29249W        W47453  10.299   5.737   0.355  0.0745  0.1536 -0.2076
29250W        W47454   2.558  14.959   4.892  0.1747 -0.0824 -0.0902
29251W        W47455  10.164   0.659  12.574  0.3169  0.4102  0.2414
29252W        W47456  14.303   4.884  13.856  0.1631  0.0607  0.0965
29253W        W47457  16.707  15.589  11.854  0.0085 -0.1143  0.0733
29254W        W47458  13.683   5.483   0.545  0.0528  0.1065 -0.2622
29255W        W47459  16.396  12.802   4.859 -0.1589 -0.1522  0.1529
29256W        W47460  12.419  12.198   1.433  0.0435 -0.0264  0.0233
29257W        W47461  14.111  11.006  13.915  0.1797 -0.1050  0.2397
29258W        W47462   3.577   0.056   4.017  0.2801  0.0893  0.0519
29259W        W47463   4.509  12.146  15.248 -0.0302 -0.1539  0.1791
29260W        W47464   3.551   3.489   0.811  0.0295 -0.0057 -0.0772
29261W        W47465   3.322   6.045  15.207  0.2099  0.0251  0.0332
29262W        W47466  17.372  10.000   0.169 -0.0956 -0.0276 -0.2432
29263W        W47467   9.273   9.688  12.621 -0.1949  0.1357 -0.1608
29264W        W47468   3.430   1.182   3.229  0.1127 -0.1113 -0.0838
29265W        W47469  11.036   1.771  14.424 -0.0338 -0.0040  0.0344
29266W        W47470  10.553  10.672  12.097  0.1977 -0.2703 -0.0245
29267W        W47471   3.251  17.778  11.796  0.1064 -0.3032 -0.0455
29268W        W47472   3.637  12.735   0.102  0.0253  0.0186 -0.1992
29269W        W47473  14.032   4.084  15.772  0.1024 -0.1320  0.2322
29270W        W47474   7.357   8.921  10.823 -0.1593  0.2775 -0.0742
29271W        W47475   4.684  15.720   1.169  0.0118 -0.1209  0.1394
29272W        W47476   3.875   6.540   1.423 -0.0594 -0.5769 -0.2238
29273W        W47477  15.009  15.230   1.302  0.0762 -0.1439  0.0294
29274W        W47478   3.510  17.554   4.771  0.0457 -0.2483  0.0047
29275W        W47479  15.296   5.053   4.040 -0.0291 -0.4056  0.0738
29276W        W47480  11.413   7.726  14.064  0.2156 -0.0121  0.0313
29277W        W47481   8.402   2.119  11.301 -0.2276 -0.2521  0.2140
29278W        W47482   9.456   1.318  12.535 -0.1209  0.0951 -0.0834
29279W        W47483  11.136  17.003  15.424 -0.0883  0.2915  0.0378
29280W        W47484  16.151  17.369  14.916 -0.0430  0.1782  0.3486
29281W        W47485   6.054   2.551  12.040  0.1080 -0.0853 -0.0376
29282W        W47486  12.999  13.442  12.813 -0.1104 -0.1250 -0.1873
29283W        W47487  10.608  14.094   2.490 -0.1976 -0.0509 -0.2079
29284W        W47488   5.958   9.047  15.110  0.0104 -0.1066  0.0053
29285W        W47489   6.437  10.144  13.962  0.0571 -0.0948  0.0292
29286W        W47490   2.548   9.236   0.034 -0.0190  0.0481 -0.1461
29287W        W47491   1.724   6.663   0.963 -0.1552  0.4204  0.0236
29288W        W47492  11.820  14.033  15.306 -0.0763 -0.0616 -0.2958
29289W        W47493   0.325  14.853   2.414 -0.0477  0.2476  0.0123
29290W        W47494  13.727  15.945   4.404 -0.1560  0.1950 -0.1559
29291W        W47495   2.200   6.652  15.605  0.0233 -0.2349 -0.1487
29292W        W47496  11.562   2.381  11.670 -0.0462 -0.0076 -0.0665
29293W        W47497  16.908   1.567  14.320 -0.1590  0.2609 -0.1470
29294W        W47498   4.410  13.090  15.984 -0.0961 -0.0408  0.0028
29295W        W47499   6.023   1.017   3.834 -0.2585  0.1153 -0.2159
29296W        W47500  17.882  13.282   1.157 -0.2393  0.2020 -0.0002
29297W        W47501  12.580   0.542   0.729 -0.0748 -0.1816  0.0551
29298W        W47502  13.331  17.955  12.992 -0.0235  0.2736 -0.0196
29299W        W47503  12.477   1.952   5.585 -0.1158  0.2323 -0.2300
29300W        W47504  15.597   6.285   2.652 -0.0032 -0.0948  0.2364
29301W        W47505   2.210   1.135  15.561  0.0881  0.0404  0.1627
29302W        W47506   6.868  14.412  15.890  0.1046 -0.3423 -0.1269
29303W        W47507   6.084  13.036  13.517  0.2037 -0.2600  0.1039
29304W        W47508  11.168  13.580   3.930 -0.0209 -0.1304 -0.2385
29305W        W47509  17.582   6.732  11.260  0.2003 -0.1504 -0.1280
29306W        W47510  14.358  13.089   2.023 -0.0894  0.0742 -0.1712
29307W        W47511  10.927   4.511   0.179 -0.2535  0.3525  0.1946
29308W        W47512  16.710  14.490  13.455 -0.2686 -0.3686  0.0688
29309W        W47513  10.540   0.128  11.033  0.0376  0.0744 -0.0553
29310W        W47514  15.856   4.939  13.617 -0.0219 -0.0901 -0.0766
29311W        W47515   5.629  11.233   0.460  0.0663  0.1812 -0.2355
29312W        W47516  17.441   6.881   4.876  0.1986 -0.0297 -0.0259
29313W        W47517   0.320  15.983   1.604 -0.0319  0.0366 -0.0771
29314W        W47518   2.321  15.951   0.882 -0.0772  0.1949  0.2899
29315W        W47519   4.836  16.286   1.862 -0.0477 -0.0161 -0.0168
29316W        W47520   7.221   9.831  10.598 -0.2343 -0.0802 -0.1663
29317W        W47521  14.705   9.580   0.057  0.1915 -0.2241 -0.0416
29318W        W47522  13.219  12.479   1.180  0.0951 -0.0311 -0.0598
29319W        W47523   0.260   4.823   1.597 -0.0625 -0.1426 -0.1072
29320W        W47524   4.247  12.479  15.590 -0.1620 -0.4437  0.2893
29321W        W47525   4.749   4.694   1.497 -0.0324 -0.4600 -0.1149
29322W        W47526   9.139  11.416   5.212 -0.0405 -0.0178  0.2560
29323W        W47527  17.841   9.279   4.893 -0.1956  0.0981  0.2472
29324W        W47528  17.324  10.709  14.318 -0.1248 -0.0824  0.0468
29325W        W47529   4.226  11.537   0.219  0.0014  0.1421 -0.0412
29326W        W47530   9.977   5.075  14.440  0.2546  0.1731  0.2191
29327W        W47531   8.126  11.788   4.764  0.1151 -0.1502  0.3851
29328W        W47532   9.744   6.349  13.265  0.0934 -0.1116  0.2410
29329W        W47533   5.865   5.302   3.033 -0.1185 -0.2507  0.0077
29330W        W47534  16.540  14.440   0.150  0.3265 -0.1265  0.4190
29331W        W47535   0.876   6.139   3.326 -0.4355 -0.0909  0.2788
29332W        W47536   8.945  10.232   3.356 -0.0287  0.2159  0.0471
29333W        W47537  13.557   1.916  11.921 -0.0233  0.2470 -0.1165
29334W        W47538   1.258   0.575   3.334  0.2383 -0.1170 -0.0922
29335W        W47539   7.042   7.580   5.524 -0.2264 -0.1234 -0.0520
29336W        W47540   4.386   4.199  13.013  0.1150 -0.0884  0.0215
29337W        W47541  11.766  15.038  15.253  0.1147 -0.0346  0.0962
29338W        W47542  16.277  16.830   1.446 -0.0360 -0.0143 -0.0375
29339W        W47543   6.094   3.797   5.237 -0.0543 -0.0435 -0.0237
29340W        W47544   5.546   5.761   4.069 -0.3772  0.0319 -0.0622
29341W        W47545  10.236   0.318   2.858  0.2472 -0.2405  0.0314
29342W        W47546   3.151   5.532   0.144  0.0034  0.0575 -0.1214
29343W        W47547   9.102  11.031   4.852 -0.0590  0.0533  0.0049
29344W        W47548  17.991   7.233   2.666  0.0263 -0.0118 -0.1874
29345W        W47549  15.915  11.248  13.297 -0.0071 -0.0864  0.0023
29346W        W47550   8.870  15.219  12.789 -0.2906  0.0002  0.0993
29347W        W47551  16.624  17.088   4.511 -0.1169 -0.3336 -0.1214
29348W        W47552  18.022  10.014  13.651 -0.0761 -0.1943  0.1065
29349W        W47553  14.254   7.330   4.889  0.1125 -0.1788  0.1061
29350W        W47554  15.357  13.273  13.485  0.0639 -0.0268 -0.0489
29351W        W47555  11.951   3.399  16.058  0.2908 -0.5124  0.2437
29352W        W47556  15.654   7.991  15.021  0.1098  0.0044 -0.0472
29353W        W47557  14.231  14.511   1.069 -0.1097 -0.1413  0.1662
29354W        W47558   1.860  10.247   1.857  0.0104 -0.0524  0.1422
29355W        W47559  18.038  14.041   0.298  0.1908 -0.0267  0.0638
29356W        W47560  11.866  16.062   2.064  0.1144  0.3969 -0.0404
29357W        W47561   5.690   2.023  14.396  0.2220  0.1750 -0.0719
29358W        W47562   2.063   4.291  10.472  0.0799 -0.0384 -0.1529
29359W        W47563  13.974  12.093  13.198 -0.1721  0.0254  0.2841
29360W        W47564  16.913   6.164  11.808 -0.0248 -0.0908 -0.5138
29361W        W47565  15.204  17.051  15.318  0.0868  0.1627 -0.1669
29362W        W47566  17.057   5.638   0.102 -0.1725 -0.3017 -0.0081
29363W        W47567   2.097   9.978  12.814 -0.1268 -0.2875  0.0990
29364W        W47568   2.945  14.172   0.635 -0.2357  0.1341 -0.1227
29365W        W47569  10.530  15.134   3.124  0.1949 -0.0820  0.2872
29366W        W47570  11.279   6.941  12.452 -0.1469  0.0936 -0.1200
29367W        W47571  14.266  10.754   1.501  0.1045  0.2060  0.0904
29368W        W47572   2.713   2.048  13.966 -0.2847 -0.1033  0.1642
29369W        W47573   9.494   6.637  14.884 -0.0887 -0.1511  0.1217
29370W        W47574  10.869  17.974  16.037 -0.0648  0.0722 -0.2640
29371W        W47575  13.020  12.064   4.446 -0.0338  0.2204 -0.0119
29372W        W47576  17.855   1.650  13.417  0.0885 -0.0917  0.0898
29373W        W47577   4.347   4.291  13.527  0.2659 -0.2789  0.1023
29374W        W47578   6.008   6.277  11.528 -0.0113 -0.2540  0.2846
29375W        W47579  16.359  12.810  10.241 -0.1073  0.2056  0.0755
29376W        W47580  12.293  15.773   0.585  0.0306 -0.2652 -0.1125
29377W        W47581  16.001   6.165   1.543 -0.2605  0.2291  0.2243
29378W        W47582   4.186   0.066  13.434  0.0743  0.1294  0.2172
29379W        W47583   6.252   4.506   4.552  0.0196 -0.2407 -0.0759
29380W        W47584   0.511   5.538  13.599  0.2847  0.1819 -0.1096
29381W        W47585  15.649  16.913   5.389  0.1399  0.0399  0.1315
29382W        W47586  17.599   4.790  12.889  0.0091  0.0774  0.0428
29383W        W47587  12.820  17.134   0.484  0.0063 -0.1767  0.3206
29384W        W47588  11.383  16.856  14.927  0.0980 -0.1674  0.1305
29385W        W47589  15.693  16.727   2.173 -0.1237 -0.2313 -0.0151
29386W        W47590   0.294  15.459  11.987  0.0339  0.2783 -0.0166
29387W        W47591   6.840   6.065  16.177 -0.0583 -0.2750  0.0849
29388W        W47592   1.953   9.460  12.885 -0.2773 -0.3198 -0.0517
29389W        W47593  12.421   5.772   0.625  0.0071 -0.1798 -0.2909
29390W        W47594   2.382  17.238  11.220 -0.1437  0.0124 -0.1081
29391W        W47595   6.795  15.078  14.045  0.0223 -0.2729 -0.2612
29392W        W47596   2.047   1.091  13.606 -0.0171 -0.0883 -0.0637
29393W        W47597   7.817  10.386  14.345  0.2063  0.0753 -0.2132
29394W        W47598   2.153   7.963  13.564  0.0274  0.0281  0.1578
29395W        W47599   2.577   2.194  14.994  0.0945  0.2650  0.0672
29396W        W47600  16.047   8.640   1.711 -0.3094 -0.1590  0.1095
29397W        W47601  17.120   2.753  16.139 -0.0554  0.1505  0.0111
29398W        W47602   7.171   6.774   3.260 -0.0405  0.2650 -0.1466
29399W        W47603   9.550   0.060  15.459  0.0238 -0.0443 -0.0815
29400W        W47604  13.970   5.839   2.597 -0.0917 -0.4275  0.0670
29401W        W47605  17.397  14.851   4.565  0.2124  0.2321  0.0552
29402W        W47606  15.508  10.716  14.576 -0.1779  0.0154 -0.0113
29403W        W47607  14.994   5.603  14.139 -0.1408 -0.3243  0.0228
29404W        W47608   4.782   4.974  13.439  0.0127 -0.3184  0.2985
29405W        W47609   2.952   9.918  13.290 -0.1178 -0.3463  0.2282
29406W        W47610   5.309  10.223  12.900 -0.0132  0.0443  0.1441
29407W        W47611   7.807  12.344   3.057 -0.1434 -0.1847  0.1573
29408W        W47612   5.851   4.831  15.922  0.0478  0.0200  0.0402
29409W        W47613  11.333  12.027  15.700 -0.1582 -0.0151  0.0970
29410W        W47614   2.057   1.247  11.383 -0.0039  0.1803 -0.0432
29411W        W47615   8.113  11.371  14.607  0.2470 -0.1457 -0.0975
29412W        W47616   9.708   5.356  15.267 -0.0014 -0.1967  0.0989
29413W        W47617  12.807   6.618   2.420 -0.0477 -0.0603 -0.1301
29414W        W47618   7.742   6.051  12.933 -0.2161  0.1626  0.2518
29415W        W47619   1.946   3.079   4.217  0.4176  0.2341  0.3020
29416W        W47620   5.244   7.325  14.580  0.0782 -0.0691 -0.0426
29417W        W47621  13.575  16.181   2.275 -0.2339 -0.1496 -0.0261
29418W        W47622   8.955  11.744   2.319  0.0935 -0.2093 -0.2460
29419W        W47623   6.954   1.952   3.389 -0.0092 -0.0970  0.1375
29420W        W47624  11.056  16.924   3.643 -0.0630  0.0814 -0.0072
29421W        W47625   6.845   5.248   1.595  0.1274 -0.4163  0.0579
29422W        W47626  15.879   9.068   4.411  0.1206 -0.0434  0.0856
29423W        W47627  15.584   1.198   4.041 -0.2401 -0.1734  0.0447
29424W        W47628  13.466  14.232   4.761 -0.0803  0.1573  0.0441
29425W        W47629  17.770   4.713   4.196 -0.3222  0.0517 -0.3189
29426W        W47630   4.914   5.421  11.796 -0.0291 -0.0206  0.1016
29427W        W47631  16.002  10.613   3.291  0.3802  0.2261 -0.1196
29428W        W47632  10.878   4.790  13.966 -0.2217  0.2743 -0.0527
29429W        W47633  14.428   6.460   4.295 -0.0260  0.0870  0.0633
29430W        W47634   1.070  14.013  15.694 -0.1023 -0.2627 -0.0825
29431W        W47635  15.313  16.058  11.933 -0.0797  0.1325  0.4559
29432W        W47636   3.193   9.918   4.781 -0.1972 -0.1618  0.0721
29433W        W47637  14.447  16.558  13.737 -0.1864  0.0316 -0.1324
29434W        W47638  14.001  10.302  13.541  0.1048 -0.0241 -0.0855
29435W        W47639  11.752  17.440   1.848 -0.0754  0.1670 -0.2678
29436W        W47640   6.670   7.368  15.704 -0.3680  0.0053  0.0892
29437W        W47641  10.536  15.397  13.683  0.0505  0.1069  0.0820
29438W        W47642  16.000   8.380  16.138  0.0093  0.2061  0.1174
29439W        W47643  14.151  16.259  14.940 -0.2102 -0.1556 -0.1492
29440W        W47644   7.911  16.000  11.796 -0.3734 -0.1098 -0.0561
29441W        W47645   4.950  11.063  13.387 -0.6018  0.0490 -0.0631
29442W        W47646   9.702   6.457   1.110 -0.1764  0.1647  0.2576
29443W        W47647   4.735  15.804   2.036  0.0785  0.1511  0.2170
29444W        W47648   0.119   4.970   6.137  0.1138  0.1426  0.0189
29445W        W47649  13.407   5.699   0.098  0.1268  0.1313 -0.0330
29446W        W47650   0.965  14.249  11.941  0.1258 -0.2325  0.1576
29447W        W47651  14.814   2.686  14.794 -0.3714 -0.1316  0.3422
29448W        W47652  14.133   8.578   3.153  0.1586  0.1171  0.1334
29449W        W47653   1.468  16.322  11.942  0.1289 -0.1296  0.0013
29450W        W47654   1.126  11.471  14.389 -0.2135  0.1370 -0.2465
29451W        W47655  10.284   3.506   2.709  0.0723 -0.1143  0.0788
29452W        W47656   0.472  14.459  11.889  0.3437  0.0818 -0.1911
29453W        W47657  13.979   4.129  14.161 -0.1068  0.0781 -0.0666
29454W        W47658  14.886   7.700  15.023 -0.0391  0.2404 -0.1587
29455W        W47659  13.701   0.488  11.972 -0.2554  0.1162 -0.2730
29456W        W47660  18.034  12.779  13.684  0.1349  0.0562 -0.0797
29457W        W47661   8.714   8.508   1.617 -0.4182  0.0364  0.0165
29458W        W47662   2.330  17.583  12.036 -0.0316 -0.1177  0.3053
29459W        W47663  10.191  15.568  14.817  0.2194  0.0360 -0.1020
29460W        W47664  15.311   3.380  15.018  0.1534  0.0174  0.0333
29461W        W47665   4.457   7.002  15.162 -0.0000 -0.1767 -0.0245
29462W        W47666  14.188   8.518   1.404  0.1371  0.0587  0.0507
29463W        W47667   9.065   4.225  12.290  0.0818 -0.1480 -0.0521
29464W        W47668   3.854   6.204  11.328 -0.1749 -0.0131  0.0856
29465W        W47669   0.805  11.570  13.128 -0.0302  0.0256  0.0978
29466W        W47670   7.288  11.752   1.834 -0.3583 -0.1985 -0.0545
29467W        W47671   0.448  13.932  14.647 -0.1489  0.3472 -0.0914
29468W        W47672  13.653  12.059  11.415 -0.0001 -0.0234  0.2086
29469W        W47673  10.518   7.605  15.734 -0.0829 -0.1443  0.0305
29470W        W47674  16.520  17.470  10.369 -0.1758  0.1497  0.2392
29471W        W47675   4.999  16.737  15.742 -0.1738  0.0164 -0.0159
29472W        W47676   6.561   1.227  11.913 -0.1420 -0.2136  0.2230
29473W        W47677  12.076   7.331  14.268  0.2093 -0.0714 -0.1691
29474W        W47678  12.075   1.299  13.071 -0.1828 -0.1717 -0.0482
29475W        W47679  11.878  12.491   4.994 -0.0072 -0.1859  0.2140
29476W        W47680   5.545  10.422  13.306  0.3190 -0.0139  0.1695
29477W        W47681   1.992  15.211  11.568  0.1048 -0.2885  0.1483
29478W        W47682   5.857   4.929  14.463  0.1610  0.0173 -0.1385
29479W        W47683  17.723   9.375   4.064  0.1350  0.1668  0.1082
29480W        W47684   7.279  11.957  13.687  0.0618 -0.3807  0.1440
29481W        W47685   8.544   1.525   2.891 -0.1560 -0.0195  0.0474
29482W        W47686   9.198   1.699   3.146  0.5307 -0.2165 -0.0811
29483W        W47687   2.546   6.578  15.218 -0.0509  0.0388  0.3238
29484W        W47688   4.944   3.384  11.255 -0.2453  0.1342  0.1090
29485W        W47689   7.941  10.226   5.232 -0.0480  0.0491  0.1916
29486W        W47690   1.931  14.102   1.972  0.2340  0.0371 -0.2931
29487W        W47691   5.233   1.742  14.305  0.1075 -0.0524  0.2225
29488W        W47692  13.278   8.898   4.171  0.1526 -0.0238  0.4294
29489W        W47693   0.503   5.420   4.229  0.0636 -0.0030 -0.0889
29490W        W47694  16.933   5.295  15.433 -0.0976  0.3998  0.2333
29491W        W47695  11.297   9.346   0.573 -0.1724 -0.2072 -0.3572
29492W        W47696   7.329  17.199  15.105  0.0775  0.2770  0.1084
29493W        W47697   8.656  15.301   4.804  0.0340  0.0040 -0.2376
29494W        W47698   7.091  10.495  13.037  0.0961  0.1928 -0.1466
29495W        W47699   0.484   5.135  12.273 -0.3133 -0.1596 -0.0028
29496W        W47700   5.038  14.106  14.834  0.2098  0.3098 -0.1222
29497W        W47701  17.073  16.469   2.906  0.3987  0.1514  0.1698
29498W        W47702  16.194   6.629   4.374 -0.1625 -0.2114  0.1655
29499W        W47703   3.356   0.674  12.121  0.0473  0.1209  0.0070
29500W        W47704   0.124  11.430  15.206  0.0720  0.5703 -0.1272
29501W        W47705  14.837  14.088  14.968 -0.2762  0.2289 -0.1082
29502W        W47706   7.555  14.524   3.610 -0.1397 -0.1529 -0.2162
29503W        W47707   6.833   3.576  11.720  0.1488  0.2289  0.0069
29504W        W47708  15.577  16.217  13.524  0.0582  0.1626  0.1552
29505ION     NA47709  13.843  12.945   2.123  0.0647  0.0469 -0.0670
29506ION     NA47710  11.393   5.305   3.162  0.0710  0.0244  0.4143
29507ION     NA47711  12.352   7.180  11.923 -0.0520  0.0708 -0.0620
29508ION     NA47712  17.897   0.920  10.430  0.2801 -0.0665 -0.0661
29509ION     NA47713  17.818  16.347   5.209 -0.2660  0.0386  0.1348
29510ION     NA47714  13.665   8.165   5.834  0.0052 -0.2997 -0.0551
29511ION     NA47715  15.176  12.130   4.372 -0.0674 -0.0320  0.3415
29512ION     NA47716   1.124  10.877   4.098  0.2192 -0.2197 -0.0932
29513ION     NA47717   4.482   0.842  13.339 -0.0968 -0.2681 -0.0186
29514ION     NA47718   8.889  14.130  10.412  0.3010 -0.0208 -0.0015
29515ION     NA47719  10.720   3.034   5.769 -0.0702 -0.0940  0.1159
29516ION     NA47720   5.369   5.085  10.672 -0.0105  0.1682  0.1010
29517ION     NA47721   8.053   4.961  10.646  0.2862  0.2649  0.2483
29518ION     NA47722  10.870  10.891   0.222  0.0664  0.3395  0.0275
29519ION     NA47723   7.814  17.580  14.352  0.1220  0.1538 -0.0306
29520ION     NA47724   3.849  10.521   5.996 -0.0677 -0.1166  0.0829
29521ION     NA47725  14.738   0.825   4.591 -0.3454 -0.1609 -0.0152
29522ION     NA47726  15.137  13.668  16.109  0.3048  0.3261 -0.1322
29523ION     NA47727  11.863   1.837  13.108  0.2263 -0.0148  0.0927
29524ION     NA47728   1.190   1.831  14.533  0.1959 -0.0714 -0.1215
29525ION     NA47729   8.711   5.812  14.142 -0.0727 -0.5190 -0.0608
29526ION     NA47730  17.447   6.564   1.278  0.0514 -0.0678  0.1982
29527ION     NA47731   4.745   8.902  14.378  0.3369  0.0492 -0.0874
29528ION     NA47732   6.687  15.684   3.920  0.0893 -0.2339  0.3512
29529ION     NA47733   5.117   8.439  13.111 -0.0816 -0.2289  0.0306
29530ION     NA47734  12.644  17.173  10.608  0.2896 -0.3332  0.2997
29531ION     NA47735  11.080   4.512  10.579 -0.0701 -0.0474 -0.0372
29532ION     NA47736  16.553   7.003   2.993  0.2350 -0.3614  0.1486
29533ION     NA47737  10.266  15.071   5.343  0.3035  0.1502  0.1823
29534ION     NA47738   4.023  13.435   5.816 -0.1112  0.0560 -0.0912
29535ION     NA47739   9.804  10.731   1.353  0.0305  0.1035 -0.0038
29536ION     NA47740  15.640  17.302  10.507  0.1869 -0.1521  0.2113
29537ION     NA47741  13.805   1.948   5.522 -0.2006 -0.3624  0.3645
29538ION     NA47742   3.846  11.404  14.888 -0.1429 -0.0372  0.0849
29539ION     NA47743   1.521   5.803   3.795 -0.1100 -0.3011  0.4489
29540ION     NA47744  13.648   6.578   6.022  0.2041  0.0878  0.0668
29541ION     NA47745   7.488   2.217  10.417  0.0843 -0.3286  0.1477
29542ION     NA47746  16.950   2.316  13.687 -0.0804  0.0688  0.0240
29543ION     NA47747  17.011  12.013   5.712 -0.0358  0.2635  0.0872
29544ION     NA47748  12.097   7.107  12.914  0.1220 -0.4232 -0.4000
29545ION     NA47749   1.516   5.588   2.250 -0.2733 -0.1420  0.0276
29546ION     NA47750  13.171   2.842   0.654 -0.1435 -0.0717 -0.0333
29547ION     NA47751  15.674  12.882  10.581 -0.0741 -0.0808 -0.3050
29548ION     NA47752  11.741   2.297  10.644 -0.0397 -0.0415 -0.0198
29549ION     NA47753  10.680   8.579  14.617  0.0239  0.3967 -0.2196
29550ION     NA47754  17.900  10.667   1.238 -0.2241 -0.0912 -0.1331
29551ION     NA47755   7.277  10.096  11.994 -0.4025  0.0394 -0.0212
29552ION     NA47756  12.836   3.707  15.960 -0.0100  0.4150  0.2003
29553ION     NA47757   0.195  14.583  13.219  0.1657 -0.1803  0.0096
29554ION     NA47758   4.795   1.953  13.929 -0.1952  0.2702  0.0573
29555ION     NA47759  16.325   8.800   5.761 -0.2440 -0.2459 -0.1408
29556ION     NA47760   6.735  11.232   2.182 -0.0568  0.1133  0.4416
29557ION     NA47761  10.278  15.173  12.299  0.1110  0.1400  0.2556
29558ION     NA47762   4.428  12.960   4.246  0.1655 -0.0101  0.1506
29559ION     NA47763   1.908  11.351   4.599 -0.1018 -0.5691  0.1957
29560ION     NA47764   8.292  13.487  15.655  0.1203  0.1208  0.0155
29561ION     NA47765   7.050  12.195  13.283  0.0789  0.1040  0.1032
29562ION     NA47766  17.435  11.349   2.195  0.3369  0.2696 -0.1996
29563ION     NA47767   3.800  15.309  13.839 -0.1046  0.0790  0.0494
29564ION     NA47768  13.336   3.388   5.740 -0.3438  0.0324  0.0112
29565ION     NA47769  14.747  15.718   5.330  0.0496 -0.0749  0.0983
29566ION     NA47770  13.659   6.175   3.199 -0.0643  0.0668 -0.2990
29567ION     NA47771   3.078   7.283  16.053 -0.2499  0.0192  0.0617
29568ION     NA47772   6.259   0.735   5.360 -0.4123  0.2554 -0.0061
29569ION     NA47773  11.482  10.392  12.911  0.0753 -0.0561  0.0159
29570ION     NA47774  15.266  16.938  12.235  0.0723 -0.0352 -0.1843
29571ION     NA47775   7.757   3.775   5.478  0.0542  0.5892 -0.0593
29572ION     NA47776  13.234   4.873   3.233 -0.3578  0.1845  0.1705
29573ION     NA47777   8.798   0.516   2.881  0.2806 -0.0712  0.1082
29574ION     NA47778   4.841   0.585  10.727  0.3563 -0.1907  0.1259
29575ION     NA47779   7.072  10.126  14.373 -0.3344 -0.0641 -0.2930
29576ION     NA47780   2.991   1.111   5.480 -0.1578 -0.3795  0.1323
29577ION     NA47781  16.666   6.220  10.714 -0.1052  0.0219  0.0173
29578ION     NA47782   3.639   7.217   4.651  0.4034  0.1198 -0.0776
29579ION     NA47783   2.569  11.456  13.921 -0.0392  0.0240  0.0837
29580ION     NA47784  15.072   0.439   3.771 -0.1211 -0.1103 -0.2131
29581ION     NA47785  11.630   7.291  11.029  0.0687 -0.2204 -0.1330
29582ION     NA47786  15.929  16.460   5.557  0.0992  0.1919 -0.0751
29583ION     NA47787   2.172   0.581   5.425 -0.1502  0.0124 -0.1291
29584ION     NA47788   7.338   1.157   0.757  0.1016  0.3090 -0.0517
29585ION     NA47789   6.026   5.347  15.041 -0.0724 -0.0056 -0.1360
29586ION     NA47790  16.095  16.236   1.679 -0.3466  0.0954  0.1677
29587ION     NA47791  11.692   6.209  16.172 -0.3296  0.1533  0.1373
29588ION     NA47792  17.760  13.538   5.608 -0.2915 -0.2703  0.1426
29589ION     NA47793  14.633  13.422   2.503 -0.0419 -0.0525  0.1091
29590ION     NA47794   9.965   5.347  10.593 -0.3346  0.1509  0.0720
29591ION     NA47795   3.302   8.148  15.349  0.1979 -0.1811  0.3098
29592ION     NA47796   8.240   6.000   2.512 -0.1625 -0.2229 -0.0614
29593ION     NA47797   1.190   1.736  15.382 -0.1524  0.0852  0.0712
29594ION     NA47798   9.191  13.096   5.802 -0.0904  0.0831 -0.0826
29595ION     NA47799  14.267   6.482  11.078 -0.3085 -0.2481 -0.0669
29596ION     NA47800   9.025  15.708   5.717 -0.0840  0.0151 -0.0472
29597ION     NA47801  12.132   3.175  13.052  0.2205 -0.1039  0.2043
29598ION     NA47802   3.703  10.006  15.833  0.1824  0.1633  0.2301
29599ION     NA47803   7.709   8.274   5.903  0.0322 -0.0635 -0.2899
29600ION     NA47804   6.750   4.010   0.313 -0.2224  0.1670 -0.1171
29601ION     NA47805   9.474  13.220   0.091 -0.0311  0.0863 -0.1479
29602ION     NA47806  17.303  14.689  10.597 -0.2325  0.0332 -0.0106
29603ION     NA47807   6.147  11.089   5.873 -0.2827  0.0465 -0.0959
29604ION     NA47808  10.994  14.923  14.868  0.1224 -0.0850  0.1522
29605ION     NA47809  16.251  16.712   0.814 -0.0589 -0.2358 -0.2343
29606ION     NA47810  15.546  17.676   3.903 -0.0343 -0.0734 -0.0314
29607ION     NA47811   7.079   9.326   0.007  0.1051 -0.1920 -0.2389
29608ION     NA47812   6.613  12.704  10.764 -0.0772  0.0856 -0.0876
29609ION     NA47813   0.553  12.397  10.581  0.1209  0.0590  0.0202
29610ION     NA47814   4.276  15.794  15.051 -0.2054 -0.0082  0.3494
29611ION     NA47815  14.720   3.620   0.071 -0.2017  0.0137 -0.0868
29612ION     NA47816  11.238   8.728  13.116  0.2868 -0.1740  0.0103
29613ION     NA47817  13.483  11.333  15.778 -0.0111 -0.1477  0.0342
29614ION     NA47818   5.026  15.262  13.566  0.3196  0.2663  0.0335
29615ION     NA47819  11.505  11.685  10.917 -0.1470 -0.0162 -0.2325
29616ION     NA47820  16.496   4.225  15.191 -0.1616  0.2300 -0.2288
29617ION     NA47821  14.771  14.846   4.877  0.1367  0.0794  0.0762
29618ION     NA47822   8.838   0.802   1.719 -0.3144 -0.1536 -0.1772
29619ION     NA47823   5.543   0.202   5.303  0.2580 -0.0134  0.1180
29620ION     NA47824  14.511  15.294   2.725 -0.0895 -0.1156  0.0757
29621ION     NA47825  16.243   9.672   5.892  0.1927  0.2671 -0.4027
29622ION     NA47826   3.962   0.910   5.560  0.0647  0.0586 -0.1752
29623ION     NA47827   4.538  17.422  14.009  0.2667  0.0290 -0.0520
29624ION     NA47828  11.310  11.112   2.779  0.3644 -0.1380  0.2782
29625ION     NA47829  12.207   5.766  10.846  0.1609  0.0111  0.2787
29626ION     NA47830   1.060  17.058   4.939 -0.1893  0.1336 -0.3380
29627ION     NA47831  13.330   9.061   5.640  0.3064 -0.1396  0.0174
29628ION     NA47832   5.307   9.778  10.868 -0.0278 -0.1315  0.1373
29629ION     NA47833   1.071  12.002  13.280  0.1232  0.0216  0.1214
29630ION     NA47834   6.050  12.076   5.743  0.0069 -0.2188  0.3166
29631ION     NA47835   2.494   9.484  10.803 -0.1353  0.2286  0.0554
29632ION     NA47836   3.783  13.729   0.761  0.1110 -0.2751  0.1732
29633ION     NA47837   0.968   9.167   5.950 -0.3400 -0.2688 -0.0230
29634ION     NA47838  13.547  16.378   5.231 -0.2523  0.0802 -0.0313
29635ION     NA47839  14.333   7.594  14.384  0.0325 -0.1856 -0.0086
29636ION     NA47840   2.042  13.430   5.672  0.1553 -0.0828  0.1621
29637ION     NA47841  12.889  10.059   2.644 -0.3169 -0.2321  0.1186
29638ION     NA47842  16.159   1.469   2.355  0.0294 -0.0306 -0.1125
29639ION     NA47843  14.819  17.799  10.533  0.0134 -0.2999 -0.0032
29640ION     NA47844   8.457  15.545   3.834  0.1642 -0.1660  0.1659
29641ION     NA47845  10.429   0.754  10.285  0.1031  0.1988 -0.0903
29642ION     NA47846   1.581   1.357   0.164  0.1723 -0.1146  0.0419
29643ION     NA47847  17.923  12.740  11.290 -0.2493 -0.1012 -0.1589
29644ION     NA47848  12.366   4.556   2.846 -0.1555  0.3636 -0.2831
29645ION     NA47849   3.767   5.568  13.224  0.0890  0.0279  0.1815
29646ION     NA47850   9.105  17.307   5.534  0.2967  0.0895  0.2924
29647ION     NA47851   8.766   9.693  10.805  0.2015  0.0243 -0.2594
29648ION     NA47852   7.615   9.823   5.909  0.1940 -0.1311 -0.0527
29649ION     NA47853   2.909   4.180   5.716 -0.0026 -0.0405 -0.0397
29650ION     NA47854   9.940   2.392   3.239 -0.4159 -0.1213 -0.0120
29651ION     NA47855   1.334  16.956  14.574 -0.0678  0.2138 -0.0454
29652ION     NA47856  12.898   5.073   5.928 -0.0838  0.1230  0.1131
29653ION     NA47857   0.106  10.018  10.773  0.2096  0.0217  0.1838
29654ION     NA47858   7.564   3.662  12.224 -0.2716 -0.1691 -0.1508
29655ION     NA47859   4.184  11.114   5.438 -0.0082 -0.1440  0.0819
29656ION     NA47860  13.933   4.074   5.873 -0.0052  0.2928 -0.1375
29657ION     NA47861   5.870   8.152  10.348  0.0608  0.0902  0.0266
29658ION     NA47862   8.359  10.241  13.564 -0.0060  0.1522  0.2901
29659ION     NA47863  11.803  15.951   0.676 -0.1200 -0.0658 -0.1826
29660ION     NA47864  16.543   6.512   1.152 -0.0823  0.0382  0.0085
29661ION     NA47865   2.435   2.543   1.565 -0.1399  0.1132 -0.3510
29662ION     NA47866  12.753  13.328  10.680 -0.1281 -0.0398 -0.1883
29663ION     NA47867  11.944  12.393   5.466 -0.1268 -0.1862 -0.1634
29664ION     NA47868   3.105   2.282  12.873 -0.1767 -0.2753  0.3464
29665ION     NA47869   9.663  17.511  10.180  0.1140  0.0972 -0.3336
29666ION     NA47870  17.392   1.654  10.411  0.0485 -0.0808 -0.1903
29667ION     NA47871  12.754   0.761  10.751 -0.1485  0.0926 -0.4294
29668ION     NA47872   1.558   0.380   1.668 -0.1120 -0.1607 -0.2023
29669ION     NA47873   0.460  11.963   0.967  0.1096  0.0962  0.2237
29670ION     NA47874   3.654   4.704   5.346  0.1669 -0.2017  0.2216
29671ION     NA47875  11.339  15.113   2.072  0.0368 -0.1319 -0.0432
29672ION     NA47876   3.139   4.994  10.605 -0.1727  0.0331  0.0209
29673ION     NA47877   6.001  12.061   5.258 -0.2735 -0.0453  0.0550
29674ION     NA47878  13.542  15.795  10.191 -0.1361 -0.2330 -0.0445
29675ION     NA47879   6.864   4.388  13.652  0.0244  0.1329 -0.0638
29676ION     NA47880   1.043   2.169   5.107  0.0098 -0.0383  0.0709
29677ION     NA47881  17.625  15.497  10.303 -0.0845  0.1775 -0.0788
29678ION     NA47882   5.597  12.283  10.794 -0.0795 -0.3449  0.3868
29679ION     NA47883   1.652  14.463  10.545 -0.2027 -0.0841  0.3950
29680ION     NA47884   5.005   1.470   5.429 -0.2461 -0.1794  0.3692
29681ION     NA47885   0.509   1.310   2.381 -0.1244  0.1074  0.1932
29682ION     NA47886   8.025  11.728  15.456 -0.0204  0.2444  0.0092
29683ION     NA47887   7.274  15.035  14.821  0.0010  0.0526 -0.1966
29684ION     NA47888  10.781   1.899   5.495  0.0344 -0.0222  0.0458
29685ION     NA47889  14.859   9.405   5.700  0.0622 -0.0119 -0.0671
29686ION     NA47890   3.592  11.584  10.791 -0.2515 -0.3209 -0.0485
29687ION     NA47891   2.045   4.683   2.591 -0.0576  0.1051 -0.1078
29688ION     NA47892   9.158  15.275   2.063  0.0680  0.0981 -0.0217
29689ION     NA47893  15.824  14.126   5.405 -0.0278 -0.1480 -0.1340
29690ION     NA47894  11.264  10.726   5.533  0.2009  0.0716  0.3834
29691ION     NA47895   8.980  13.118   0.109  0.0868  0.0540 -0.0856
29692ION     NA47896  16.693  15.293  10.267 -0.0573  0.0651  0.0924
29693ION     NA47897   0.454  15.004  12.018 -0.2555 -0.2279 -0.2581
29694ION     NA47898  10.001  16.319   2.911 -0.0328  0.1250  0.0942
29695ION     NA47899   3.248  10.209   0.874  0.0184  0.1095  0.4109
29696ION     NA47900   9.297   3.719  11.542 -0.2992 -0.0736 -0.1261
29697ION     NA47901   6.403   8.028  10.249  0.1802 -0.1564 -0.1158
29698ION     NA47902  12.285   3.258   5.716 -0.3201  0.0496  0.1126
29699ION     NA47903   1.510   3.010   5.368 -0.0169  0.0838  0.2026
29700ION     NA47904  14.689   5.218  13.931  0.1931  0.0843 -0.1286
29701ION     NA47905   6.038   3.288  10.626 -0.1103  0.0646  0.2083
29702ION     NA47906   4.340   9.465  10.754  0.2307 -0.1472  0.4822
29703ION     NA47907  11.817   3.278  10.742 -0.1689 -0.0007 -0.2132
29704ION     NA47908   0.270   9.647   5.933  0.1052  0.0331 -0.0900
29705ION     NA47909  10.516   6.134  10.415 -0.1564 -0.1662  0.3228
29706ION     NA47910  17.126  12.333  14.978 -0.0901  0.3406  0.0443
29707ION     NA47911   0.026   2.931   5.512  0.2428 -0.0558  0.0730
29708ION     NA47912   0.853  10.048   2.350 -0.0927  0.1612 -0.0057
29709ION     NA47913   6.012  14.833   0.035  0.2576  0.1133 -0.1045
29710ION     NA47914  13.935  12.032  14.014  0.1183 -0.0009 -0.0954
29711ION     NA47915  17.535  11.267  12.141 -0.0036 -0.0443  0.0527
29712ION     NA47916   7.796   0.449  14.500  0.1342  0.1303  0.2394
29713ION     NA47917   8.987   5.700  15.333 -0.0243 -0.0162  0.0305
29714ION     NA47918   9.213   9.073  15.642 -0.2736  0.6226  0.1044
29715ION     NA47919   4.918   5.970   4.381  0.0170 -0.1692  0.1519
29716ION     NA47920   4.813   9.336   3.687  0.1373 -0.0804 -0.4631
29717ION     NA47921   8.148  17.404   2.842 -0.1510 -0.0680 -0.0363
29718ION     NA47922  17.153  14.214  13.280 -0.0658 -0.2117  0.2294
29719ION     NA47923  15.382   1.315  13.339  0.2624  0.0864 -0.1320
29720ION     NA47924   1.018   0.440   2.921 -0.3772  0.0358  0.2684
29721ION     NA47925   8.896   7.611   3.400 -0.0487 -0.2006 -0.1200
29722ION     NA47926  15.400   8.107  13.786 -0.1999  0.1559 -0.0263
29723ION     NA47927  15.577  13.331   4.001  0.0269 -0.1232  0.3035
29724ION     NA47928   6.168  14.425   2.807  0.0909 -0.0729  0.0193
29725ION     NA47929  12.560  13.391  12.583  0.0328 -0.0652 -0.0471
29726ION     NA47930   3.844  16.837  10.548  0.1422 -0.0544 -0.0328
29727ION     NA47931   4.230   5.577   5.569 -0.0372 -0.1571  0.0497
29728ION     NA47932  10.648  10.342   5.627 -0.0458  0.5015  0.0673
29729ION     NA47933   2.575   7.383  10.705 -0.1010  0.2866  0.0391
29730ION     NA47934   5.085   2.823  10.583 -0.0814  0.2094 -0.0489
29731ION     NA47935   4.344  17.661  12.568 -0.1869 -0.0802  0.0640
29732ION     NA47936  10.297   0.243  11.476  0.0649  0.0345 -0.2319
29733ION     NA47937  12.732  11.625  14.329 -0.0817  0.1147 -0.0853
29734ION     NA47938   8.306  13.988   0.779 -0.0055  0.3858  0.0905
29735ION     NA47939  13.629   7.866   1.254 -0.0654  0.1870 -0.1344
29736ION     NA47940   2.469  13.315   1.131  0.0327  0.3041 -0.0249
29737ION     NA47941   3.020  15.167  10.638 -0.1684  0.1044  0.0267
29738ION     NA47942  11.194  15.734  10.160 -0.2128  0.1099 -0.0850
29739ION     NA47943   4.550   2.169   2.178 -0.1571 -0.1022  0.3565
29740ION     NA47944   7.880  17.020  10.233  0.0315  0.1126 -0.1239
29741ION     NA47945   6.345  14.557  11.013  0.3425 -0.2195  0.2270
29742ION     NA47946   7.029  17.489  10.010 -0.2292  0.3228 -0.1471
29743ION     NA47947   4.359  10.082  10.878  0.0075  0.0565  0.3694
29744ION     NA47948   8.690   8.680  10.604  0.2116  0.0807 -0.1004
29745ION     NA47949  11.518  12.438   0.236  0.0302  0.1864 -0.2805
29746ION     NA47950  15.610  12.968  14.306 -0.1830  0.0505  0.0496
29747ION     NA47951   4.228  16.589   3.077  0.0297  0.1224  0.0248
29748ION     NA47952   7.909   9.276  13.769 -0.1282  0.2223 -0.1189
29749ION     NA47953  17.127  16.616  11.088  0.1162  0.0760 -0.0324
29750ION     NA47954  16.248   7.806   5.975 -0.1903  0.0910  0.3119
29751ION     NA47955  13.707   8.305   5.166 -0.0724  0.1312  0.1584
29752ION     NA47956   3.280   0.037  13.772 -0.0547  0.1586  0.0209
29753ION     NA47957  15.215  15.675   9.870  0.0338 -0.0471 -0.0331
29754ION     NA47958  10.981  15.137   4.865 -0.2681  0.1192 -0.4650
29755ION     NA47959  10.183   0.199  14.127 -0.3222 -0.1109  0.1885
29756ION     NA47960  12.210   4.843  12.010 -0.0066 -0.2378  0.1289
29757ION     NA47961   3.060   4.560   0.671 -0.0069 -0.2927 -0.3253
29758ION     NA47962  10.183   1.804  15.101 -0.1400 -0.2380 -0.0392
29759ION     NA47963   2.922   9.463   5.826 -0.2091 -0.0996 -0.1174
29760ION     NA47964   3.814  11.936   0.264  0.0042  0.0154 -0.1153
29761ION     NA47965  11.208   1.549   0.172  0.1002  0.0936 -0.0880
29762ION     NA47966   1.477  15.730   1.200  0.1277  0.2575 -0.1516
29763ION     NA47967  16.922   3.684   5.630  0.3733  0.1511 -0.0981
29764ION     NA47968  11.039  16.439  15.033 -0.2990  0.1307  0.1723
29765ION     NA47969  17.237  16.737   4.102  0.4041  0.0238  0.0224
29766ION     NA47970  11.771  15.524   5.309 -0.1035 -0.3969 -0.2694
29767ION     NA47971   7.403   6.030   5.669  0.1122  0.1189 -0.0378
29768ION     NA47972  12.197  11.594   4.910  0.1020  0.3429  0.0691
29769ION     NA47973  13.008  16.418  10.205  0.0582  0.3776 -0.4327
29770ION     NA47974  12.252  11.247  14.321 -0.0022 -0.1709  0.2828
29771ION     NA47975   9.062  17.828  14.338 -0.0847 -0.0051 -0.1293
29772ION     NA47976   8.251   7.111   0.810  0.0971 -0.1537 -0.1635
29773ION     NA47977   0.497  11.500   5.722 -0.0075  0.0999  0.2905
29774ION     NA47978   4.197  11.893  12.588 -0.0161 -0.2802 -0.1016
29775ION     NA47979   7.659  13.788  14.872  0.1244  0.2268 -0.0266
29776ION     NA47980  17.591  12.438   0.797 -0.3815  0.2651  0.2438
29777ION     NA47981  10.038  11.914   2.949 -0.1976  0.1671  0.0714
29778ION     NA47982   0.952   4.189  14.182 -0.0209 -0.2787 -0.0785
29779ION     NA47983  15.541  15.330  13.743  0.0642 -0.0091  0.0132
29780ION     NA47984   3.191  11.903   3.727 -0.0609 -0.0792  0.0310
29781ION     NA47985   4.276   4.308  16.068  0.4344 -0.0720 -0.0855
29782ION     NA47986   1.702  15.428   2.563 -0.2973 -0.1599 -0.3876
29783ION     NA47987  14.074   4.842   1.649 -0.3893 -0.2555 -0.0302
29784ION     NA47988   0.408   3.566  15.250  0.1080  0.2723  0.0864
29785ION     NA47989  11.879   0.573   5.535 -0.1101 -0.1745 -0.0332
29786ION     NA47990   7.475   5.288   3.300 -0.0451  0.1391 -0.0544
29787ION     NA47991   8.958  13.066  14.530 -0.3162 -0.2905  0.2096
29788ION     NA47992  17.855   2.934   3.473 -0.0454 -0.3777 -0.0628
29789ION     NA47993   1.586   1.976  11.402 -0.0210 -0.2273 -0.0190
29790ION     NA47994  13.047  10.108  11.105  0.1922  0.2894  0.1561
29791ION     NA47995  11.387   0.895  15.456 -0.1633  0.3395  0.1346
29792ION     NA47996  11.411  16.361   2.005 -0.0123 -0.0182  0.2128
29793ION     NA47997  10.146  11.916   0.667  0.0488 -0.0962  0.0757
29794ION     NA47998   0.814  12.394   5.387 -0.0784  0.0942  0.0666
29795ION     NA47999   7.740   1.876  15.535  0.0602  0.0259  0.0087
29796ION     NA48000   7.150  10.763   4.826 -0.2997 -0.2121  0.2018
29797ION     NA48001  13.867  14.610  12.004  0.0682 -0.2286  0.1118
29798ION     NA48002  17.709  16.085  12.193  0.0120 -0.2440 -0.1251
29799ION     NA48003   2.122  10.868  10.740 -0.0134  0.3994  0.0132
29800ION     NA48004   2.947  15.503  15.463  0.3587 -0.1105  0.1726
29801ION     NA48005  11.196  16.793   5.559  0.1625 -0.2726  0.0178
29802ION     NA48006  12.088  14.145  10.610 -0.0956 -0.0839 -0.2235
29803ION     NA48007  10.699   5.515   5.773  0.0166  0.1940  0.0503
29804ION     NA48008   7.083   3.736  14.755  0.1151  0.3653  0.0485
29805ION     NA48009   1.747   0.027  11.520  0.0421 -0.0133  0.2709
29806ION     NA48010  11.376  14.618   1.035 -0.0473 -0.1328 -0.0929
29807ION     NA48011   1.723  15.953  15.632 -0.2690 -0.2086  0.1817
29808ION     NA48012  14.149  15.229  10.268  0.1311  0.0884 -0.0592
29809ION     NA48013  15.782  18.017   5.439 -0.2344 -0.1748 -0.2052
29810ION     NA48014   1.344   5.852   5.867  0.1488  0.0724  0.1151
29811ION     NA48015   1.975   6.656  10.612 -0.1296  0.1625  0.1488
29812ION     NA48016   7.901   1.773   5.432 -0.2866 -0.0700  0.0446
29813ION     NA48017   7.756  13.208   0.903  0.1041  0.3183 -0.0807
29814ION     NA48018  11.816   6.156  14.247 -0.0782 -0.1909 -0.1859
29815ION     NA48019  11.129   9.337  10.976 -0.1048 -0.2767  0.2200
29816ION     NA48020  14.497   1.278   2.132 -0.0453  0.1612 -0.2326
29817ION     NA48021   4.053   6.865  10.910  0.1009  0.0534 -0.1754
29818ION     NA48022  10.747   3.074  13.278 -0.2374 -0.0195 -0.2585
29819ION     NA48023  10.418  17.281   5.522  0.0497  0.1756 -0.0207
29820ION     NA48024  15.045   2.373  13.522 -0.1398  0.0280 -0.3037
29821ION     NA48025  10.616   6.777  14.692 -0.0800  0.0431 -0.0352
29822ION     NA48026  17.931  12.691   5.637  0.2405  0.1866 -0.4905
29823ION     NA48027  13.463   4.402   5.951  0.2609  0.0902  0.2104
29824ION     NA48028  17.967  10.824   5.842  0.1892 -0.0644  0.1222
29825ION     NA48029   0.637   3.945  10.516 -0.0930  0.0843 -0.3441
29826ION     NA48030   9.068   9.673  11.312  0.0337  0.1325 -0.0267
29827ION     NA48031  10.421  16.103   5.216  0.0768 -0.3033  0.1500
29828ION     NA48032   9.315   6.880   1.748  0.2539 -0.1160  0.0768
29829ION     NA48033   5.497   1.659  10.747  0.0793  0.0873  0.0313
29830ION     NA48034   9.208   0.905   5.504  0.2771  0.1427  0.1303
29831ION     NA48035   7.263  13.652  15.632  0.2034 -0.3425 -0.2151
29832ION     NA48036   0.762  15.273  10.999 -0.1292  0.2326  0.1279
29833ION     NA48037   0.275  17.416  13.874 -0.0531 -0.0426  0.1009
29834ION     NA48038  15.150  10.467  14.885 -0.1624  0.1724 -0.1473
29835ION     NA48039   6.852   3.123   4.308 -0.2162  0.1594  0.1434
29836ION     NA48040   7.014  11.189  11.732 -0.0617  0.1333  0.2589
29837ION     NA48041  14.671  14.244   1.149 -0.0074  0.4255 -0.2390
29838ION     NA48042  11.267  14.751   2.787  0.0706  0.2521  0.0044
29839ION     NA48043  11.516   8.013   0.837 -0.0619 -0.1905  0.0532
29840ION     NA48044   3.556  12.534  10.638  0.3076 -0.0642 -0.3021
29841ION     NA48045   3.342   3.728  10.693  0.0346  0.2009  0.0636
29842ION     NA48046   9.141   7.321   4.346  0.1178  0.0839 -0.1357
29843ION     NA48047   1.751   2.652   5.043 -0.1744  0.3835 -0.0239
29844ION     NA48048   5.400   8.912   1.487  0.0897  0.1689 -0.0365
29845ION     NA48049   8.068  15.914   5.861  0.2995  0.0176  0.0677
29846ION     NA48050  13.726   7.135  11.154 -0.0250 -0.0805  0.1582
29847ION     NA48051  13.243   6.447   0.880  0.0104  0.1838 -0.1271
29848ION     NA48052   3.826  14.969   5.253 -0.0959 -0.1849 -0.0461
29849ION     NA48053   5.574   2.723  15.004  0.2414  0.0119  0.0745
29850ION     NA48054   5.578  11.336  15.142  0.0600  0.3215  0.2915
29851ION     NA48055   1.575  12.705   5.425  0.1560 -0.2161  0.2266
29852ION     NA48056  15.648   0.659   1.572 -0.0548 -0.0926 -0.0368
29853ION     NA48057  15.273   2.185   1.046  0.2413 -0.1180  0.1328
29854ION     NA48058   0.282  11.047  10.607 -0.2709  0.1349 -0.1006
29855ION     NA48059   8.804  12.349   0.930 -0.1462  0.0852 -0.2644
29856ION     NA48060   6.675   7.387  13.846  0.1306 -0.0446  0.0051
29857ION     NA48061   8.367  15.115   6.084 -0.4286  0.0356 -0.1460
29858ION     NA48062   1.458   3.410  10.432  0.1571 -0.1603  0.0306
29859ION     NA48063  15.738   1.456  10.740  0.2593 -0.3549  0.2821
29860ION     NA48064  11.848  12.733  12.510 -0.1892 -0.2841  0.2531
29861ION     NA48065   9.481  10.195  15.135  0.0758 -0.0402 -0.2772
29862ION     NA48066   5.090  13.458  10.581 -0.2318 -0.0355  0.0979
29863ION     NA48067   6.421   0.247  11.622  0.3259  0.1471  0.2465
29864ION     NA48068  10.211   8.012   5.906  0.0283 -0.2014 -0.1719
29865ION     NA48069   8.201  11.132   4.193 -0.0224  0.1340  0.2061
29866ION     NA48070  14.857   8.654  11.072  0.0149  0.1006  0.0424
29867ION     NA48071  16.580   5.597  14.113  0.0902 -0.1025 -0.0525
29868ION     NA48072   9.155   9.583   2.167 -0.0719 -0.2008  0.1394
29869ION     NA48073   4.032   3.171   3.387  0.1828  0.1404  0.2580
29870ION     NA48074   8.247   5.527   5.721  0.0445  0.4174 -0.0669
29871ION     NA48075   7.867  16.086  15.574  0.0393 -0.4466  0.2386
29872ION     NA48076   7.595   5.634  13.280  0.0456 -0.0553  0.0321
29873ION     NA48077  15.158   6.946  11.077 -0.2212  0.0831  0.1215
29874ION     NA48078  13.203   8.478   0.085  0.2474  0.0675 -0.2466
29875ION     NA48079   9.899   9.944  11.001 -0.3391 -0.0060 -0.2411
29876ION     NA48080  14.163  12.046   5.690 -0.0114  0.2545 -0.1266
29877ION     NA48081  15.693  11.018   3.438  0.1342 -0.0205 -0.0344
29878ION     NA48082   2.462   3.308  10.692 -0.0538 -0.4154  0.3051
29879ION     NA48083   6.670   5.522   5.818 -0.1969 -0.2893 -0.0121
29880ION     NA48084  17.497  17.495  15.878  0.0715  0.0779  0.1002
29881ION     NA48085   6.982  17.312   1.933  0.1461  0.1746  0.1867
29882ION     NA48086   6.754  10.360   5.718 -0.2430  0.1790  0.1589
29883ION     NA48087   4.530   9.054  12.893  0.0637 -0.3009 -0.1474
29884ION     NA48088  15.220  17.509  13.967 -0.0074  0.0094  0.1094
29885ION     NA48089  15.530   0.505  10.460  0.0530  0.0245  0.1257
29886ION     NA48090   7.951  12.608   1.569 -0.0456 -0.0736 -0.1363
29887ION     NA48091   6.269   7.899   5.890 -0.2319  0.1197 -0.0624
29888ION     NA48092  17.574  11.663   5.837  0.1820  0.1084 -0.0606
29889ION     NA48093  14.751   8.109   5.808  0.1562  0.0405  0.2775
29890ION     NA48094  14.501  17.182  10.873 -0.0599  0.2330 -0.0807
29891ION     NA48095  13.496   1.250  13.995  0.0009 -0.1686 -0.4044
29892ION     NA48096  16.503  17.109  10.019 -0.2707 -0.2232  0.1835
29893ION     NA48097  14.162   0.364   0.579  0.0452 -0.2966  0.2491
29894ION     NA48098  12.846  16.835   5.180 -0.0786 -0.0115  0.0083
29895ION     NA48099  12.471   6.506   3.763 -0.0294  0.2680 -0.1023
29896ION     NA48100  11.794  16.391  10.016 -0.1541  0.0121 -0.1766
29897ION     NA48101   7.434   6.370  10.650 -0.1044 -0.0299 -0.2098
29898ION     NA48102   4.179   6.146   3.213 -0.0367  0.0819 -0.1532
29899ION     NA48103   7.569  12.820   3.004 -0.1741  0.2139  0.3630
29900ION     NA48104   3.930  13.824  13.464 -0.1160  0.1624  0.1786
29901ION     NA48105   8.059  10.764  10.720 -0.2231 -0.1604  0.0603
29902ION     NA48106  15.899  16.390   3.040  0.2772  0.0385  0.3906
29903ION     NA48107  14.813   3.660  11.102 -0.1559 -0.2612 -0.0985
29904ION     NA48108   7.678   2.924   1.267  0.0078  0.1835 -0.0114
29905ION     NA48109  13.035   1.385  10.489 -0.0609  0.3187 -0.2500
29906ION     NA48110   4.824   0.735   5.675 -0.0650 -0.0079 -0.0844
29907ION     NA48111   3.937  15.266   5.663 -0.2593  0.0069  0.0834
29908ION     NA48112   9.319   6.815   5.620 -0.2095  0.0473 -0.2938
29909ION     NA48113  16.178  14.347   1.568 -0.0744  0.0902 -0.1549
29910ION     NA48114   9.017  16.097  10.424  0.0800  0.1284 -0.0344
29911ION     NA48115  16.066  13.414   5.297 -0.1385  0.0372 -0.1668
29912ION     NA48116  14.560  12.222   3.057  0.1950  0.0424  0.0353
29913ION     NA48117  12.009   7.943   2.196  0.1258  0.0044 -0.0217
29914ION     NA48118  13.977  13.557  10.645  0.1059  0.1278 -0.1333
29915ION     NA48119   6.198   1.111  13.682  0.0994 -0.3130 -0.2221
29916ION     NA48120  10.518  11.697  13.220 -0.0194  0.0878 -0.0632
29917ION     NA48121  15.440  11.266   0.776 -0.2304  0.3438 -0.0635
29918ION     NA48122   4.373  15.315  11.679  0.1044  0.0655  0.4402
29919ION     NA48123  13.420   2.631  15.128 -0.0788 -0.0287 -0.0636
29920ION     NA48124  15.777  17.864  15.063 -0.0708 -0.0596  0.0134
29921ION     NA48125  16.876   3.397  10.382 -0.2316  0.0416 -0.1931
29922ION     NA48126  10.447   6.573   3.084  0.0139  0.0866  0.3621
29923ION     NA48127   0.572   8.936  14.105  0.0426 -0.1928  0.4375
29924ION     NA48128  16.863  13.885   5.441  0.1959 -0.0224  0.2129
29925ION     NA48129   3.634  11.941   5.685 -0.0172 -0.0368  0.2739
29926ION     NA48130  12.379   2.630  15.148  0.2043 -0.1429  0.0995
29927ION     NA48131   3.146   3.173   1.711 -0.1824  0.1126  0.3377
29928ION     NA48132   7.835  12.963  11.056  0.2998 -0.1057 -0.0767
29929ION     NA48133   2.350  15.404   5.240  0.1752  0.0126 -0.1738
29930ION     NA48134   1.436   4.386   1.944 -0.3143 -0.0752  0.1371
29931ION     NA48135  12.824   4.033   5.776 -0.3745  0.0776  0.0332
29932ION     NA48136  15.178  17.386   0.479  0.0690 -0.0466  0.0048
29933ION     NA48137  15.228  11.159  12.097 -0.3565 -0.1529 -0.3697
29934ION     NA48138   1.141   7.314  13.467  0.1621 -0.0378 -0.2703
29935ION     NA48139   7.098  14.633   2.805  0.0918  0.1468  0.1558
29936ION     NA48140   4.367   0.831  14.426 -0.1767  0.0207  0.3317
29937ION     NA48141   0.749   9.002  15.626 -0.1034 -0.4027 -0.1218
29938ION     NA48142   6.015  14.174   5.384 -0.1268 -0.1155  0.0364
29939ION     NA48143   2.147   5.788  10.424  0.2193  0.3867 -0.0066
29940ION     NA48144   3.321  13.909   4.714 -0.0157 -0.1190  0.3273
29941ION     NA48145   5.420   4.695  14.178  0.3081  0.1489 -0.3106
29942ION     NA48146   1.205  10.821   5.529  0.0678 -0.0818  0.2676
29943ION     NA48147   8.655  13.702   5.585  0.2445 -0.0978  0.0433
29944ION     NA48148   0.428   6.615  12.737 -0.0469 -0.2788  0.0636
29945ION     NA48149  14.846   1.821  10.705 -0.0447  0.0682  0.2942
29946ION     NA48150  12.424  10.129   5.642 -0.1914 -0.3373 -0.2848
29947ION     NA48151  16.746  10.710   4.716  0.0710  0.0002  0.2530
29948ION     NA48152  16.583   5.669   3.236 -0.0409 -0.5087  0.2496
29949ION     NA48153  17.928  13.377   1.730  0.4331  0.3435 -0.2498
29950ION     NA48154  15.342   3.192  12.706 -0.0805  0.2568  0.2166
29951ION     NA48155  13.980   2.610  16.005 -0.1757 -0.1576  0.2826
29952ION     NA48156   8.310   6.202  10.484  0.2919  0.1167 -0.2923
29953ION     NA48157   6.189  17.594  10.066 -0.1524 -0.3368 -0.2568
29954ION     NA48158   2.496  12.721   5.637  0.0307  0.1494 -0.0766
29955ION     NA48159   5.700  13.160  11.897  0.1394  0.3437 -0.2416
29956ION     NA48160   7.218   1.187   5.516  0.3088  0.3393 -0.1668
29957ION     NA48161  11.095   0.225   1.819 -0.1745  0.2269  0.0905
29958ION     NA48162  10.851  10.465  10.845 -0.0179  0.0174 -0.1125
29959ION     NA48163   5.588   8.854   3.452 -0.3033 -0.0205  0.1925
29960ION     NA48164  14.658   8.050  12.837  0.1242  0.1453 -0.2607
29961ION     NA48165  14.448   6.106  15.300  0.1054 -0.0229  0.1757
29962ION     NA48166   4.868  14.338   1.124 -0.1645 -0.2252  0.0611
29963ION     NA48167  13.786  14.471  10.471  0.1588 -0.0597  0.3427
29964ION     NA48168   5.305   1.228  14.207  0.0027  0.0229 -0.0726
29965ION     NA48169  10.238  16.201  11.998 -0.0563  0.1050 -0.1985
29966ION     NA48170   2.170   8.208  10.641  0.0221 -0.0272 -0.1171
29967ION     NA48171  16.519   9.210  14.394  0.0132 -0.0819  0.0460
29968ION     NA48172   8.877   6.518   4.876  0.4043  0.1411 -0.1009
29969ION     NA48173   0.319   2.128   1.720  0.0299  0.2120 -0.0134
29970ION     NA48174   6.325  16.151  10.090 -0.0618  0.0146 -0.2377
29971ION     NA48175   0.403   7.719  10.881 -0.0475  0.0104 -0.2357
29972ION     NA48176   9.718   4.854  11.371 -0.1265 -0.2022 -0.3088
29973ION     NA48177   3.294  14.376   5.548  0.2554 -0.2194  0.0102
29974ION     NA48178   7.314  16.630   2.403 -0.0249 -0.0680 -0.0209
29975ION     NA48179  11.955   5.765   5.412 -0.1797 -0.1419 -0.0186
29976ION     NA48180   5.514   3.169   5.369  0.0506  0.0841  0.1522
29977ION     NA48181  17.823   3.502  10.412  0.0175  0.1353 -0.1643
29978ION     NA48182   6.028   6.345   3.637  0.0909  0.2556  0.3487
29979ION     NA48183   8.556   8.876   6.049 -0.2488  0.1593 -0.1058
29980ION     NA48184   6.604   7.988  15.025  0.3253 -0.0914 -0.1108
29981ION     NA48185  15.299   5.719   6.094 -0.0868  0.2280  0.1653
29982ION     NA48186   6.113  14.837  14.798 -0.2066  0.1457 -0.1753
29983ION     NA48187   0.676   0.773  10.487  0.0450 -0.0280 -0.2910
29984ION     NA48188   2.118  14.452  14.947 -0.0429  0.0977 -0.0046
29985ION     NA48189   6.320   2.228   1.604 -0.0068 -0.2250 -0.0671
29986ION     NA48190   6.976   7.276  10.677 -0.1361 -0.2006  0.0133
29987ION     NA48191  16.469  11.124  10.535  0.3569  0.1073  0.1955
29988ION     NA48192   6.382  16.254  12.349  0.1450  0.1649  0.0539
29989ION     NA48193  13.311  11.689   5.667 -0.1346  0.0595  0.0231
29990ION     NA48194   2.876   2.580   4.103  0.1173  0.1417  0.0527
29991ION     NA48195   5.905  15.506   2.081 -0.1269  0.0864  0.1820
29992ION     NA48196   3.363   6.765  10.773 -0.3319  0.0075 -0.0776
29993ION     NA48197   4.643   7.442  11.080  0.0741 -0.1024 -0.1002
29994ION     NA48198  17.563   9.410  11.446 -0.0787 -0.1938  0.0425
29995ION     NA48199   1.081  16.636  10.708 -0.1521 -0.2983  0.2149
29996ION     NA48200   9.203   9.272   1.297  0.0303 -0.0740 -0.1496
29997ION     NA48201  11.490  11.544   2.129 -0.2453  0.1573  0.2067
29998ION     NA48202  13.341   9.356  10.977  0.2156  0.1760 -0.2730
29999ION     NA48203   0.855   6.915  11.058 -0.2840  0.1420 -0.1165
30000ION     NA48204  17.753  14.931   5.576 -0.1350 -0.0704 -0.2304
30001ION     NA48205   3.222   3.729   5.067  0.0643  0.1300  0.0340
30002ION     NA48206  13.312   4.379  13.204  0.0133 -0.1464 -0.1457
30003ION     NA48207   9.657  12.839  15.230  0.0210 -0.1548 -0.0605
30004ION     NA48208  13.537   4.430  10.872  0.0647 -0.0933 -0.4044
30005ION     NA48209   6.761   4.657   3.818  0.0278 -0.2573  0.0649
30006ION     NA48210  11.417   0.154  14.724  0.0241 -0.0225 -0.1684
30007ION     NA48211  13.607   6.489  14.187  0.2469 -0.0968  0.1110
30008ION     NA48212   2.578   3.831   4.367  0.1406  0.1865 -0.0688
30009ION     NA48213   9.268   9.394   5.798 -0.0269 -0.1215 -0.0275
30010ION     NA48214  12.289   7.583  15.498 -0.1170  0.0635 -0.0154
30011ION     NA48215  14.037  13.517  13.607  0.2635  0.2436 -0.2558
30012ION     NA48216   8.757  14.787  13.977 -0.1015 -0.0919  0.1485
30013ION     NA48217   2.471  12.506  10.529  0.1678  0.0433 -0.2280
30014ION     NA48218  13.012  14.922   0.109 -0.1138 -0.2409  0.1095
30015ION     NA48219   9.960   8.795  15.211  0.0232 -0.0030 -0.2074
30016ION     NA48220  12.245  12.768  14.514  0.0535  0.1861  0.1187
30017ION     NA48221  16.129   2.049  15.822 -0.0918 -0.1034 -0.1450
30018ION     NA48222  16.924  12.954   3.125 -0.2790  0.3545 -0.0589
30019ION     NA48223  10.155   4.650   4.826 -0.1121  0.0923  0.0492
30020ION     NA48224   0.009   0.819   1.648  0.1124  0.0563 -0.1949
30021ION     NA48225   0.400  13.443  11.382  0.5189  0.0330  0.1806
30022ION     NA48226  12.146   0.086  10.460  0.1476 -0.3877 -0.0268
30023ION     NA48227  12.990   8.450   1.266 -0.2359 -0.0698  0.0474
30024ION     NA48228   3.350   2.844   5.446  0.0691  0.0344 -0.0194
30025ION     NA48229   6.818  14.086  12.981 -0.0643  0.1722 -0.0851
30026ION     NA48230  12.278  10.189  11.214 -0.1391  0.0002  0.1603
30027ION     NA48231  12.657   3.748  10.856  0.1544  0.0034  0.2603
30028ION     NA48232  14.601   0.572  10.561  0.3000 -0.1070 -0.0482
30029ION     NA48233  12.706   0.833  14.344 -0.1263  0.2410 -0.0021
30030ION     NA48234  12.320   2.385   5.433 -0.2485 -0.0978  0.3022
30031ION     NA48235  11.344  17.513  13.661 -0.3127 -0.4047  0.1275
30032ION     NA48236  14.268  14.199   5.219  0.3011 -0.0961  0.0833
30033ION     NA48237   7.980  14.525  15.258 -0.1723 -0.0164  0.2925
30034ION     NA48238  12.548  10.919  10.879 -0.1649  0.0960 -0.0404
30035ION     NA48239  13.045  13.298   3.378  0.0308  0.0988 -0.1251
30036ION     NA48240   7.567  11.648  14.571 -0.1574 -0.0327  0.0332
30037ION     NA48241  17.126   3.402  13.990  0.1644 -0.0273  0.0224
30038ION     NA48242  16.483   0.543  10.379 -0.2496  0.0865 -0.1679
30039ION     NA48243  14.502   0.163   5.384  0.1546 -0.0196  0.2630
30040ION     NA48244   8.146  14.972   3.229 -0.0622  0.0327  0.2952
30041ION     NA48245   8.849   2.368  14.554  0.2731  0.0547  0.1073
30042ION     NA48246  15.212  17.478   2.002 -0.1272  0.2542 -0.1761
30043ION     NA48247   5.556  17.499  14.468  0.0515  0.2315  0.1020
30044ION     NA48248   8.152  12.540   5.237 -0.1168 -0.0846  0.0470
30045ION     NA48249   1.464   9.126  12.609 -0.2544 -0.1771 -0.2743
30046ION     NA48250   1.103   2.237   0.160  0.1001  0.0909  0.0547
30047ION     NA48251  17.656   5.161   5.927  0.0704  0.1228  0.0740
30048ION     NA48252  17.707   1.150  14.046 -0.6574 -0.0579 -0.2289
30049ION     NA48253   2.815  10.938   2.837 -0.1266  0.0688  0.1430
30050ION     NA48254  11.830   2.403   3.738 -0.1756  0.0058  0.2182
30051ION     NA48255   8.376  12.950   6.004 -0.0508 -0.3367  0.5225
30052ION     NA48256   3.779   2.615   1.122 -0.0719 -0.0038 -0.1455
30053ION     NA48257   3.815   0.413  13.012  0.0673 -0.1006  0.2986
30054ION     NA48258   8.210   4.509  13.027 -0.1577  0.1501  0.0992
30055ION     NA48259   7.088  17.452   5.643 -0.0628 -0.1158 -0.2413
30056ION     NA48260   4.521   8.792   5.754 -0.2042  0.0888 -0.1860
30057ION     NA48261   8.106  10.686   1.462  0.0119 -0.0265  0.0406
30058ION     NA48262   2.510   0.889  14.458 -0.1536 -0.5148 -0.0722
30059ION     NA48263   0.121  11.910  14.914 -0.0893  0.0597 -0.0568
30060ION     NA48264  12.113   2.744   2.415  0.0729 -0.0332 -0.2003
30061ION     NA48265   6.071   4.867  13.290  0.1505  0.1000  0.0324
30062ION     NA48266   5.519  13.782  10.563  0.1385  0.2950  0.2851
30063ION     NA48267   9.974   1.034   1.916  0.2127  0.0247 -0.0460
30064ION     NA48268   3.794  16.613  13.879 -0.1721 -0.0317 -0.0672
30065ION     NA48269  10.425   9.603   0.237  0.1549 -0.3321  0.1077
30066ION     NA48270   9.004   8.707   1.987  0.1002  0.2356  0.3883
30067ION     NA48271   6.867   8.754   5.950  0.0841  0.1310  0.1720
30068ION     NA48272   7.259   8.165  14.271  0.1435 -0.1335  0.0822
30069ION     NA48273   7.641   3.639  14.324  0.0320 -0.1944  0.1342
30070ION     NA48274  15.191   2.182   5.443  0.1690  0.0044 -0.3902
30071ION     NA48275   4.497  17.597   3.499  0.1824  0.1699  0.0067
30072ION     NA48276  11.965   9.853  15.944 -0.2027 -0.3838 -0.1633
30073ION     NA48277   2.955   1.658   1.580 -0.0877 -0.0038  0.0068
30074ION     NA48278  17.216  10.685  13.113  0.1791 -0.1177 -0.3115
30075ION     NA48279  11.359   7.507   4.877  0.0147  0.2489  0.1439
30076ION     NA48280   9.177   0.697  10.080  0.2814 -0.0549  0.0351
30077ION     NA48281   8.404   9.818   5.779  0.0621 -0.2290 -0.0248
30078ION     NA48282   9.522   2.552  13.295  0.1121  0.2855 -0.1827
30079ION     NA48283   0.056   6.435   0.017  0.3978  0.3150 -0.0911
30080ION     NA48284  10.204   3.200   4.764 -0.0208  0.2963 -0.1489
30081ION     NA48285  10.150  17.944  12.991 -0.3697  0.2570 -0.0884
30082ION     NA48286   4.605   3.643   5.388  0.1852 -0.1003 -0.2171
30083ION     NA48287  10.099   3.922   5.461  0.0782 -0.2734 -0.1558
30084ION     NA48288   2.944  13.157  13.108 -0.2442 -0.2145  0.1779
30085ION     NA48289  11.545   1.426  10.565  0.2086 -0.0024  0.0649
30086ION     NA48290   9.206  12.155  10.860  0.3445  0.1985  0.1397
30087ION     NA48291  17.722   4.650   0.352 -0.0792  0.1270  0.1250
30088ION     NA48292   5.950  15.639   0.696 -0.0147  0.1179  0.0891
30089ION     NA48293   2.387   6.181  14.966 -0.3127 -0.2100 -0.1274
30090ION     NA48294   8.561   1.108  12.730  0.1179 -0.1663  0.0491
30091ION     NA48295   3.546  17.625   2.185  0.0125  0.1832 -0.2372
30092ION     NA48296   1.900   9.993  11.078  0.1582 -0.0930  0.0544
30093ION     NA48297  12.828   1.929   0.749  0.0512  0.0305  0.0015
30094ION     NA48298   2.031  17.728  12.988  0.0831 -0.1033 -0.1329
30095ION     NA48299   8.479   9.978   2.446  0.0961 -0.1560  0.0621
30096ION     NA48300  10.354   3.440  10.662  0.0223  0.0901  0.2253
30097ION     NA48301  16.348  17.867  11.482 -0.1079  0.1174  0.0768
30098ION     NA48302  13.379  16.197  11.908  0.3898 -0.2610 -0.0389
30099ION     NA48303   3.293  15.835   4.959 -0.2223  0.2940  0.1958
30100ION     NA48304  15.867  13.359   0.848  0.1356 -0.0045  0.3045
30101ION     NA48305  11.341  16.511  13.645  0.2357 -0.2527  0.0414
30102ION     NA48306  17.418  14.918  11.071  0.0266 -0.2768  0.0690
30103ION     NA48307   5.944   7.305  10.674  0.0657  0.1199  0.0784
30104ION     NA48308  15.787   4.743  10.850 -0.0152 -0.4010  0.3082
30105ION     NA48309   1.573   3.478   4.082  0.2452 -0.1611 -0.0599
30106ION     NA48310   3.089  16.690  11.015 -0.1431 -0.1125  0.1001
30107ION     NA48311   7.583  10.622  10.991 -0.2923  0.1231 -0.1154
30108ION     NA48312   5.062  14.447  10.539 -0.1003  0.0791 -0.0572
30109ION     NA48313  11.288   3.496  12.496 -0.0997  0.1246 -0.0813
30110ION     NA48314  13.303  15.876  13.768  0.0055 -0.1719 -0.1139
30111ION     NA48315   7.754  14.631   4.556 -0.0780 -0.0144 -0.1237
30112ION     NA48316  14.246  13.894  12.112  0.1611 -0.0862  0.1506
30113ION     NA48317   1.683   9.119   5.605 -0.0257  0.3239 -0.2256
30114ION     NA48318  17.524  16.369   1.969  0.0118  0.1412 -0.2163
30115ION     NA48319   8.259  12.853   4.158  0.3440 -0.0369 -0.0743
30116ION     NA48320  10.292  10.138   2.888  0.1692 -0.1137  0.0033
30117ION     NA48321  14.073   5.437   3.034 -0.2580  0.1009  0.0990
30118ION     NA48322  15.023  16.700   5.390 -0.1011  0.2256 -0.0490
30119ION     NA48323   1.579   4.678   5.517 -0.0930  0.1564 -0.0884
30120ION     NA48324  12.327  11.909  10.904 -0.0727 -0.2288  0.0485
30121ION     NA48325   6.414   6.252  14.385  0.1738 -0.1430 -0.0278
30122ION     NA48326   6.147  12.330  16.106 -0.3272  0.1770 -0.0963
30123ION     NA48327   5.118  14.089  14.363  0.3628 -0.0181  0.0750
30124ION     NA48328   6.924   3.570   5.120 -0.2616  0.1234  0.1437
30125ION     NA48329  12.368   3.847   0.551 -0.1773 -0.0165 -0.1917
30126ION     NA48330  13.028   9.529   5.500 -0.2094  0.2908 -0.0194
30127ION     NA48331  15.653   3.430   1.420 -0.3117  0.2004  0.0687
30128ION     NA48332   8.608  12.106  15.350 -0.1181 -0.2206  0.2693
30129ION     NA48333  14.848  15.779  11.594  0.1939 -0.0250 -0.0501
30130ION     NA48334   8.219  15.761  10.395  0.1234 -0.1761 -0.1312
30131ION     NA48335  17.277   8.214   2.619  0.1199 -0.0337  0.1803
30132ION     NA48336  17.566   8.109  10.614 -0.0780  0.0386 -0.0418
30133ION     NA48337  17.917   8.028   6.054 -0.3103 -0.2409  0.0288
30134ION     NA48338  15.857   0.097  12.063 -0.0099 -0.0289 -0.0263
30135ION     NA48339   4.641  14.183   5.403  0.0505 -0.1522 -0.4302
30136ION     NA48340   2.368   2.155  12.692  0.0142  0.0443  0.1560
30137ION     NA48341   6.587  16.946   3.942 -0.1184 -0.3535 -0.1148
30138ION     NA48342   1.614   5.111  10.327 -0.2703 -0.1940  0.0594
30139ION     NA48343   4.338  11.443   5.793  0.1152  0.0616 -0.1199
30140ION     NA48344   2.835  11.865   5.633 -0.1293  0.3874  0.0171
30141ION     NA48345  11.161   8.696   5.084  0.2319  0.0721 -0.1639
30142ION     NA48346  12.976   2.267  13.858 -0.0556 -0.0579 -0.0311
30143ION     NA48347   6.922   1.309  13.671 -0.0945 -0.3464  0.1769
30144ION     NA48348  12.693  15.842   5.129  0.0162 -0.2104 -0.1737
30145ION     NA48349   9.868  14.550  10.823 -0.2161 -0.1358 -0.1806
30146ION     NA48350  11.504  12.346  14.129  0.2159 -0.0093 -0.0418
30147ION     NA48351  13.884   5.177   3.924 -0.4895 -0.3092 -0.1059
30148ION     NA48352   2.094   6.598   1.446  0.1467  0.2341  0.0881
30149ION     NA48353   6.310  14.449  10.498 -0.1474  0.0950 -0.2154
30150ION     NA48354  13.190  10.068  13.442 -0.1592 -0.1764 -0.1455
30151ION     NA48355   6.911   1.572  15.031  0.0390 -0.1235 -0.1323
30152ION     NA48356   9.741   8.569  12.013 -0.1047  0.0872 -0.4421
30153ION     NA48357   4.091  11.959  14.205  0.1264 -0.1807  0.1671
30154ION     NA48358   7.105   7.089  14.726 -0.2592 -0.1034 -0.0371
30155ION     NA48359   3.203   0.609  10.492  0.0892  0.2329 -0.0100
30156ION     NA48360  11.444  12.742   4.210  0.0062 -0.2143  0.3357
30157ION     NA48361   4.641  17.231  10.621  0.2425  0.0898 -0.0619
30158ION     NA48362  14.653   3.478   5.679 -0.3437 -0.3433 -0.0342
30159ION     NA48363   8.474  17.510  14.922  0.1372 -0.1185 -0.2740
30160ION     NA48364   8.884   7.078   2.624 -0.5064 -0.2229 -0.1130
30161ION     NA48365  16.257  12.584   5.772 -0.1304 -0.0891  0.1119
30162ION     NA48366   2.668  11.657  10.517  0.1898 -0.2470  0.0693
30163ION     NA48367  17.139  17.062   1.759 -0.0441 -0.1350  0.3279
30164ION     NA48368  16.682  17.108   5.458  0.1547 -0.0401  0.0690
30165ION     NA48369  16.044  10.284  13.695 -0.3021  0.0591 -0.4672
30166ION     NA48370   5.226  11.210  12.114 -0.0662 -0.1105  0.0323
30167ION     NA48371   8.105   0.655   5.037  0.0494  0.0651 -0.1700
30168ION     NA48372  12.433  14.901  10.311 -0.0784  0.4539 -0.0573
30169ION     NA48373   5.265   7.276   0.277 -0.0447 -0.0654  0.1030
30170ION     NA48374  13.811   8.172  11.591 -0.1196 -0.2625 -0.1289
30171ION     NA48375  13.849   3.231  12.220  0.0012  0.1217 -0.0930
30172ION     NA48376  17.496   8.917  10.631  0.0558  0.0749 -0.1818
30173ION     NA48377   4.390   7.052   0.838  0.1469 -0.2605  0.1070
30174ION     NA48378   6.050   8.365   6.159 -0.1138 -0.1118 -0.1285
30175ION     NA48379   0.379  11.102  14.667  0.1365  0.1374  0.2214
30176ION     NA48380  17.395  17.607  10.231 -0.0851  0.1664 -0.2183
30177ION     NA48381  17.123   5.679  15.747 -0.3697  0.1041 -0.0658
30178ION     NA48382   2.507  13.547  10.869  0.2546 -0.3000  0.3230
30179ION     NA48383   9.647  10.704   0.340 -0.0840  0.3287  0.0045
30180ION     NA48384  17.387   1.488   5.222 -0.2811  0.1687  0.0655
30181ION     NA48385   9.145  15.261  15.313 -0.2730 -0.1944  0.1951
30182ION     NA48386   8.844  11.529   5.901 -0.4081 -0.0344 -0.0267
30183ION     NA48387   7.039  13.423   2.055  0.1742  0.1157 -0.1879
30184ION     NA48388  13.521   0.517  10.522  0.0479  0.1645 -0.0921
30185ION     NA48389   0.381   1.054   5.260 -0.0943  0.2667 -0.2268
30186ION     NA48390   4.135   2.519   5.604  0.2970  0.1545  0.0342
30187ION     NA48391   9.776   4.878   1.568 -0.1066 -0.1940  0.2656
30188ION     NA48392   6.260  15.390  10.344 -0.0756 -0.0231  0.0128
30189ION     NA48393  11.184   3.022  10.736 -0.1190  0.1233 -0.0111
30190ION     NA48394  11.085   9.024   0.246 -0.2523  0.1538  0.0681
30191ION     NA48395  13.970   6.709   4.349 -0.0082 -0.0815  0.1772
30192ION     NA48396  16.640   2.248   0.504  0.1598 -0.0047  0.3845
30193ION     NA48397   3.258  17.414  12.525  0.1639 -0.2538 -0.1356
30194ION     NA48398  14.004  13.549   4.543 -0.4703  0.1849  0.0157
30195ION     NA48399  13.102  10.163  14.318  0.2638  0.0219 -0.3627
30196ION     NA48400   9.408  13.034  13.206  0.0100  0.2910 -0.3409
30197ION     NA48401  10.968   0.604  13.959 -0.1477 -0.0904 -0.1982
30198ION     NA48402   6.426  13.087   1.314 -0.1078 -0.0952  0.0463
30199ION     NA48403  17.917   3.000   0.180 -0.0805  0.0353  0.2168
30200ION     NA48404  13.246   0.655   5.419 -0.0815 -0.1136  0.0554
30201ION     NA48405  16.904   2.344   5.318  0.0795  0.3011  0.3613
30202ION     NA48406   3.691   5.184   4.215 -0.1879 -0.0409 -0.0475
30203ION     NA48407   5.919   1.799   5.016 -0.0125  0.1572  0.0319
30204ION     NA48408  12.413   6.224   3.354  0.0310 -0.0537  0.0450
30205ION     NA48409  17.704   3.683   2.752 -0.1958 -0.0222  0.0610
30206ION     NA48410   3.932  12.123   1.587 -0.1114 -0.1300  0.4175
30207ION     NA48411  14.213   9.036   0.490 -0.2588 -0.2773 -0.0213
30208ION     NA48412  15.639  11.004  10.912  0.0288 -0.2424  0.0926
30209ION     NA48413   0.288   8.718  10.640 -0.2583 -0.2688 -0.1778
30210ION     NA48414   7.606  16.275  14.473 -0.1494 -0.0614  0.1478
30211ION     NA48415   8.637   6.413   5.791 -0.3023 -0.0161  0.0984
30212ION     NA48416  17.302   8.549  14.393  0.1057  0.1306 -0.1391
30213ION     NA48417  17.153  13.271   4.515  0.0203 -0.0075  0.1794
30214ION     NA48418   8.058  12.758   0.177 -0.0003 -0.0613  0.2622
30215ION     NA48419   9.195   5.773   5.782 -0.0277  0.2384  0.2610
30216ION     NA48420   3.415  11.546  14.627  0.1011 -0.2890 -0.2326
30217ION     NA48421  14.068   4.354   0.075 -0.1023  0.2334 -0.1547
30218ION     NA48422   9.258  14.071  13.101 -0.0305 -0.3259 -0.0277
30219ION     NA48423  14.465   7.042   5.759 -0.0268 -0.1543 -0.1068
30220ION     NA48424  17.726   5.624   0.312  0.1708 -0.0955 -0.7726
30221ION     NA48425   6.453  17.083  13.016 -0.0002 -0.0163  0.1769
30222ION     NA48426   9.373   3.058  11.657 -0.1700 -0.2212  0.0397
30223ION     NA48427  14.312   1.153   3.766 -0.0308  0.1012  0.1630
30224ION     NA48428  11.851  12.407   2.271  0.1696 -0.1328 -0.0235
30225ION     NA48429  17.118   7.511   1.818  0.0620  0.2383  0.2225
30226ION     NA48430  13.615  12.620   2.907  0.0196  0.2788 -0.2184
30227ION     NA48431   5.080   5.725   5.839  0.0212 -0.0299  0.3084
30228ION     NA48432  15.789  10.923   0.194 -0.2193  0.0298  0.4258
30229ION     NA48433   4.003  16.311   5.684 -0.3175  0.1847 -0.0621
30230ION     NA48434  16.570  14.935   0.137  0.0026  0.0890  0.2836
30231ION     NA48435   0.263   3.790   5.550  0.1792  0.0864  0.1925
30232ION     NA48436  10.259  17.006  15.419  0.1605  0.0385  0.0975
30233ION     NA48437  10.221  15.920  10.287 -0.3502 -0.0793  0.1941
30234ION     NA48438   1.047  10.188  10.989  0.1625 -0.0886 -0.0399
30235ION     NA48439   8.305   7.250  13.331  0.0708  0.0783 -0.0315
30236ION     NA48440   4.259   6.508  15.770  0.1046 -0.2109 -0.1875
30237ION     NA48441   6.562   5.081  11.134  0.1826 -0.3360 -0.0211
30238ION     NA48442  10.272   7.146   5.819  0.1526  0.1208  0.0259
30239ION     NA48443   3.368   9.901  15.422 -0.1916  0.1267  0.0267
30240ION     NA48444   0.388   5.770   1.609  0.5078  0.1449 -0.0601
30241ION     NA48445  14.574   2.543   4.186  0.1120  0.1252  0.1138
30242ION     NA48446  14.454  13.275   1.039  0.1741 -0.1346 -0.0799
30243ION     NA48447  15.346   0.626   5.386 -0.0851  0.0755  0.2981
30244ION     NA48448   2.593   8.504  11.488  0.0512  0.3990  0.0797
30245ION     NA48449  12.608  10.888  11.599 -0.0940 -0.0389 -0.0078
30246ION     NA48450   0.466  17.334   0.166  0.1544  0.1321  0.2670
30247ION     NA48451  14.157   9.236  10.967 -0.1918  0.2252  0.3021
30248ION     NA48452  11.390   1.177   5.277 -0.0027  0.1371 -0.0969
30249ION     NA48453  16.226  10.311  10.751  0.1118 -0.2544  0.1532
30250ION     NA48454   8.027  11.764   5.987 -0.1039 -0.1685 -0.1219
30251ION     NA48455  12.286  15.185  10.928 -0.0636  0.1748  0.1941
30252ION     NA48456  10.653  17.278  13.568 -0.0064  0.1056 -0.0837
30253ION     NA48457  11.680  17.445  10.353  0.1305 -0.0061 -0.1187
30254ION     NA48458  16.172  16.077  13.669 -0.2288 -0.2088 -0.1404
30255ION     NA48459  16.912  16.741  14.935 -0.1047 -0.0666 -0.1321
30256ION     NA48460  14.509   5.358   6.148  0.0790 -0.2536 -0.0111
30257ION     NA48461   6.463   2.282  10.425 -0.0064  0.0121  0.1294
30258ION     NA48462   3.885   6.830  12.096  0.2314 -0.1096  0.0135
30259ION     NA48463  10.307   5.210  14.090 -0.0737  0.0304 -0.2049
30260ION     NA48464  13.659  10.313  12.564 -0.0513 -0.1971 -0.4163
30261ION     NA48465  13.057  10.873   5.056  0.1539 -0.1757 -0.0029
30262ION     NA48466  12.213  14.946   0.517  0.2565 -0.0238  0.1849
30263ION     NA48467  17.821   0.068   2.370  0.3617  0.0469  0.0117
30264ION     NA48468  11.712   4.309  10.780 -0.0592  0.0548  0.1954
30265ION     NA48469   2.137   0.297  10.345 -0.2104 -0.3199  0.2409
30266ION     NA48470   4.396   4.740  11.211 -0.0054  0.2262  0.0230
30267ION     NA48471  15.779   5.330  14.622 -0.0438  0.5704 -0.1517
30268ION     NA48472   4.168   5.252  12.195  0.1307 -0.5442  0.2997
30269ION     NA48473   3.102   5.184   4.871  0.0726  0.0405 -0.1513
30270ION     NA48474  14.484  12.737  13.610  0.1773 -0.1907  0.0828
30271ION     NA48475   7.761   6.881   5.654  0.0814  0.2623 -0.0645
30272ION     NA48476   4.978   2.397   5.267  0.2463  0.0317  0.0233
30273ION     NA48477   9.053   1.790   0.686 -0.0066 -0.1263  0.1361
30274ION     NA48478   4.971   6.430  10.724 -0.1766  0.4044  0.0568
30275ION     NA48479   3.197  16.733   5.498 -0.0709  0.0819 -0.3241
30276ION     NA48480  13.906  10.817   5.634 -0.1120  0.0696  0.1616
30277ION     NA48481   8.264   2.450  10.526  0.2974 -0.4518  0.0107
30278ION     NA48482   4.365  16.496   4.995 -0.0169 -0.3093 -0.2877
30279ION     NA48483   6.708   7.477   1.253 -0.1386 -0.0271  0.0118
30280ION     NA48484   1.854   1.590   1.070 -0.3482 -0.0911  0.1642
30281ION     NA48485   1.697   1.584  13.643  0.2105  0.0442 -0.1118
30282ION     NA48486  11.093   7.293   0.564 -0.1621 -0.0882 -0.5086
30283ION     NA48487  11.210  17.333   5.655  0.3401 -0.0190 -0.2263
30284ION     NA48488  14.927  13.426  15.160  0.0317 -0.1025  0.0108
30285ION     NA48489   2.555   4.798   1.781 -0.0161  0.0427  0.0601
30286ION     NA48490  14.093   0.475  12.286  0.1775  0.1506 -0.2761
30287ION     NA48491   2.111  10.105   5.967 -0.0684 -0.0808 -0.0188
30288ION     NA48492   7.735   5.696  14.703 -0.0842  0.2310 -0.0375
30289ION     NA48493  15.448   6.412  15.152 -0.1491 -0.1809 -0.0121
30290ION     NA48494  12.639  10.258   0.887  0.1683 -0.1220 -0.2520
30291ION     NA48495   1.211  12.418   2.063  0.1214  0.1436  0.1917
30292ION     NA48496   3.579   3.038  14.931 -0.2604 -0.2477  0.1415
30293ION     NA48497   7.296  14.340   5.748  0.1738 -0.0723 -0.1264
30294ION     NA48498   4.507  12.554  13.477 -0.0542  0.2062 -0.0234
30295ION     NA48499   4.600  12.578  10.688  0.0760  0.1140  0.1886
30296ION     NA48500   2.219  12.456   3.810  0.4559  0.0313 -0.0878
30297ION     NA48501   5.453   6.126  13.943 -0.0911  0.3011 -0.1063
30298ION     NA48502   4.970   1.696   0.678 -0.0436  0.1606  0.1190
30299ION     NA48503   2.881  14.634   2.565 -0.2540  0.0842  0.1775
30300ION     NA48504   8.397   4.422  15.824  0.0567  0.1021 -0.0377
30301ION     NA48505   1.509  16.223  13.459  0.0880  0.2670  0.1951
30302ION     NA48506   5.966   6.165   5.909 -0.0252  0.2727 -0.0009
30303ION     NA48507  15.599  12.968   5.624 -0.1306  0.0571 -0.1846
30304ION     NA48508   4.576  11.136   0.075  0.1201 -0.0955 -0.0361
30305ION     NA48509   5.391  17.977   2.164 -0.0028 -0.4830 -0.3114
30306ION     NA48510   2.907  17.253  10.213 -0.0752 -0.3806  0.3267
30307ION     NA48511   1.851   7.405   5.589  0.0097 -0.1353 -0.2447
30308ION     NA48512  17.720  14.852   3.545 -0.1463 -0.3485 -0.1457
30309ION     NA48513  14.253   8.309   0.102  0.0073 -0.0165 -0.1259
30310ION     NA48514   2.186  14.165  13.266 -0.1015  0.0083 -0.2100
30311ION     NA48515  17.934   4.059  13.319  0.1374 -0.0821 -0.3556
30312ION     NA48516  12.262   1.561   5.382 -0.1290  0.0262  0.1362
30313ION     NA48517   6.509  14.059  15.100 -0.2822 -0.0097  0.3029
30314ION     NA48518  11.632   4.206   1.588  0.0153 -0.1235  0.0725
30315ION     NA48519  11.333  12.638   5.721  0.0766  0.2066  0.0587
30316ION     NA48520  12.710  10.231  12.712  0.3327 -0.3529  0.1143
30317ION     NA48521   3.601   2.071  11.043 -0.0851  0.0081 -0.2065
30318ION     NA48522   1.522   9.406  11.060 -0.1068  0.1042 -0.1356
30319ION     NA48523   5.449   8.421   0.175 -0.0469  0.3679 -0.0167
30320ION     NA48524   5.510  10.729   5.432  0.1840  0.0354 -0.3425
30321ION     NA48525  13.070   6.062  10.888  0.0579 -0.3166  0.0063
30322ION     NA48526  10.553   6.141   0.665 -0.2507 -0.1300 -0.1506
30323ION     NA48527  11.187  15.637  13.243  0.0091 -0.1894 -0.2435
30324ION     NA48528  10.533   9.547   3.513 -0.2517 -0.0936 -0.1006
30325ION     NA48529   4.189  10.694  15.158 -0.0700 -0.0925 -0.0308
30326ION     NA48530  14.711   0.489  11.578 -0.1196  0.0274 -0.0111
30327ION     NA48531   4.208   3.251  12.955 -0.0239 -0.0582  0.0380
30328ION     NA48532  14.828  15.682   1.430  0.1358  0.0442 -0.0734
30329ION     NA48533  14.851  16.676  13.396 -0.1926  0.1164 -0.1472
30330ION     NA48534   4.992  10.416   1.804  0.3071  0.0854  0.0422
30331ION     NA48535  16.792   3.411   2.732 -0.2174 -0.1577 -0.0847
30332ION     NA48536   4.313  12.599   5.887  0.1526  0.1631  0.2724
30333ION     NA48537   0.283   8.777   6.113  0.1650  0.2903 -0.0295
30334ION     NA48538   4.556   5.456  13.433  0.1219 -0.3093  0.2713
30335ION     NA48539  17.227  15.673   5.487  0.5373  0.0494 -0.0428
30336ION     NA48540  13.226   7.253  16.003  0.1517 -0.1885  0.0572
30337ION     NA48541   1.638   2.209  10.368  0.0834 -0.4028  0.0180
30338ION     NA48542  11.716   2.438  13.897 -0.1523 -0.0936 -0.0468
30339ION     NA48543   1.207   8.991   4.304 -0.1787  0.3438  0.0098
30340ION     NA48544  14.454  12.392   1.285  0.0196 -0.0827 -0.1635
30341ION     NA48545  14.417  13.612  14.882  0.3023  0.1778  0.1860
30342ION     NA48546  15.769  15.684  10.201  0.0139  0.0493 -0.0451
30343ION     NA48547   6.287   9.849  10.604  0.2313 -0.1129  0.0366
30344ION     NA48548   8.992   2.144   1.595 -0.0060  0.3849  0.1082
30345ION     NA48549   1.482  15.457   5.338  0.1846 -0.1685  0.2400
30346ION     NA48550   6.300  16.643   9.988  0.1153  0.0992  0.0065
30347ION     NA48551   4.482  10.963  10.684 -0.0707 -0.0038 -0.3123
30348ION     NA48552  14.046   2.862   5.658  0.1678  0.0133  0.1889
30349ION     NA48553  16.454  11.325   5.793 -0.1384  0.0128 -0.1661
30350ION     NA48554   6.789   4.925  14.456  0.0475 -0.2513  0.1266
30351ION     NA48555   6.665  14.535   1.891  0.0249 -0.2036 -0.0934
30352ION     NA48556   9.633   0.475   4.278 -0.0480 -0.0053  0.1774
30353ION     NA48557   3.418   8.134   4.095  0.1870 -0.0002 -0.0394
30354ION     NA48558  16.520   2.953  14.386  0.0500 -0.2495 -0.0855
30355ION     NA48559   7.507  11.827   5.369  0.2246  0.0872 -0.2148
30356ION     NA48560   5.458  15.595  10.225  0.1405 -0.0110  0.0608
30357ION     NA48561   7.627   0.240   5.568 -0.0925  0.0736  0.0369
30358ION     NA48562   6.389  17.028   5.931  0.0168 -0.2889  0.0214
30359ION     NA48563   0.855   6.275  10.722 -0.2161 -0.3363  0.1026
30360ION     NA48564   1.526  13.613   0.347 -0.1440  0.2273 -0.2767
30361ION     NA48565   7.390   8.026  10.545  0.1388  0.0000 -0.0277
30362ION     NA48566   1.146  18.021   5.354  0.2057  0.1068 -0.1366
30363ION     NA48567   4.384   5.193   0.978  0.0646 -0.0936  0.0908
30364ION     NA48568   9.213  14.280  11.719 -0.0469 -0.2193 -0.1504
30365ION     NA48569   1.081  17.141   2.843 -0.1813 -0.0443 -0.0300
30366ION     NA48570  12.078   9.685   5.690 -0.0800 -0.0937 -0.1691
30367ION     NA48571  10.854   5.853   0.076  0.1469 -0.1325 -0.0723
30368ION     NA48572  16.417  15.041  11.324 -0.0138  0.2667 -0.1057
30369ION     NA48573   0.208   4.270  10.449 -0.1828 -0.0721  0.1130
30370ION     NA48574   6.482  14.780   5.629 -0.1763  0.1902 -0.0268
30371ION     NA48575  12.940   5.964  12.894  0.0747 -0.0903  0.1930
30372ION     NA48576   4.586   5.104  14.529 -0.1487  0.2216 -0.1244
30373ION     NA48577   8.433   8.361  14.611 -0.0154  0.0959  0.0334
30374ION     NA48578  13.633  15.011   1.060 -0.0787  0.1206  0.0740
30375ION     NA48579  14.794  10.268  10.892 -0.1376 -0.0654 -0.1363
30376ION     NA48580  15.773   2.237   5.262  0.0399  0.0847 -0.2903
30377ION     NA48581  15.057  13.648   5.331  0.1454 -0.0942 -0.2461
30378ION     NA48582   1.294   8.023  14.366 -0.0553  0.0297  0.0757
30379ION     NA48583  11.496   5.181  10.819  0.0187  0.0127 -0.0969
30380ION     NA48584  11.308   8.233   4.053  0.0883 -0.0035  0.0048
30381ION     NA48585   5.190  10.725   2.748  0.0174 -0.3534  0.2751
30382ION     NA48586  14.995  17.617   5.488 -0.0835  0.2538  0.2219
30383ION     NA48587   4.501  15.153  10.538 -0.2170  0.2107  0.0099
30384ION     NA48588  13.110  17.289  15.660 -0.2097 -0.1487  0.0228
30385ION     NA48589  17.648   6.197  13.480 -0.0139  0.0909 -0.1548
30386ION     NA48590  16.163   3.067   5.294 -0.0886 -0.2011  0.1679
30387ION     NA48591  13.703   0.980   5.452 -0.0608  0.0093  0.1848
30388ION     NA48592   1.608  13.824   4.920  0.0007 -0.1377  0.0354
30389ION     NA48593   9.701  11.793   5.846  0.1291 -0.2242  0.0638
30390ION     NA48594   4.891   5.398  14.939  0.2496 -0.0916  0.2795
30391ION     NA48595   0.902   1.665  10.321 -0.0780  0.1231  0.1221
30392ION     NA48596  17.696  15.962  13.908 -0.0168 -0.1934  0.1144
30393ION     NA48597  12.653   7.184   0.781 -0.0805 -0.2771 -0.0774
30394ION     NA48598  10.231  15.477   1.098  0.0314  0.0122 -0.1140
30395ION     NA48599  13.125  15.099   3.527 -0.2397 -0.0642 -0.1951
30396ION     NA48600   7.530   9.311   5.881 -0.0219 -0.1900 -0.2683
30397ION     NA48601  14.455  16.014   9.967  0.0851  0.0667  0.0892
30398ION     NA48602  10.667   6.317   5.605 -0.1481  0.0987 -0.0185
30399ION     NA48603  10.128   7.478  15.481  0.0003  0.1503 -0.0244
30400ION     NA48604   1.434   2.787  13.322 -0.0967 -0.0264 -0.2275
30401ION     NA48605  10.050   3.050   1.270  0.0946  0.0799 -0.3243
30402ION     NA48606   2.929  17.341  15.565  0.0025  0.0093 -0.1951
30403ION     NA48607  17.021  13.854  11.867  0.0862  0.1662 -0.3876
30404ION     NA48608  17.266  12.854  10.543  0.2047 -0.2088  0.1420
30405ION     NA48609   2.179   4.904  14.864  0.2129 -0.0593  0.2783
30406ION     NA48610   2.083  10.357   4.136  0.0443  0.1047 -0.0944
30407ION     NA48611   6.174   3.888  15.589  0.1988  0.3023  0.1616
30408ION     NA48612  17.716   2.537  10.435  0.0303 -0.2328 -0.0231
30409ION     NA48613   5.095  11.938   5.803 -0.0846 -0.1152 -0.1795
30410ION     NA48614  16.840   9.431  10.746  0.1801  0.1007 -0.3159
30411ION     NA48615  10.312  15.113  14.106  0.1895 -0.3280 -0.2069
30412ION     NA48616  12.116   5.184   5.929 -0.0705 -0.0795  0.0945
30413ION     NA48617   6.131   5.803  11.546  0.1059  0.2089 -0.0500
30414ION     NA48618   6.525  17.323  11.128  0.1530  0.0690 -0.3541
30415ION     NA48619  13.573   3.430   1.944  0.1212  0.0445  0.1375
30416ION     NA48620   3.665   8.919  15.250  0.0323 -0.0927 -0.2037
30417ION     NA48621  16.746   4.721   6.076 -0.0565 -0.0691 -0.0058
30418ION     NA48622   5.026   5.825  15.986 -0.0133 -0.0209  0.0936
30419ION     NA48623  10.381  13.358  14.313 -0.0345  0.1613  0.3968
30420ION     NA48624  10.621  17.083   1.077  0.0181  0.1257 -0.0161
30421ION     NA48625  10.921  16.662  10.367  0.2242  0.0819  0.0896
30422ION     NA48626   2.153  10.708  13.768 -0.1312 -0.1846  0.0260
30423ION     NA48627  10.224   1.863   5.061  0.2244 -0.0491 -0.0903
30424ION     NA48628   6.933  13.764  11.508  0.1966  0.1431 -0.0274
30425ION     NA48629  15.383  12.404   1.434 -0.0225 -0.0369  0.0461
30426ION     NA48630  10.101  13.440   3.687 -0.0875  0.0093  0.1191
30427ION     NA48631   5.754   4.251  10.564  0.1465 -0.1647  0.2266
30428ION     NA48632  15.289   7.390   4.160  0.2140  0.0240 -0.1792
30429ION     NA48633  13.974   4.880   5.454  0.1894  0.4875 -0.0368
30430ION     NA48634  10.270  17.933   5.948 -0.2453  0.0618 -0.0390
30431ION     NA48635  14.987   5.778  10.916 -0.0540 -0.1349  0.0852
30432ION     NA48636   3.655  14.459  10.729  0.1591  0.0905  0.1002
30433ION     NA48637  16.305   2.572  10.355 -0.0473  0.0671  0.2140
30434ION     NA48638  16.397   4.409   4.153 -0.2229 -0.0658  0.0380
30435ION     NA48639  17.975   3.974   3.822 -0.0628  0.3081  0.0695
30436ION     NA48640   5.698   3.073   0.015  0.0863  0.0043 -0.6471
30437ION     NA48641  11.850   4.488   5.915 -0.1246 -0.5225 -0.2601
30438ION     NA48642   7.162   4.027   2.573 -0.2542 -0.2894  0.5841
30439ION     NA48643   6.760  14.239   3.558  0.3287 -0.0938 -0.0042
30440ION     NA48644   9.928   2.126   5.697 -0.0022 -0.0284 -0.0789
30441ION     NA48645   1.181  14.613  10.727  0.1593 -0.0551  0.2586
30442ION     NA48646  13.797   0.187   3.779  0.2510  0.2667 -0.2021
30443ION     NA48647  11.695   9.658  11.639 -0.0152 -0.2233 -0.1196
30444ION     NA48648   8.925  11.334  10.610 -0.2605  0.0326 -0.1161
30445ION     NA48649  17.929   9.587   5.537 -0.0721 -0.3684  0.1466
30446ION     NA48650  17.239  10.529  10.547 -0.1016 -0.0094  0.2236
30447ION     NA48651  15.420   5.658   2.245 -0.0727  0.0814 -0.1415
30448ION     NA48652   7.155  14.544  10.700  0.2554 -0.1142 -0.1118
30449ION     NA48653   9.360   3.612  10.629 -0.2143 -0.0568 -0.0518
30450ION     NA48654   2.396  16.549   5.489 -0.2860 -0.2087  0.3851
30451ION     NA48655  16.256  11.467  12.614  0.0468 -0.0532 -0.2385
30452ION     NA48656   4.019  16.427   0.388  0.1423  0.1767 -0.0510
30453ION     NA48657   4.058  10.332   1.064 -0.0288  0.1985 -0.0978
30454ION     NA48658   1.320   7.505  15.710 -0.1236 -0.2657 -0.0294
30455ION     NA48659  12.879  14.382   4.006  0.3023 -0.0454  0.1251
30456ION     NA48660  13.999   0.187   5.544 -0.0655  0.2100 -0.0340
30457ION     NA48661  11.846  12.834  10.962  0.1745  0.0274 -0.2545
30458ION     NA48662  10.133  17.967  15.814  0.3168 -0.0385 -0.1685
30459ION     NA48663   2.387  16.277  10.297  0.3001 -0.2925  0.1262
30460ION     NA48664   2.174  10.885   5.645 -0.3259 -0.0833  0.0271
30461ION     NA48665   4.825   5.570   2.705 -0.1074  0.0732  0.0017
30462ION     NA48666   5.153   7.851  10.736  0.2067  0.1799 -0.1167
30463ION     NA48667   4.099   1.996   0.081  0.3079 -0.2909 -0.0794
30464ION     NA48668  16.506   6.488   2.139 -0.1044 -0.0139 -0.1086
30465ION     NA48669   4.618   4.645   5.322 -0.0680  0.0063 -0.3155
30466ION     NA48670   1.578   7.490   1.659  0.2024  0.1468 -0.0326
30467ION     NA48671   7.928  14.102  11.770 -0.1676 -0.0954 -0.2511
30468ION     NA48672  13.685  14.215   5.228 -0.1265 -0.1718 -0.1610
30469ION     NA48673  14.080  11.163  15.056 -0.0250 -0.0792  0.0129
30470ION     NA48674  16.064  13.478  16.079  0.1215  0.0093 -0.0029
30471ION     NA48675  15.447   8.148   4.601 -0.1153 -0.0298  0.2462
30472ION     NA48676   3.279   1.159   3.974 -0.0227 -0.1658  0.1044
30473ION     NA48677  12.277  16.559   0.047  0.0400  0.2740 -0.1514
30474ION     NA48678  14.268   0.026  14.180  0.1579  0.0925 -0.1048
30475ION     NA48679   3.200   8.592   1.809 -0.1329 -0.0464 -0.1062
30476ION     NA48680   6.280  13.698  10.716 -0.2907  0.3386 -0.0102
30477ION     NA48681   5.401  11.080  10.669  0.0211  0.2114  0.0599
30478ION     NA48682   2.758   1.799  10.397 -0.0705 -0.2423 -0.0761
30479ION     NA48683  11.426  15.229  15.610 -0.2500  0.0947 -0.0535
30480ION     NA48684  17.756   0.859  11.802 -0.2972  0.2483  0.0007
30481ION     NA48685  17.681   6.896  15.076 -0.1665 -0.0758 -0.2707
30482ION     NA48686   0.452  14.051  14.158  0.0355  0.2001 -0.0642
30483ION     NA48687  16.134   6.200   5.962  0.1102 -0.0108 -0.2978
30484ION     NA48688   2.934   6.584  14.342 -0.2259 -0.1828 -0.0121
30485ION     NA48689   9.564   6.371   2.966 -0.0711 -0.0493 -0.1783
30486ION     NA48690   1.254   9.122  10.663 -0.4117  0.0852 -0.0253
30487ION     NA48691  10.375   8.484   4.759  0.1055  0.1354  0.1119
30488ION     NA48692   8.341  16.844   5.615  0.1795 -0.0527  0.0357
30489ION     NA48693   6.311   4.239   5.395 -0.4028  0.0885  0.0879
30490ION     NA48694   4.571  12.508   2.590 -0.3152  0.1833  0.0171
30491ION     NA48695  10.296   1.023   4.962  0.0565  0.0679 -0.0747
30492ION     NA48696  12.742   7.785   6.119 -0.0769  0.1832  0.1604
30493ION     NA48697   8.571   8.096   5.895 -0.0508  0.4905  0.0490
30494ION     NA48698  13.594  15.349  10.950 -0.2072 -0.0405 -0.0901
30495ION     NA48699  11.396   6.116   5.859  0.2326 -0.3466  0.1719
30496ION     NA48700   4.259  13.098  10.651  0.1216 -0.4353  0.0579
30497ION     NA48701   1.345  15.937  10.571  0.4063  0.3578 -0.0314
30498ION     NA48702   1.385  11.438  10.688 -0.0892  0.1029 -0.1339
30499ION     NA48703   5.263   3.344   2.757 -0.2182  0.0477 -0.1223
30500ION     NA48704  12.139   5.098   4.155  0.0503 -0.0116 -0.2264
30501ION     NA48705  11.685   3.034   5.721  0.1665  0.0548 -0.2625
30502ION     NA48706   0.723   4.492   0.455 -0.2392 -0.1965 -0.0985
30503ION     NA48707  15.876  12.088  10.680  0.2037  0.2021 -0.2283
30504ION     NA48708  13.451  10.453  10.948  0.0395 -0.1376 -0.0712
30505ION     NA48709   8.374  14.036  10.552  0.0371 -0.1395 -0.0737
30506ION     NA48710   6.965  11.454  10.763 -0.0634  0.2487 -0.0901
30507ION     NA48711   6.870  13.004   1.482  0.0200 -0.0354  0.0941
30508ION     NA48712   7.165  13.390   5.595 -0.0409 -0.1403  0.0922
30509ION     NA48713  14.637   6.648  12.013  0.2581  0.0339 -0.0828
30510ION     NA48714   6.535   2.596   4.932 -0.3251  0.0021 -0.2641
30511ION     NA48715   7.077   3.858  10.494  0.2762  0.0630  0.3373
30512ION     NA48716   5.812   8.610  10.480  0.2077 -0.2247  0.2022
30513ION     NA48717  17.898   4.561   5.220 -0.1799 -0.0611  0.1373
30514ION     NA48718   9.842   4.932   5.669  0.1676  0.0350  0.1082
30515ION     NA48719   3.941   1.424   3.503 -0.2283  0.1168 -0.0217
30516ION     NA48720   4.422  12.587  16.060  0.1621 -0.2335 -0.1573
30517ION     NA48721   7.613   3.582  15.644 -0.0952  0.0031  0.1575
30518ION     NA48722  17.224   4.122   2.042  0.0547 -0.1571  0.1498
30519ION     NA48723  10.513   8.950   5.731  0.0176  0.1047 -0.4641
30520ION     NA48724   1.024  14.909   5.548 -0.1197 -0.2588 -0.0936
30521ION     NA48725   7.655   4.267  11.574 -0.1440  0.0730 -0.1260
30522ION     NA48726  12.954  17.540  10.486 -0.1429 -0.0957 -0.1533
30523ION     NA48727   4.261  14.289   5.839  0.1946  0.0565 -0.0955
30524ION     NA48728   3.866   6.457   1.993  0.0027  0.3450  0.0453
30525ION     NA48729   2.228   0.901  10.225  0.2169 -0.0521  0.1900
30526ION     NA48730  14.176   4.237  10.785  0.2712 -0.2133  0.1351
30527ION     NA48731  17.412  15.904  15.666 -0.3482  0.0637 -0.3244
30528ION     NA48732   9.977   4.311  10.631  0.3161 -0.2332 -0.3185
30529ION     NA48733   4.510  15.336   2.144  0.0787  0.4543  0.0707
30530ION     NA48734  17.010   6.407   5.976 -0.0052  0.1668 -0.1050
30531ION     NA48735  14.437   1.682   5.399  0.2281 -0.1327 -0.2474
30532ION     NA48736   2.804   1.979   0.361  0.2151  0.1030  0.1576
30533ION     NA48737   3.511   9.501  10.934  0.2431  0.1298 -0.1289
30534ION     NA48738   9.912  17.946   5.557  0.0908  0.2221  0.1652
30535ION     NA48739  14.562   5.706   0.234 -0.3866  0.0853  0.0488
30536ION     NA48740   2.296   4.733   5.433  0.0456  0.1530  0.1737
30537ION     NA48741   8.069  11.799   0.669 -0.2355 -0.2160  0.2089
30538ION     NA48742  11.837  13.588  14.183 -0.0288 -0.0311  0.1650
30539ION     NA48743   4.501  16.326  10.632  0.1949  0.0110  0.1220
30540ION     NA48744  16.433  14.467  10.401 -0.0710  0.1698 -0.3746
30541ION     NA48745   3.953   4.491  10.692 -0.2350 -0.0524  0.2052
30542ION     NA48746   5.169  11.269  13.897  0.0435 -0.1180 -0.2012
30543ION     NA48747   1.651  12.135   1.521  0.0066  0.0111 -0.0865
30544ION     NA48748   2.076   3.798   0.207 -0.2607 -0.2717  0.1809
30545ION     NA48749   5.556  16.461   5.758  0.1778 -0.1600 -0.2165
30546ION     NA48750  14.143   6.191  12.740  0.2507 -0.0575 -0.0726
30547ION     NA48751   8.447  16.696  10.339  0.2154  0.0785 -0.0427
30548ION     NA48752   8.028  17.861   1.446  0.0386 -0.0457  0.1288
30549ION     NA48753  15.360   6.154   1.419 -0.3116 -0.1125  0.0889
30550ION     NA48754  16.540   5.151  10.682  0.0021  0.0680  0.5035
30551ION     NA48755   3.056   1.178  15.346  0.0160  0.0229  0.0125
30552ION     NA48756   1.765   0.638   3.536 -0.1977  0.1075  0.1556
30553ION     NA48757  12.204  11.481   3.017 -0.1155 -0.0207  0.0462
30554ION     NA48758   8.693  10.441  15.141  0.0123  0.1005  0.0250
30555ION     NA48759  15.089   8.921   1.094 -0.2124  0.2373  0.2528
30556ION     NA48760   0.738  17.750  10.214  0.1818 -0.3153 -0.1489
30557ION     NA48761  12.858   7.504  11.044 -0.0171 -0.0024  0.3638
30558ION     NA48762  10.741   2.405   2.697 -0.1063 -0.0245 -0.1717
30559ION     NA48763  15.458   4.016   5.956  0.0818 -0.0283 -0.1701
30560ION     NA48764  13.991   9.782   5.460  0.2676 -0.2723 -0.1576
30561ION     NA48765   2.259  15.951   4.099 -0.2302  0.1501 -0.2317
30562ION     NA48766  11.026  12.486  10.789  0.0853 -0.1804  0.1460
30563ION     NA48767  11.279  17.799  12.442  0.0785  0.0624  0.0977
30564ION     NA48768   2.016   1.702   5.326 -0.0629 -0.1614 -0.0303
30565ION     NA48769   1.340   5.119  15.505  0.3328 -0.3221  0.1143
30566ION     NA48770   9.903   5.910   5.641  0.0283 -0.1418 -0.1103
30567ION     NA48771  16.613   6.353  15.895  0.0944 -0.0786  0.1712
30568ION     NA48772   2.972  12.291   0.155  0.1650  0.3025 -0.1459
30569ION     NA48773  17.686   1.867  15.843 -0.4290  0.1323 -0.1621
30570ION     NA48774  11.108   9.781   5.810 -0.0018  0.0627  0.0517
30571ION     NA48775  13.505  12.600  10.794  0.3555  0.4810 -0.0298
30572ION     NA48776  12.951  14.006  14.763 -0.0283  0.1801  0.0023
30573ION     NA48777   1.341  11.356   5.443  0.4169  0.1526 -0.0350
30574ION     NA48778   8.792   7.846  10.788 -0.3456 -0.0926  0.4197
30575ION     NA48779   9.002   3.697  13.171 -0.1300  0.1457  0.0441
30576ION     NA48780  16.569   0.944  13.564 -0.0405 -0.2320 -0.0341
30577ION     NA48781  14.361   9.625   1.283  0.0047  0.1963 -0.1340
30578ION     NA48782  10.114   6.339   1.472 -0.1311  0.3574  0.0974
30579ION     NA48783   5.246  15.962   4.944 -0.1825 -0.0145  0.0795
30580ION     NA48784   4.368   3.607  10.654 -0.1826  0.2908  0.2622
30581ION     NA48785  11.175   4.517  15.552  0.0801 -0.2675 -0.3031
30582ION     NA48786   4.625  15.441   5.503  0.0115  0.0078  0.2340
30583ION     NA48787  17.098   8.654   4.990  0.0715 -0.0151 -0.0244
30584ION     NA48788   2.699   3.461  15.289  0.1327 -0.1289  0.0744
30585ION     NA48789   7.678   2.184   4.851  0.0399  0.1986 -0.1809
30586ION     NA48790  11.289  10.295   4.671  0.0652 -0.0309 -0.2108
30587ION     NA48791   6.483   1.037   4.618  0.0991 -0.0375  0.1049
30588ION     NA48792  15.333  16.571  10.086  0.0964  0.1936  0.0640
30589ION     NA48793   5.998   4.242  12.214 -0.3068 -0.0449  0.0523
30590ION     NA48794   9.057  13.354  10.429 -0.2476 -0.2030  0.0443
30591ION     NA48795   9.104  12.820   5.345 -0.1223  0.0446 -0.1443
30592ION     NA48796  12.307   3.565  15.160  0.1377 -0.2119  0.0654
30593ION     NA48797  13.945   0.237   1.469 -0.2079  0.3314  0.0552
30594ION     NA48798   4.123   3.998   5.495 -0.2880 -0.0374 -0.0908
30595ION     NA48799   8.632   3.449  15.893 -0.2061  0.0418  0.3103
30596ION     NA48800   1.199  17.948  14.150  0.0073  0.2607 -0.0909
30597ION     NA48801   3.111  16.489  15.220 -0.2397  0.0796 -0.0488
30598ION     NA48802   4.406   5.207   5.308 -0.3412  0.3117  0.1980
30599ION     NA48803  13.616   4.031   3.121  0.1071 -0.2642 -0.1381
30600ION     NA48804  16.660   2.885   5.424 -0.1736  0.1452 -0.1781
30601ION     NA48805   3.685   6.404  15.068 -0.0776 -0.1727  0.1425
30602ION     NA48806  16.285   7.423  14.691  0.0375  0.1344  0.2353
30603ION     NA48807   5.072  13.111   5.551  0.0944 -0.2264  0.1230
30604ION     NA48808  12.774   0.323  10.425  0.0858 -0.0495  0.1247
30605ION     NA48809   2.220  15.903  13.964 -0.1804  0.3473 -0.1679
30606ION     NA48810   0.938   1.578   5.318 -0.0446  0.0550  0.2010
30607ION     NA48811   7.537  14.711   1.990  0.0734 -0.1329 -0.1496
30608ION     NA48812   4.226  17.224   0.046 -0.2021  0.1110 -0.0337
30609ION     NA48813   8.756  12.789   2.068 -0.3118 -0.0473  0.1948
30610ION     NA48814  14.305  15.610  13.350 -0.1105 -0.1232  0.1631
30611ION     NA48815   1.888   1.612  10.273 -0.1080  0.0643  0.0544
30612ION     NA48816   3.570   5.730  10.750 -0.0223 -0.1178 -0.2415
30613ION     NA48817   2.614  10.606   0.121  0.0015 -0.1108  0.2824
30614ION     NA48818   4.819  14.969  12.334  0.0805 -0.0443  0.0548
30615ION     NA48819   6.473   2.862   0.539 -0.1661 -0.0337 -0.2190
30616ION     NA48820  15.123   5.106  16.046 -0.0047  0.2276  0.2156
30617ION     NA48821   8.354   1.044  10.334  0.0888  0.2554 -0.3716
30618ION     NA48822  15.735  12.262  15.679  0.3827 -0.2300  0.0898
30619ION     NA48823  10.293  15.068   2.314 -0.1494 -0.0360 -0.4004
30620ION     NA48824  13.636   7.577   6.122 -0.0801  0.1242  0.0205
30621ION     NA48825   3.567  18.010   5.626 -0.1101  0.0660 -0.1240
30622ION     NA48826   0.761   4.298   2.453 -0.0858 -0.3485  0.2334
30623ION     NA48827  14.318   7.864  11.040  0.2026 -0.0210  0.0944
30624ION     NA48828  14.394  16.994  10.431  0.0424  0.1832  0.0659
30625ION     NA48829   2.812   9.338   3.007  0.0851  0.0452 -0.3926
30626ION     NA48830   0.385  11.519  10.720  0.0833 -0.0245 -0.0402
30627ION     NA48831  12.070   0.943  10.488 -0.0204  0.1609  0.0775
30628ION     NA48832   5.511   1.152   4.131 -0.0672  0.1861 -0.0384
30629ION     NA48833   0.337  15.103  10.668 -0.3005  0.2312  0.3123
30630ION     NA48834   7.894   5.871   4.509 -0.0027  0.1301  0.2010
30631ION     NA48835   5.727  15.441  15.635  0.0505  0.0878 -0.1119
30632ION     NA48836   4.931   7.119   5.943 -0.1458  0.2286  0.2747
30633ION     NA48837   9.955   9.738   5.566  0.0430 -0.0094  0.1212
30634ION     NA48838  14.433   6.148   5.832 -0.0619 -0.0813  0.0229
30635ION     NA48839   7.553  17.711  11.393 -0.0172  0.1520 -0.0074
30636ION     NA48840   1.247  13.245   3.352 -0.3186  0.0626 -0.0868
30637ION     NA48841   6.797   2.353  11.229 -0.0683  0.0011  0.0644
30638ION     NA48842   4.731   9.170  16.164 -0.0740  0.0838 -0.1647
30639ION     NA48843   0.091   9.146   2.504  0.1217  0.2704 -0.1366
30640ION     NA48844   7.755  13.913   2.849 -0.0997 -0.0056  0.0885
30641ION     NA48845   1.772  11.994  15.792  0.0033 -0.1002  0.1193
30642ION     NA48846  12.857   0.548   2.062  0.1938  0.0348  0.0602
30643ION     NA48847  15.699   5.848  13.651 -0.1148  0.1502 -0.0786
30644ION     NA48848   2.760  13.283  15.870  0.0003  0.0783 -0.0281
30645ION     NA48849   6.891  17.468   0.716  0.1627 -0.0453 -0.0718
30646ION     NA48850   9.497   1.166  15.418 -0.4814  0.1279 -0.1713
30647ION     NA48851   2.302   9.436   2.016 -0.0028 -0.2987 -0.0717
30648ION     NA48852  12.563   0.116   5.388 -0.0619 -0.1326  0.1869
30649ION     NA48853  13.319   9.382   0.882 -0.1859  0.2246  0.1240
30650ION     NA48854   8.210  11.414   2.920  0.1595  0.0087  0.0357
  18.04233  18.04233  16.17765
